 Entering Gaussian System, Link 0=/cm/shared/apps//g16/g16
 Input=QST2_YRhMeH_sigma_YRhMeH.gjf
 Output=QST2_YRhMeH_sigma_YRhMeH.log
 Initial command:
 /cm/shared/apps//g16/l1.exe "/local/mvanvleet/pbs.14069.josephine/Gau-3469336.inp" -scrdir="/local/mvanvleet/pbs.14069.josephine/"
 Entering Link 1 = /cm/shared/apps//g16/l1.exe PID=   3469339.
  
 Copyright (c) 1988-2019, Gaussian, Inc.  All Rights Reserved.
  
 This is part of the Gaussian(R) 16 program.  It is based on
 the Gaussian(R) 09 system (copyright 2009, Gaussian, Inc.),
 the Gaussian(R) 03 system (copyright 2003, Gaussian, Inc.),
 the Gaussian(R) 98 system (copyright 1998, Gaussian, Inc.),
 the Gaussian(R) 94 system (copyright 1995, Gaussian, Inc.),
 the Gaussian 92(TM) system (copyright 1992, Gaussian, Inc.),
 the Gaussian 90(TM) system (copyright 1990, Gaussian, Inc.),
 the Gaussian 88(TM) system (copyright 1988, Gaussian, Inc.),
 the Gaussian 86(TM) system (copyright 1986, Carnegie Mellon
 University), and the Gaussian 82(TM) system (copyright 1983,
 Carnegie Mellon University). Gaussian is a federally registered
 trademark of Gaussian, Inc.
  
 This software contains proprietary and confidential information,
 including trade secrets, belonging to Gaussian, Inc.
  
 This software is provided under written license and may be
 used, copied, transmitted, or stored only in accord with that
 written license.
  
 The following legend is applicable only to US Government
 contracts under FAR:
  
                    RESTRICTED RIGHTS LEGEND
  
 Use, reproduction and disclosure by the US Government is
 subject to restrictions as set forth in subparagraphs (a)
 and (c) of the Commercial Computer Software - Restricted
 Rights clause in FAR 52.227-19.
  
 Gaussian, Inc.
 340 Quinnipiac St., Bldg. 40, Wallingford CT 06492
  
  
 ---------------------------------------------------------------
 Warning -- This program may not be used in any manner that
 competes with the business of Gaussian, Inc. or will provide
 assistance to any competitor of Gaussian, Inc.  The licensee
 of this program is prohibited from giving any competitor of
 Gaussian, Inc. access to this program.  By using this program,
 the user acknowledges that Gaussian, Inc. is engaged in the
 business of creating and licensing software in the field of
 computational chemistry and represents and warrants to the
 licensee that it is not a competitor of Gaussian, Inc. and that
 it will not use this program in any manner prohibited above.
 ---------------------------------------------------------------
  

 Cite this work as:
 Gaussian 16, Revision C.01,
 M. J. Frisch, G. W. Trucks, H. B. Schlegel, G. E. Scuseria, 
 M. A. Robb, J. R. Cheeseman, G. Scalmani, V. Barone, 
 G. A. Petersson, H. Nakatsuji, X. Li, M. Caricato, A. V. Marenich, 
 J. Bloino, B. G. Janesko, R. Gomperts, B. Mennucci, H. P. Hratchian, 
 J. V. Ortiz, A. F. Izmaylov, J. L. Sonnenberg, D. Williams-Young, 
 F. Ding, F. Lipparini, F. Egidi, J. Goings, B. Peng, A. Petrone, 
 T. Henderson, D. Ranasinghe, V. G. Zakrzewski, J. Gao, N. Rega, 
 G. Zheng, W. Liang, M. Hada, M. Ehara, K. Toyota, R. Fukuda, 
 J. Hasegawa, M. Ishida, T. Nakajima, Y. Honda, O. Kitao, H. Nakai, 
 T. Vreven, K. Throssell, J. A. Montgomery, Jr., J. E. Peralta, 
 F. Ogliaro, M. J. Bearpark, J. J. Heyd, E. N. Brothers, K. N. Kudin, 
 V. N. Staroverov, T. A. Keith, R. Kobayashi, J. Normand, 
 K. Raghavachari, A. P. Rendell, J. C. Burant, S. S. Iyengar, 
 J. Tomasi, M. Cossi, J. M. Millam, M. Klene, C. Adamo, R. Cammi, 
 J. W. Ochterski, R. L. Martin, K. Morokuma, O. Farkas, 
 J. B. Foresman, and D. J. Fox, Gaussian, Inc., Wallingford CT, 2019.
 
 ******************************************
 Gaussian 16:  ES64L-G16RevC.01  3-Jul-2019
                 8-Mar-2024 
 ******************************************
 %nprocshared=48
 Will use up to   48 processors via shared memory.
 %chk=QST2_YRhMeH_sigma_YRhMeH.chk
 %mem=16GB
 ---------------------------------------------------------------
 # wb97xd def2TZVPP SCRF=(solvent=dichloromethane) opt=qst2 freq
 ---------------------------------------------------------------
 1/5=1,18=20,26=3,27=202,38=1/1,3;
 2/9=110,12=2,17=6,18=5,40=1/2;
 3/5=44,7=202,11=2,25=1,30=1,70=2201,71=1,72=9,74=-58/1,2,3;
 4//1;
 5/5=2,38=5,53=9/2;
 6/7=2,8=2,9=2,10=2,28=1/1;
 7//1,2,3,16;
 1/5=1,18=20,26=3,27=202/3(2);
 2/9=110/2;
 99//99;
 2/9=110/2;
 3/5=44,7=202,11=2,25=1,30=1,70=2205,71=1,72=9,74=-58/1,2,3;
 4/5=5,16=3,69=1/1;
 5/5=2,38=5,53=9/2;
 7//1,2,3,16;
 1/5=1,18=20,26=3,27=202/3(-5);
 2/9=110/2;
 6/7=2,8=2,9=2,10=2,19=2,28=1/1;
 99/9=1/99;
 -----------------------
 ts_xyz/YRhMeH_sigma.xyz
 -----------------------
 Symbolic Z-matrix:
 Charge =  0 Multiplicity = 1
 C                     1.77948   1.20834  -0.12784 
 C                     1.77936  -1.20852  -0.12784 
 C                     3.16091   1.2109    0.00361 
 C                     3.16078  -1.21123   0.0036 
 C                     3.84713  -0.0002    0.08625 
 H                     3.7134    2.14387   0.03449 
 H                     3.71318  -2.14426   0.03449 
 C                     0.91188   2.41036  -0.37771 
 H                     0.89053   2.60538  -1.45146 
 H                     1.27363   3.323     0.10932 
 C                     0.91163  -2.41045  -0.37771 
 H                     0.89026  -2.60547  -1.45147 
 H                     1.27328  -3.32313   0.10931 
 N                    -0.49906   2.13733   0.03822 
 N                    -0.49928  -2.13728   0.03822 
 C                    -3.39544   0.00014  -0.00161 
 H                    -2.76163   0.00015   0.8993 
 H                    -4.01441   0.89353   0.00748 
 H                    -4.01441  -0.89324   0.00749 
 C                    -1.41243   2.97768  -0.74418 
 H                    -2.43282   2.81285  -0.40336 
 H                    -1.17092   4.04137  -0.62844 
 H                    -1.34522   2.70595  -1.79511 
 C                    -0.64428   2.48063   1.46329 
 H                    -0.47661   3.5539    1.61869 
 H                    -1.64573   2.22611   1.80385 
 H                     0.07857   1.91782   2.04857 
 C                    -1.41274  -2.97753  -0.74417 
 H                    -1.17135  -4.04124  -0.62843 
 H                    -2.43312  -2.81258  -0.40335 
 H                    -1.3455   -2.70581  -1.7951 
 C                    -0.64454  -2.48055   1.46329 
 H                    -1.64596  -2.22593   1.80385 
 H                    -0.47697  -3.55384   1.61869 
 H                     0.07838  -1.91782   2.04857 
 H                    -2.79233   0.00014  -0.92869 
 H                     4.92368  -0.00026   0.19919 
 C                     1.08095  -0.00005  -0.15302 
 Rh                   -0.81901   0.00004  -0.12419 
 
 Add virtual bond connecting atoms Rh39       and H17        Dist= 4.15D+00.
 Add virtual bond connecting atoms Rh39       and H36        Dist= 4.03D+00.
 -----------------
 ts_xyz/YRhMeH.xyz
 -----------------
 Symbolic Z-matrix:
 Charge =  0 Multiplicity = 1
 C                    -1.21188   1.74664  -0.12134 
 C                     1.21188   1.74664  -0.12134 
 C                    -1.21391   3.10592   0.16008 
 C                     1.2139    3.10592   0.16008 
 C                     0.        3.77599   0.30881 
 H                    -2.1451    3.65194   0.26001 
 H                     2.1451    3.65194   0.26001 
 C                    -2.40004   0.87618  -0.42675 
 H                    -2.56517   0.88006  -1.50566 
 H                    -3.32559   1.21589   0.04755 
 C                     2.40004   0.87618  -0.42675 
 H                     2.56517   0.88006  -1.50566 
 H                     3.32559   1.21589   0.04755 
 N                    -2.12649  -0.54652  -0.03824 
 N                     2.12649  -0.54652  -0.03824 
 C                     0.       -2.85172   0.69042 
 H                     0.       -2.69755   1.78095 
 H                    -0.88316  -3.46527   0.47392 
 H                     0.88316  -3.46527   0.47392 
 C                    -2.96139  -1.44814  -0.84237 
 H                    -2.78568  -2.47241  -0.52352 
 H                    -4.02369  -1.20986  -0.71934 
 H                    -2.68983  -1.35312  -1.89097 
 C                    -2.46812  -0.71851   1.38512 
 H                    -3.53252  -0.52018   1.54827 
 H                    -2.23835  -1.73476   1.69285 
 H                    -1.88263  -0.02385   1.98473 
 C                     2.96139  -1.44814  -0.84237 
 H                     4.02369  -1.20986  -0.71934 
 H                     2.78568  -2.47241  -0.52352 
 H                     2.68983  -1.35312  -1.89097 
 C                     2.46812  -0.71851   1.38512 
 H                     2.23835  -1.73476   1.69285 
 H                     3.53252  -0.52018   1.54827 
 H                     1.88263  -0.02385   1.98473 
 H                     0.       -0.29222  -1.62675 
 H                     0.        4.83441   0.53449 
 C                     0.        1.07846  -0.22253 
 Rh                    0.       -0.86426  -0.20902 
 
 Iteration  1 RMS(Cart)=  0.05805590 RMS(Int)=  0.50872234
 Iteration  2 RMS(Cart)=  0.03021881 RMS(Int)=  0.50592093
 Iteration  3 RMS(Cart)=  0.01975751 RMS(Int)=  0.50390142
 Iteration  4 RMS(Cart)=  0.01701509 RMS(Int)=  0.50253968
 Iteration  5 RMS(Cart)=  0.01728438 RMS(Int)=  0.50223849
 Iteration  6 RMS(Cart)=  0.01756230 RMS(Int)=  0.50310608
 Iteration  7 RMS(Cart)=  0.01771481 RMS(Int)=  0.50514660
 Iteration  8 RMS(Cart)=  0.01460378 RMS(Int)=  0.50723722
 Iteration  9 RMS(Cart)=  0.00592764 RMS(Int)=  0.50823675
 Iteration 10 RMS(Cart)=  0.00183591 RMS(Int)=  0.50855118
 Iteration 11 RMS(Cart)=  0.00053832 RMS(Int)=  0.50864320
 Iteration 12 RMS(Cart)=  0.00015671 RMS(Int)=  0.50866995
 Iteration 13 RMS(Cart)=  0.00004555 RMS(Int)=  0.50867772
 Iteration 14 RMS(Cart)=  0.00001323 RMS(Int)=  0.50867998
 Iteration 15 RMS(Cart)=  0.00000384 RMS(Int)=  0.50868063
 Iteration 16 RMS(Cart)=  0.00000111 RMS(Int)=  0.50868082
 Iteration 17 RMS(Cart)=  0.00000032 RMS(Int)=  0.50868088
 Iteration  1 RMS(Cart)=  0.00000009 RMS(Int)=  0.50868089
 Iteration  1 RMS(Cart)=  0.00000003 RMS(Int)=  0.50868090
 Iteration  1 RMS(Cart)=  0.00000001 RMS(Int)=  0.50868090
 Iteration  1 RMS(Cart)=  0.00000000 RMS(Int)=  0.50868090
 Iteration  1 RMS(Cart)=  0.00000000 RMS(Int)=  0.50868090
 Iteration  1 RMS(Cart)=  0.00000000 RMS(Int)=  0.50868090
 Iteration  1 RMS(Cart)=  0.00000000 RMS(Int)=  0.50868090
 Iteration  1 RMS(Cart)=  0.00000000 RMS(Int)=  0.50868090
 Iteration  1 RMS(Cart)=  0.00000000 RMS(Int)=  0.50868090
   Var     Old X     New X   DQ Goal   DQ Act.  Rel. Err.   Overall
     1    2.6223    2.6227    0.0004    0.0003
     2    2.8409    2.8392    0.0008   -0.0017
     3    2.6380    2.6308   -0.0080   -0.0073
     4    2.6223    2.6228    0.0004    0.0005
     5    2.8409    2.8372    0.0008   -0.0037
     6    2.6381    2.6302   -0.0080   -0.0079
     7    2.6351    2.6333    0.0001   -0.0018
     8    2.0498    2.0492   -0.0006   -0.0006
     9    2.6351    2.6334    0.0001   -0.0017
    10    2.0498    2.0492   -0.0006   -0.0006
    11    2.0455    2.0453   -0.0002   -0.0002
    12    2.0627    2.0626   -0.0000   -0.0000
    13    2.0709    2.0692   -0.0017   -0.0017
    14    2.8272    2.8258    0.0036   -0.0014
    15    2.0627    2.0627   -0.0001   -0.0001
    16    2.0709    2.0692   -0.0017   -0.0017
    17    2.8272    2.8266    0.0036   -0.0006
    18    2.7725    2.7738    0.0013    0.0013
    19    2.7836    2.7844    0.0008    0.0008
    20    4.0954    4.0886   -0.0098   -0.0068
    21    2.7725    2.7738    0.0013    0.0013
    22    2.7836    2.7844    0.0008    0.0008
    23    4.0954    4.0894   -0.0098   -0.0060
    24    2.0816    2.1531   -0.0001    0.0715
    25    2.0539    2.0634    0.0095    0.0095
    26    2.0539    2.0634    0.0095    0.0095
    27    2.0900    4.4871    2.2172    2.3971    1.0811
    28    4.8743    4.4257   -0.3759   -0.4486    1.1934
    29    4.1494    4.5534    0.4819    0.4040    0.8385
    30    2.0567    2.0555   -0.0012   -0.0012
    31    2.0728    2.0716   -0.0012   -0.0012
    32    2.0552    2.0550   -0.0002   -0.0002
    33    2.0737    2.0714   -0.0023   -0.0023
    34    2.0560    2.0545   -0.0015   -0.0015
    35    2.0544    2.0557    0.0013    0.0013
    36    2.0728    2.0716   -0.0012   -0.0012
    37    2.0567    2.0555   -0.0012   -0.0012
    38    2.0552    2.0550   -0.0002   -0.0002
    39    2.0559    2.0545   -0.0015   -0.0015
    40    2.0737    2.0714   -0.0023   -0.0023
    41    2.0544    2.0557    0.0013    0.0013
    42    4.0270    3.3734   -0.5690   -0.6537    1.1488
    43    3.5908    3.6384    0.0402    0.0476    1.1825
    44    2.2004    2.2091    0.0111    0.0088    0.7880
    45    2.0961    2.0913   -0.0080   -0.0048
    46    1.9827    1.9796   -0.0021   -0.0031
    47    2.2004    2.2093    0.0112    0.0089    0.8017
    48    2.0961    2.0911   -0.0080   -0.0050
    49    1.9827    1.9798   -0.0021   -0.0029
    50    2.0874    2.0859   -0.0017   -0.0014
    51    2.1075    2.1084    0.0011    0.0009
    52    2.0883    2.0888    0.0007    0.0005
    53    2.0874    2.0862   -0.0017   -0.0012
    54    2.1075    2.1083    0.0011    0.0008
    55    2.0882    2.0887    0.0007    0.0004
    56    2.1043    2.1069    0.0040    0.0026
    57    2.0894    2.0881   -0.0020   -0.0013
    58    2.0894    2.0881   -0.0020   -0.0013
    59    1.8940    1.8975    0.0003    0.0035
    60    1.9839    1.9841   -0.0005    0.0001
    61    1.9307    1.9244    0.0000   -0.0063
    62    1.8701    1.8716    0.0024    0.0015
    63    1.8626    1.8676   -0.0003    0.0051
    64    1.9174    1.9143   -0.0017   -0.0032
    65    1.8940    1.8980    0.0003    0.0039
    66    1.9840    1.9840   -0.0005    0.0001
    67    1.9307    1.9237    0.0000   -0.0069
    68    1.8701    1.8715    0.0024    0.0014
    69    1.8626    1.8678   -0.0003    0.0053
    70    1.9174    1.9144   -0.0017   -0.0030
    71    1.9117    1.8887    0.0013   -0.0230
    72    1.8959    1.9510   -0.0004    0.0551
    73    1.8738    1.8789    0.0003    0.0051
    74    1.8976    1.8703    0.0023   -0.0273
    75    2.0186    2.0142   -0.0035   -0.0044
    76    1.8627    1.8622    0.0000   -0.0006
    77    1.9117    1.8877    0.0013   -0.0240
    78    1.8959    1.9516   -0.0005    0.0557
    79    1.8738    1.8793    0.0003    0.0055
    80    1.8976    1.8708    0.0023   -0.0269
    81    2.0186    2.0139   -0.0035   -0.0047
    82    1.8627    1.8622    0.0000   -0.0005
    83    1.8974    1.8118   -0.0247   -0.0856    3.4699
    84    1.8974    1.8489   -0.0247   -0.0485    1.9666
    85    1.9517    2.1625    0.1072    0.2107    1.9661
    86    1.0053    1.3867    0.4250    0.3814    0.8974
    87    1.9297    1.9336   -0.0290    0.0040   -0.1367
    88    1.8939    1.8457   -0.0185   -0.0482    2.6014
    89    2.1764    2.1473   -0.0816   -0.0291    0.3569
    90    1.8940    1.8576   -0.0185   -0.0364    1.9616
    91    2.1763    2.1472   -0.0815   -0.0292    0.3577
    92    1.6990    1.2714   -0.4070   -0.4276    1.0504
    93    1.9070    1.9049   -0.0021   -0.0021
    94    1.9413    1.9382   -0.0031   -0.0031
    95    1.9111    1.9104   -0.0007   -0.0007
    96    1.8968    1.9013    0.0045    0.0045
    97    1.8994    1.9005    0.0011    0.0011
    98    1.9078    1.9082    0.0004    0.0004
    99    1.9282    1.9273   -0.0010   -0.0010
   100    1.9167    1.9139   -0.0029   -0.0029
   101    1.9120    1.9111   -0.0010   -0.0010
   102    1.9019    1.9060    0.0041    0.0041
   103    1.9055    1.9038   -0.0018   -0.0017
   104    1.8991    1.9016    0.0025    0.0025
   105    1.9413    1.9382   -0.0032   -0.0031
   106    1.9070    1.9049   -0.0021   -0.0021
   107    1.9110    1.9104   -0.0007   -0.0007
   108    1.8968    1.9013    0.0045    0.0045
   109    1.9078    1.9082    0.0004    0.0004
   110    1.8994    1.9005    0.0011    0.0011
   111    1.9167    1.9139   -0.0029   -0.0029
   112    1.9282    1.9273   -0.0010   -0.0010
   113    1.9120    1.9111   -0.0010   -0.0010
   114    1.9019    1.9060    0.0041    0.0041
   115    1.8991    1.9016    0.0025    0.0025
   116    1.9055    1.9038   -0.0017   -0.0017
   117    1.7604    1.1658   -0.6545   -0.5946    0.9086
   118    2.0929    2.1029    0.0157    0.0100    0.6386
   119    2.0944    2.0869   -0.0109   -0.0075    0.6871
   120    2.0944    2.0881   -0.0109   -0.0063    0.5786
   121    2.8090    2.7818   -0.0018   -0.0272
   122    1.7152    1.7142   -0.0213   -0.0010    0.0454
   123    1.6666    1.6394   -0.0271   -0.0272    1.0026
   124    1.7365    1.7098   -0.0737   -0.0267    0.3617
   125    1.4238    1.4154   -0.0002   -0.0084
   126    1.7151    1.7129   -0.0213   -0.0022    0.1055
   127    1.6666    1.6534   -0.0271   -0.0132    0.4866
   128    1.7365    1.7383   -0.0737    0.0018   -0.0250
   129    1.4238    1.4141   -0.0002   -0.0098
   130    0.4347    1.1996    0.9723    0.7649    0.7867
   131    3.1092    3.0084   -0.1928   -0.1009    0.5231
   132    0.8720    1.6828    0.9543    0.8108    0.8496
   133    2.6719    2.5249   -0.1748   -0.1469    0.8405
   134    2.7393    2.0753   -0.7795   -0.6641    0.8519
   135   -3.0183   -3.0296   -0.0143   -0.0113    0.7883
   136    0.1143    0.1038   -0.0127   -0.0105    0.8289
   137    0.0198    0.0214    0.0011    0.0016
   138   -3.1307   -3.1284    0.0027    0.0024
   139    1.4732    1.5256    0.0513    0.0524    1.0231
   140   -0.6056   -0.5575    0.0484    0.0481    0.9931
   141   -2.7723   -2.7152    0.0510    0.0570    1.1178
   142   -1.5707   -1.5304    0.0370    0.0404    1.0923
   143    2.6337    2.6697    0.0341    0.0360    1.0557
   144    0.4670    0.5120    0.0367    0.0450    1.2243
   145   -0.0680   -0.0660    0.0032    0.0021
   146    3.0144    2.9649   -0.0571   -0.0496    0.8685
   147    2.9823    2.9964    0.0173    0.0140    0.8108
   148   -0.2184   -0.2560   -0.0429   -0.0376    0.8757
   149    3.0183    3.0320    0.0143    0.0137    0.9557
   150   -0.1144   -0.1022    0.0127    0.0121    0.9521
   151   -0.0198   -0.0210   -0.0011   -0.0012
   152    3.1307    3.1280   -0.0027   -0.0027
   153   -1.4732   -1.5266   -0.0513   -0.0534    1.0415
   154    0.6056    0.5567   -0.0484   -0.0489    1.0095
   155    2.7723    2.7141   -0.0510   -0.0582    1.1395
   156    1.5708    1.5312   -0.0370   -0.0395    1.0683
   157   -2.6337   -2.6687   -0.0341   -0.0350    1.0252
   158   -0.4670   -0.5113   -0.0367   -0.0443    1.2046
   159    0.0680    0.0657   -0.0032   -0.0023
   160   -3.0144   -2.9650    0.0571    0.0494    0.8658
   161   -2.9823   -2.9983   -0.0173   -0.0160    0.9231
   162    0.2184    0.2541    0.0429    0.0357    0.8321
   163    0.0287    0.0231   -0.0062   -0.0057
   164   -3.1305   -3.1330   -0.0021   -0.0025
   165   -3.1040   -3.1104   -0.0078   -0.0064
   166    0.0199    0.0167   -0.0037   -0.0032
   167   -0.0287   -0.0233    0.0062    0.0054
   168    3.1305    3.1328    0.0022    0.0023
   169    3.1041    3.1110    0.0077    0.0070
   170   -0.0199   -0.0161    0.0037    0.0038
   171   -2.6759   -2.6937   -0.0123   -0.0178    1.4471
   172    1.5369    1.5338   -0.0156   -0.0031    0.1983
   173   -0.4712   -0.5058   -0.0155   -0.0345    2.2208
   174   -0.6188   -0.6329   -0.0122   -0.0141    1.1574
   175   -2.6892   -2.6885   -0.0155    0.0006   -0.0412
   176    1.5859    1.5551   -0.0154   -0.0308    1.9989
   177    1.4029    1.3918   -0.0104   -0.0112    1.0749
   178   -0.6674   -0.6639   -0.0137    0.0035   -0.2593
   179   -2.6756   -2.7035   -0.0136   -0.0279    2.0454
   180    2.6759    2.6938    0.0123    0.0179    1.4562
   181   -1.5369   -1.5335    0.0156    0.0034    0.2167
   182    0.4712    0.5067    0.0155    0.0354    2.2792
   183    0.6188    0.6327    0.0122    0.0139    1.1417
   184    2.6892    2.6885    0.0154   -0.0007   -0.0422
   185   -1.5859   -1.5545    0.0154    0.0314    2.0380
   186   -1.4029   -1.3920    0.0104    0.0109    1.0473
   187    0.6674    0.6638    0.0137   -0.0037   -0.2682
   188    2.6756    2.7040    0.0136    0.0284    2.0831
   189   -3.0918   -3.1123   -0.0043   -0.0205
   190   -0.9977   -1.0160   -0.0021   -0.0183
   191    1.1127    1.0925   -0.0040   -0.0202
   192   -1.0225   -1.0056   -0.0027    0.0168
   193    1.0716    1.0907   -0.0005    0.0191
   194   -3.1012   -3.0841   -0.0024    0.0171
   195    1.0719    1.0652   -0.0033   -0.0066
   196   -3.1173   -3.1217   -0.0011   -0.0044
   197   -1.0069   -1.0132   -0.0030   -0.0063
   198    1.1097    1.0768   -0.0165   -0.0329    1.9993
   199   -3.0750   -3.1053   -0.0139   -0.0303    2.1885
   200   -0.9902   -1.0198   -0.0131   -0.0296    2.2570
   201   -0.9695   -0.9899   -0.0191   -0.0204    1.0646
   202    1.1290    1.1112   -0.0165   -0.0177    1.0748
   203   -3.0694   -3.0864   -0.0158   -0.0170    1.0784
   204    3.1251    3.1265   -0.0163    0.0014   -0.0860
   205   -1.0597   -1.0556   -0.0137    0.0040   -0.2945
   206    1.0251    1.0299   -0.0129    0.0048   -0.3702
   207    0.7854    0.8316    0.0018    0.0463
   208   -2.8796   -2.9694    2.9426   -0.0897   -0.0305
   209    2.9657    2.8333   -0.1790   -0.1324    0.7395
   210   -2.4401   -1.7560    0.7751    0.6841    0.8826
   211    0.2946    0.3064   -0.0058    0.0118
   212    2.9251    2.9426    0.0015    0.0175
   213   -0.7399   -0.8584   -0.1993   -0.1185    0.5945
   214   -1.1778   -1.3389   -0.1793   -0.1611    0.8984
   215   -0.3004    0.3550    0.7747    0.6554    0.8459
   216    2.4343    2.4174   -0.0062   -0.0169
   217   -1.2448   -1.2651    0.0022   -0.0203
   218    1.3734    1.2170   -0.1986   -0.1564    0.7872
   219    0.9355    0.7365   -0.1786   -0.1990    1.1139
   220    1.8129    2.4304   -2.3661    0.6175   -0.2610
   221   -1.7356   -1.7904   -0.0055   -0.0548
   222    0.9977    1.0163    0.0020    0.0185
   223    3.0918    3.1126    0.0043    0.0208
   224   -1.1127   -1.0922    0.0040    0.0205
   225   -1.0716   -1.0907    0.0005   -0.0191
   226    1.0225    1.0056    0.0027   -0.0169
   227    3.1012    3.0840    0.0024   -0.0171
   228    3.1173    3.1214    0.0011    0.0042
   229   -1.0718   -1.0655    0.0033    0.0064
   230    1.0069    1.0130    0.0030    0.0061
   231    3.0750    3.1058    0.0139    0.0308    2.2241
   232   -1.1097   -1.0763    0.0165    0.0334    2.0295
   233    0.9902    1.0203    0.0131    0.0301    2.2937
   234   -1.1290   -1.1114    0.0165    0.0175    1.0626
   235    0.9695    0.9897    0.0191    0.0202    1.0541
   236    3.0694    3.0862    0.0158    0.0168    1.0656
   237    1.0597    1.0553    0.0137   -0.0043   -0.3162
   238   -3.1250   -3.1267    0.0163   -0.0017   -0.1044
   239   -1.0252   -1.0302    0.0129   -0.0051   -0.3921
   240   -0.7854   -0.8332   -0.0018   -0.0478
   241    2.8796    2.9677   -2.9426    0.0880   -0.0299
   242   -2.9657   -2.8325    0.1790    0.1331    0.7437
   243    2.4401    1.7517   -0.7751   -0.6884    0.8881
   244   -0.2946   -0.3079    0.0058   -0.0133
   245   -2.9251   -2.9429   -0.0015   -0.0178
   246    0.7399    0.8579    0.1993    0.1180    0.5922
   247    1.1778    1.3409    0.1794    0.1631    0.9096
   248    0.3004   -0.3580   -0.7747   -0.6584    0.8498
   249   -2.4343   -2.4176    0.0062    0.0167
   250    1.2448    1.2644   -0.0022    0.0196
   251   -1.3734   -1.2179    0.1986    0.1555    0.7830
   252   -0.9355   -0.7349    0.1786    0.2006    1.1229
   253   -1.8129   -2.4338    2.3661   -0.6209   -0.2624
   254    1.7356    1.7898    0.0055    0.0542
   255   -2.0908   -2.1237   -0.0294   -0.0329    1.1193
   256    2.0907    2.1216    0.0295    0.0309    1.0468
   257   -0.0001   -0.0271    0.0000   -0.0270
   258    0.0001    0.0380   -0.0000    0.0380
   259    2.0928    2.1190    0.0265    0.0261    0.9879
   260   -2.0927   -2.1068   -0.0265   -0.0140    0.5286
   261   -1.4879   -1.4445    0.0256    0.0435    1.7009
   262    1.4880    1.4775   -0.0256   -0.0105    0.4112
   263   -3.1415   -3.1095    3.1416    0.0320    0.0102
   264    0.0003    0.0264   -0.0002    0.0261
   265    0.1056    0.2956    0.2499    0.1900    0.7604
   266    3.0815   -3.0656   -2.9428   -6.1471    2.0889
   267   -1.5480   -1.3694    0.2243    0.1786    0.7963
   268    1.5938    1.7665    0.2242    0.1727    0.7701
   269   -3.0815    3.0543    2.9428    6.1358    2.0850
   270   -0.1056   -0.3069   -0.2499   -0.2014    0.8057
   271    1.5481    1.3893   -0.2244   -0.1588    0.7077
   272   -1.5933   -1.7580   -0.2245   -0.1648    0.7340
   273    1.7070    1.7490    0.0133    0.0420    3.1499
   274   -1.7069   -1.7193   -0.0134   -0.0124    0.9305
   275    0.0000    0.0301   -0.0000    0.0301
   276   -3.1416   -3.1355    3.1416    0.0060    0.0019
   277   -1.5570   -1.6713   -0.0904   -0.1144    1.2646
   278    1.5569    1.6592    0.0905    0.1023    1.1307
   279   -0.0000   -0.0150    0.0000   -0.0150
   280    3.1416   -3.1407    0.0000   -6.2823
   281   -0.0485   -0.0339    0.0272    0.0146    0.5357
   282   -3.0339   -2.9958    0.0303    0.0381    1.2564
   283   -1.5415   -1.5248    0.0289    0.0167    0.5779
   284   -1.5412   -1.5036    0.0287    0.0376    1.3085
   285    1.6004    1.6107    0.0288    0.0103    0.3594
   286    3.0339    2.9979   -0.0303   -0.0360    1.1896
   287    0.0485    0.0359   -0.0272   -0.0126    0.4613
   288    1.5409    1.5070   -0.0286   -0.0339    1.1851
   289    1.5412    1.5282   -0.0288   -0.0130    0.4521
   290   -1.6004   -1.6407   -0.0288   -0.0403    1.4010

 GradGradGradGradGradGradGradGradGradGradGradGradGradGradGradGradGradGrad
 Berny optimization.
 Initialization pass.
                           ----------------------------
                           !    Initial Parameters    !
                           ! (Angstroms and Degrees)  !
 --------------------------                            --------------------------
 ! Name  Definition         TS        Reactant Product Derivative Info.         !
 --------------------------------------------------------------------------------
 ! R1    R(1,3)             1.3878    1.3877    1.3881 estimate D2E/DX2         !
 ! R2    R(1,8)             1.5024    1.5033    1.5042 estimate D2E/DX2         !
 ! R3    R(1,38)            1.3921    1.396     1.3876 estimate D2E/DX2         !
 ! R4    R(2,4)             1.3879    1.3877    1.3881 estimate D2E/DX2         !
 ! R5    R(2,11)            1.5014    1.5033    1.5042 estimate D2E/DX2         !
 ! R6    R(2,38)            1.3918    1.396     1.3876 estimate D2E/DX2         !
 ! R7    R(3,5)             1.3935    1.3944    1.3945 estimate D2E/DX2         !
 ! R8    R(3,6)             1.0844    1.0847    1.0841 estimate D2E/DX2         !
 ! R9    R(4,5)             1.3936    1.3945    1.3945 estimate D2E/DX2         !
 ! R10   R(4,7)             1.0844    1.0847    1.0841 estimate D2E/DX2         !
 ! R11   R(5,37)            1.0823    1.0825    1.0822 estimate D2E/DX2         !
 ! R12   R(8,9)             1.0915    1.0915    1.0915 estimate D2E/DX2         !
 ! R13   R(8,10)            1.095     1.0959    1.0941 estimate D2E/DX2         !
 ! R14   R(8,14)            1.4953    1.4961    1.4999 estimate D2E/DX2         !
 ! R15   R(11,12)           1.0915    1.0915    1.0915 estimate D2E/DX2         !
 ! R16   R(11,13)           1.095     1.0959    1.0941 estimate D2E/DX2         !
 ! R17   R(11,15)           1.4958    1.4961    1.4999 estimate D2E/DX2         !
 ! R18   R(14,20)           1.4679    1.4672    1.4685 estimate D2E/DX2         !
 ! R19   R(14,24)           1.4734    1.473     1.4739 estimate D2E/DX2         !
 ! R20   R(14,39)           2.1636    2.1672    2.1569 estimate D2E/DX2         !
 ! R21   R(15,28)           1.4678    1.4672    1.4685 estimate D2E/DX2         !
 ! R22   R(15,32)           1.4734    1.473     1.4739 estimate D2E/DX2         !
 ! R23   R(15,39)           2.164     2.1672    2.1569 estimate D2E/DX2         !
 ! R24   R(16,17)           1.1394    1.1015    1.1014 estimate D2E/DX2         !
 ! R25   R(16,18)           1.0919    1.0869    1.0969 estimate D2E/DX2         !
 ! R26   R(16,19)           1.0919    1.0869    1.0969 estimate D2E/DX2         !
 ! R27   R(16,36)           2.3745    1.106     3.4526 estimate D2E/DX2         !
 ! R28   R(16,39)           2.342     2.5793    2.1815 estimate D2E/DX2         !
 ! R29   R(17,39)           2.4096    2.1957    2.7057 estimate D2E/DX2         !
 ! R30   R(20,21)           1.0877    1.0884    1.087  estimate D2E/DX2         !
 ! R31   R(20,22)           1.0963    1.0969    1.0956 estimate D2E/DX2         !
 ! R32   R(20,23)           1.0875    1.0876    1.0874 estimate D2E/DX2         !
 ! R33   R(24,25)           1.0961    1.0973    1.0949 estimate D2E/DX2         !
 ! R34   R(24,26)           1.0872    1.088     1.0864 estimate D2E/DX2         !
 ! R35   R(24,27)           1.0878    1.0871    1.0885 estimate D2E/DX2         !
 ! R36   R(28,29)           1.0963    1.0969    1.0956 estimate D2E/DX2         !
 ! R37   R(28,30)           1.0877    1.0884    1.087  estimate D2E/DX2         !
 ! R38   R(28,31)           1.0875    1.0876    1.0874 estimate D2E/DX2         !
 ! R39   R(32,33)           1.0872    1.088     1.0864 estimate D2E/DX2         !
 ! R40   R(32,34)           1.0961    1.0974    1.0949 estimate D2E/DX2         !
 ! R41   R(32,35)           1.0878    1.0871    1.0885 estimate D2E/DX2         !
 ! R42   R(36,39)           1.7851    2.131     1.5288 estimate D2E/DX2         !
 ! R43   R(38,39)           1.9254    1.9002    1.9428 estimate D2E/DX2         !
 ! A1    A(3,1,8)         126.5746  126.0712  127.3488 estimate D2E/DX2         !
 ! A2    A(3,1,38)        119.8229  120.0952  119.1834 estimate D2E/DX2         !
 ! A3    A(8,1,38)        113.4241  113.5995  113.3534 estimate D2E/DX2         !
 ! A4    A(4,2,11)        126.5834  126.071   127.3492 estimate D2E/DX2         !
 ! A5    A(4,2,38)        119.8104  120.0955  119.183  estimate D2E/DX2         !
 ! A6    A(11,2,38)       113.4354  113.5993  113.3534 estimate D2E/DX2         !
 ! A7    A(1,3,5)         119.5147  119.5976  119.3979 estimate D2E/DX2         !
 ! A8    A(1,3,6)         120.8051  120.7523  120.8741 estimate D2E/DX2         !
 ! A9    A(5,3,6)         119.6785  119.6481  119.7272 estimate D2E/DX2         !
 ! A10   A(2,4,5)         119.5296  119.5975  119.3985 estimate D2E/DX2         !
 ! A11   A(2,4,7)         120.7976  120.7529  120.8734 estimate D2E/DX2         !
 ! A12   A(5,4,7)         119.6715  119.6476  119.7272 estimate D2E/DX2         !
 ! A13   A(3,5,4)         120.7166  120.5669  121.0298 estimate D2E/DX2         !
 ! A14   A(3,5,37)        119.6392  119.7129  119.4839 estimate D2E/DX2         !
 ! A15   A(4,5,37)        119.639   119.7126  119.4841 estimate D2E/DX2         !
 ! A16   A(1,8,9)         108.7212  108.5208  108.5505 estimate D2E/DX2         !
 ! A17   A(1,8,10)        113.6791  113.6718  113.6103 estimate D2E/DX2         !
 ! A18   A(1,8,14)        110.2577  110.6185  110.6239 estimate D2E/DX2         !
 ! A19   A(9,8,10)        107.2338  107.1481  107.4236 estimate D2E/DX2         !
 ! A20   A(9,8,14)        107.0066  106.7169  106.6782 estimate D2E/DX2         !
 ! A21   A(10,8,14)       109.6795  109.8608  109.6639 estimate D2E/DX2         !
 ! A22   A(2,11,12)       108.7456  108.5208  108.5505 estimate D2E/DX2         !
 ! A23   A(2,11,13)       113.6761  113.6722  113.6103 estimate D2E/DX2         !
 ! A24   A(2,11,15)       110.2227  110.6188  110.6239 estimate D2E/DX2         !
 ! A25   A(12,11,13)      107.2286  107.1476  107.4236 estimate D2E/DX2         !
 ! A26   A(12,11,15)      107.0191  106.7169  106.6782 estimate D2E/DX2         !
 ! A27   A(13,11,15)      109.6882  109.8606  109.6639 estimate D2E/DX2         !
 ! A28   A(8,14,20)       108.2163  109.5314  109.6836 estimate D2E/DX2         !
 ! A29   A(8,14,24)       111.7866  108.627   108.5754 estimate D2E/DX2         !
 ! A30   A(8,14,39)       107.6526  107.3599  107.399  estimate D2E/DX2         !
 ! A31   A(20,14,24)      107.1616  108.7265  108.989  estimate D2E/DX2         !
 ! A32   A(20,14,39)      115.4054  115.6577  115.2593 estimate D2E/DX2         !
 ! A33   A(24,14,39)      106.6934  106.7257  106.7266 estimate D2E/DX2         !
 ! A34   A(11,15,28)      108.1574  109.5319  109.6836 estimate D2E/DX2         !
 ! A35   A(11,15,32)      111.8165  108.6274  108.5754 estimate D2E/DX2         !
 ! A36   A(11,15,39)      107.6744  107.3597  107.399  estimate D2E/DX2         !
 ! A37   A(28,15,32)      107.1861  108.7265  108.989  estimate D2E/DX2         !
 ! A38   A(28,15,39)      115.3871  115.6576  115.2593 estimate D2E/DX2         !
 ! A39   A(32,15,39)      106.6974  106.7251  106.7266 estimate D2E/DX2         !
 ! A40   A(17,16,18)      103.8076  108.7131  105.8856 estimate D2E/DX2         !
 ! A41   A(17,16,19)      105.9328  108.7137  105.8856 estimate D2E/DX2         !
 ! A42   A(17,16,36)      123.9002  111.8268  124.1085 estimate D2E/DX2         !
 ! A43   A(17,16,39)       79.4516   57.5967  106.3028 estimate D2E/DX2         !
 ! A44   A(18,16,19)      110.7899  110.5629  107.2416 estimate D2E/DX2         !
 ! A45   A(18,16,36)      105.7518  108.5151  106.3906 estimate D2E/DX2         !
 ! A46   A(18,16,39)      123.0313  124.6992  115.3533 estimate D2E/DX2         !
 ! A47   A(19,16,36)      106.4314  108.5157  106.3906 estimate D2E/DX2         !
 ! A48   A(19,16,39)      123.0243  124.6951  115.3533 estimate D2E/DX2         !
 ! A49   A(16,17,39)       72.8468   97.3442   50.7    estimate D2E/DX2         !
 ! A50   A(14,20,21)      109.145   109.2641  109.0258 estimate D2E/DX2         !
 ! A51   A(14,20,22)      111.0487  111.229   110.8682 estimate D2E/DX2         !
 ! A52   A(14,20,23)      109.4556  109.4952  109.4157 estimate D2E/DX2         !
 ! A53   A(21,20,22)      108.9343  108.678   109.1905 estimate D2E/DX2         !
 ! A54   A(21,20,23)      108.891   108.8263  108.9556 estimate D2E/DX2         !
 ! A55   A(22,20,23)      109.332   109.3079  109.3558 estimate D2E/DX2         !
 ! A56   A(14,24,25)      110.4255  110.4804  110.3705 estimate D2E/DX2         !
 ! A57   A(14,24,26)      109.6563  109.8197  109.4928 estimate D2E/DX2         !
 ! A58   A(14,24,27)      109.4959  109.551   109.4406 estimate D2E/DX2         !
 ! A59   A(25,24,26)      109.2069  108.9732  109.4406 estimate D2E/DX2         !
 ! A60   A(25,24,27)      109.0782  109.1784  108.9777 estimate D2E/DX2         !
 ! A61   A(26,24,27)      108.953   108.8088  109.0972 estimate D2E/DX2         !
 ! A62   A(15,28,29)      111.0488  111.2293  110.8682 estimate D2E/DX2         !
 ! A63   A(15,28,30)      109.145   109.264   109.0258 estimate D2E/DX2         !
 ! A64   A(15,28,31)      109.4555  109.495   109.4157 estimate D2E/DX2         !
 ! A65   A(29,28,30)      108.9345  108.6783  109.1905 estimate D2E/DX2         !
 ! A66   A(29,28,31)      109.332   109.3078  109.3558 estimate D2E/DX2         !
 ! A67   A(30,28,31)      108.8909  108.8261  108.9556 estimate D2E/DX2         !
 ! A68   A(15,32,33)      109.6566  109.8202  109.4928 estimate D2E/DX2         !
 ! A69   A(15,32,34)      110.4252  110.4797  110.3705 estimate D2E/DX2         !
 ! A70   A(15,32,35)      109.496   109.5511  109.4406 estimate D2E/DX2         !
 ! A71   A(33,32,34)      109.2071  108.9736  109.4406 estimate D2E/DX2         !
 ! A72   A(33,32,35)      108.9534  108.8094  109.0972 estimate D2E/DX2         !
 ! A73   A(34,32,35)      109.0778  109.1775  108.9777 estimate D2E/DX2         !
 ! A74   A(16,36,39)       66.7967  100.8658   25.8712 estimate D2E/DX2         !
 ! A75   A(1,38,2)        120.4856  119.9121  121.708  estimate D2E/DX2         !
 ! A76   A(1,38,39)       119.5719  120.0008  118.7525 estimate D2E/DX2         !
 ! A77   A(2,38,39)       119.6393  120.0003  118.7525 estimate D2E/DX2         !
 ! A78   A(14,39,15)      159.3882  160.9452  160.7445 estimate D2E/DX2         !
 ! A79   A(14,39,16)       98.2162   98.2716   95.8293 estimate D2E/DX2         !
 ! A80   A(14,39,17)       93.9314   95.4878   92.3831 estimate D2E/DX2         !
 ! A81   A(14,39,36)       97.9672   99.4945   91.0489 estimate D2E/DX2         !
 ! A82   A(14,39,38)       81.0971   81.5798   81.5607 estimate D2E/DX2         !
 ! A83   A(15,39,16)       98.1414   98.2702   95.8293 estimate D2E/DX2         !
 ! A84   A(15,39,17)       94.7328   95.4883   92.3831 estimate D2E/DX2         !
 ! A85   A(15,39,36)       99.5999   99.4945   91.0489 estimate D2E/DX2         !
 ! A86   A(15,39,38)       81.0216   81.5802   81.5607 estimate D2E/DX2         !
 ! A87   A(16,39,36)       68.7302   24.9041  136.3231 estimate D2E/DX2         !
 ! A88   A(16,39,38)      172.3665  178.1454  156.0489 estimate D2E/DX2         !
 ! A89   A(17,39,36)       96.4189   49.9631  159.3203 estimate D2E/DX2         !
 ! A90   A(17,39,38)      144.6671  153.0864  133.0517 estimate D2E/DX2         !
 ! A91   A(36,39,38)      118.9032  156.9505   67.628  estimate D2E/DX2         !
 ! D1    D(8,1,3,5)      -173.5838 -172.9373 -174.5775 estimate D2E/DX2         !
 ! D2    D(8,1,3,6)         5.947     6.5511    5.0934 estimate D2E/DX2         !
 ! D3    D(38,1,3,5)        1.2271    1.1344    1.2588 estimate D2E/DX2         !
 ! D4    D(38,1,3,6)     -179.2421 -179.3772 -179.0702 estimate D2E/DX2         !
 ! D5    D(3,1,8,9)        87.4115   84.4066   90.2809 estimate D2E/DX2         !
 ! D6    D(3,1,8,10)      -31.9421  -34.6958  -29.1504 estimate D2E/DX2         !
 ! D7    D(3,1,8,14)     -155.5712 -158.8397 -152.9917 estimate D2E/DX2         !
 ! D8    D(38,1,8,9)      -87.683   -89.9972  -85.76   estimate D2E/DX2         !
 ! D9    D(38,1,8,10)     152.9634  150.9003  154.8088 estimate D2E/DX2         !
 ! D10   D(38,1,8,14)      29.3343   26.7564   30.9675 estimate D2E/DX2         !
 ! D11   D(3,1,38,2)       -3.7792   -3.897    -3.5347 estimate D2E/DX2         !
 ! D12   D(3,1,38,39)     169.8748  172.7147  166.1754 estimate D2E/DX2         !
 ! D13   D(8,1,38,2)      171.6807  170.876   172.8609 estimate D2E/DX2         !
 ! D14   D(8,1,38,39)     -14.6653  -12.5124  -17.4291 estimate D2E/DX2         !
 ! D15   D(11,2,4,5)      173.7213  172.9378  174.5775 estimate D2E/DX2         !
 ! D16   D(11,2,4,7)       -5.8577   -6.5521   -5.0935 estimate D2E/DX2         !
 ! D17   D(38,2,4,5)       -1.2017   -1.1335   -1.2588 estimate D2E/DX2         !
 ! D18   D(38,2,4,7)      179.2193  179.3766  179.0702 estimate D2E/DX2         !
 ! D19   D(4,2,11,12)     -87.4653  -84.4061  -90.2808 estimate D2E/DX2         !
 ! D20   D(4,2,11,13)      31.8967   34.6958   29.1504 estimate D2E/DX2         !
 ! D21   D(4,2,11,15)     155.5079  158.84    152.9917 estimate D2E/DX2         !
 ! D22   D(38,2,11,12)     87.734    89.9974   85.76   estimate D2E/DX2         !
 ! D23   D(38,2,11,13)   -152.9039 -150.9007 -154.8088 estimate D2E/DX2         !
 ! D24   D(38,2,11,15)    -29.2927  -26.7565  -30.9675 estimate D2E/DX2         !
 ! D25   D(4,2,38,1)        3.7659    3.8966    3.5347 estimate D2E/DX2         !
 ! D26   D(4,2,38,39)    -169.8839 -172.7151 -166.1754 estimate D2E/DX2         !
 ! D27   D(11,2,38,1)    -171.7921 -170.8761 -172.8609 estimate D2E/DX2         !
 ! D28   D(11,2,38,39)     14.5581   12.5123   17.4291 estimate D2E/DX2         !
 ! D29   D(1,3,5,4)         1.322     1.6459    0.9384 estimate D2E/DX2         !
 ! D30   D(1,3,5,37)     -179.5067 -179.3647 -179.6108 estimate D2E/DX2         !
 ! D31   D(6,3,5,4)      -178.2142 -177.8483 -178.7364 estimate D2E/DX2         !
 ! D32   D(6,3,5,37)        0.9571    1.1411    0.7144 estimate D2E/DX2         !
 ! D33   D(2,4,5,3)        -1.335    -1.6463   -0.9384 estimate D2E/DX2         !
 ! D34   D(2,4,5,37)      179.4937  179.3643  179.6108 estimate D2E/DX2         !
 ! D35   D(7,4,5,3)       178.2488  177.8493  178.7364 estimate D2E/DX2         !
 ! D36   D(7,4,5,37)       -0.9225   -1.1401   -0.7144 estimate D2E/DX2         !
 ! D37   D(1,8,14,20)    -154.3381 -153.3171 -154.7281 estimate D2E/DX2         !
 ! D38   D(1,8,14,24)      87.8823   88.0594   86.2731 estimate D2E/DX2         !
 ! D39   D(1,8,14,39)     -28.9787  -27.0002  -28.7819 estimate D2E/DX2         !
 ! D40   D(9,8,14,20)     -36.2612  -35.4538  -36.8491 estimate D2E/DX2         !
 ! D41   D(9,8,14,24)    -154.0408 -154.0773 -155.8478 estimate D2E/DX2         !
 ! D42   D(9,8,14,39)      89.0982   90.8631   89.0972 estimate D2E/DX2         !
 ! D43   D(10,8,14,20)     79.7424   80.383    79.191  estimate D2E/DX2         !
 ! D44   D(10,8,14,24)    -38.0372  -38.2404  -39.8077 estimate D2E/DX2         !
 ! D45   D(10,8,14,39)   -154.8982 -153.3    -154.8628 estimate D2E/DX2         !
 ! D46   D(2,11,15,28)    154.3445  153.3173  154.7281 estimate D2E/DX2         !
 ! D47   D(2,11,15,32)    -87.8653  -88.0588  -86.2731 estimate D2E/DX2         !
 ! D48   D(2,11,15,39)     29.0306   27.0003   28.7819 estimate D2E/DX2         !
 ! D49   D(12,11,15,28)    36.2503   35.4538   36.8491 estimate D2E/DX2         !
 ! D50   D(12,11,15,32)   154.0405  154.0778  155.8478 estimate D2E/DX2         !
 ! D51   D(12,11,15,39)   -89.0636  -90.8632  -89.0972 estimate D2E/DX2         !
 ! D52   D(13,11,15,28)   -79.7585  -80.3823  -79.191  estimate D2E/DX2         !
 ! D53   D(13,11,15,32)    38.0317   38.2417   39.8077 estimate D2E/DX2         !
 ! D54   D(13,11,15,39)   154.9276  153.3007  154.8628 estimate D2E/DX2         !
 ! D55   D(8,14,20,21)   -178.3208 -177.1457 -177.6371 estimate D2E/DX2         !
 ! D56   D(8,14,20,22)    -58.2122  -57.1652  -57.4004 estimate D2E/DX2         !
 ! D57   D(8,14,20,23)     62.5938   63.7528   63.2938 estimate D2E/DX2         !
 ! D58   D(24,14,20,21)   -57.6189  -58.5839  -58.8934 estimate D2E/DX2         !
 ! D59   D(24,14,20,22)    62.4897   61.3965   61.3432 estimate D2E/DX2         !
 ! D60   D(24,14,20,23)  -176.7042 -177.6855 -177.9626 estimate D2E/DX2         !
 ! D61   D(39,14,20,21)    61.0335   61.4132   61.0345 estimate D2E/DX2         !
 ! D62   D(39,14,20,22)  -178.8579 -178.6063 -178.7289 estimate D2E/DX2         !
 ! D63   D(39,14,20,23)   -58.0519  -57.6883  -58.0347 estimate D2E/DX2         !
 ! D64   D(8,14,24,25)     61.6938   63.581    61.6931 estimate D2E/DX2         !
 ! D65   D(8,14,24,26)   -177.9222 -176.1853 -177.7726 estimate D2E/DX2         !
 ! D66   D(8,14,24,27)    -58.4285  -56.735   -58.2357 estimate D2E/DX2         !
 ! D67   D(20,14,24,25)   -56.7159  -55.5487  -57.7415 estimate D2E/DX2         !
 ! D68   D(20,14,24,26)    63.6682   64.685    62.7928 estimate D2E/DX2         !
 ! D69   D(20,14,24,27)  -176.8382 -175.8646 -177.6702 estimate D2E/DX2         !
 ! D70   D(39,14,24,25)   179.1329  179.0525  177.1853 estimate D2E/DX2         !
 ! D71   D(39,14,24,26)   -60.4831  -60.7138  -62.2804 estimate D2E/DX2         !
 ! D72   D(39,14,24,27)    59.0106   58.7366   57.2565 estimate D2E/DX2         !
 ! D73   D(8,14,39,15)     47.649    44.9975   45.208  estimate D2E/DX2         !
 ! D74   D(8,14,39,16)   -170.1321 -164.9906  172.2098 estimate D2E/DX2         !
 ! D75   D(8,14,39,17)    162.3355  169.9193  149.4095 estimate D2E/DX2         !
 ! D76   D(8,14,39,36)   -100.6125 -139.8091  -50.9879 estimate D2E/DX2         !
 ! D77   D(8,14,39,38)     17.5562   16.8778   16.209  estimate D2E/DX2         !
 ! D78   D(20,14,39,15)   168.6007  167.5968  167.7655 estimate D2E/DX2         !
 ! D79   D(20,14,39,16)   -49.1804  -42.3912  -65.2326 estimate D2E/DX2         !
 ! D80   D(20,14,39,17)   -76.7128  -67.4813  -88.033  estimate D2E/DX2         !
 ! D81   D(20,14,39,36)    20.3392  -17.2098   71.5696 estimate D2E/DX2         !
 ! D82   D(20,14,39,38)   138.5079  139.4772  138.7665 estimate D2E/DX2         !
 ! D83   D(24,14,39,15)   -72.4875  -71.3218  -71.0713 estimate D2E/DX2         !
 ! D84   D(24,14,39,16)    69.7314   78.6901   55.9305 estimate D2E/DX2         !
 ! D85   D(24,14,39,17)    42.199    53.6      33.1302 estimate D2E/DX2         !
 ! D86   D(24,14,39,36)   139.2511  103.8716 -167.2672 estimate D2E/DX2         !
 ! D87   D(24,14,39,38)  -102.5803  -99.4415 -100.0704 estimate D2E/DX2         !
 ! D88   D(11,15,28,29)    58.2272   57.1655   57.4004 estimate D2E/DX2         !
 ! D89   D(11,15,28,30)   178.336   177.1465  177.6371 estimate D2E/DX2         !
 ! D90   D(11,15,28,31)   -62.5788  -63.7524  -63.2938 estimate D2E/DX2         !
 ! D91   D(32,15,28,29)   -62.4915  -61.397   -61.3432 estimate D2E/DX2         !
 ! D92   D(32,15,28,30)    57.6173   58.584    58.8934 estimate D2E/DX2         !
 ! D93   D(32,15,28,31)   176.7025  177.6851  177.9626 estimate D2E/DX2         !
 ! D94   D(39,15,28,29)   178.8449  178.6067  178.7289 estimate D2E/DX2         !
 ! D95   D(39,15,28,30)   -61.0463  -61.4124  -61.0345 estimate D2E/DX2         !
 ! D96   D(39,15,28,31)    58.0388   57.6888   58.0347 estimate D2E/DX2         !
 ! D97   D(11,15,32,33)   177.9505  176.1853  177.7726 estimate D2E/DX2         !
 ! D98   D(11,15,32,34)   -61.6653  -63.5808  -61.6931 estimate D2E/DX2         !
 ! D99   D(11,15,32,35)    58.4563   56.7337   58.2357 estimate D2E/DX2         !
 ! D100  D(28,15,32,33)   -63.6793  -64.6843  -62.7928 estimate D2E/DX2         !
 ! D101  D(28,15,32,34)    56.7049   55.5497   57.7415 estimate D2E/DX2         !
 ! D102  D(28,15,32,35)   176.8264  175.8642  177.6702 estimate D2E/DX2         !
 ! D103  D(39,15,32,33)    60.4664   60.714    62.2804 estimate D2E/DX2         !
 ! D104  D(39,15,32,34)  -179.1494 -179.052  -177.1853 estimate D2E/DX2         !
 ! D105  D(39,15,32,35)   -59.0279  -58.7375  -57.2565 estimate D2E/DX2         !
 ! D106  D(11,15,39,14)   -47.7382  -44.9975  -45.208  estimate D2E/DX2         !
 ! D107  D(11,15,39,16)   170.0345  164.9905 -172.2098 estimate D2E/DX2         !
 ! D108  D(11,15,39,17)  -162.2922 -169.9193 -149.4095 estimate D2E/DX2         !
 ! D109  D(11,15,39,36)   100.3667  139.8091   50.9879 estimate D2E/DX2         !
 ! D110  D(11,15,39,38)   -17.6386  -16.8778  -16.209  estimate D2E/DX2         !
 ! D111  D(28,15,39,14)  -168.6183 -167.5973 -167.7655 estimate D2E/DX2         !
 ! D112  D(28,15,39,16)    49.1544   42.3907   65.2326 estimate D2E/DX2         !
 ! D113  D(28,15,39,17)    76.8277   67.4809   88.033  estimate D2E/DX2         !
 ! D114  D(28,15,39,36)   -20.5134   17.2093  -71.5696 estimate D2E/DX2         !
 ! D115  D(28,15,39,38)  -138.5187 -139.4776 -138.7665 estimate D2E/DX2         !
 ! D116  D(32,15,39,14)    72.4472   71.3219   71.0713 estimate D2E/DX2         !
 ! D117  D(32,15,39,16)   -69.78    -78.6901  -55.9305 estimate D2E/DX2         !
 ! D118  D(32,15,39,17)   -42.1068  -53.5999  -33.1302 estimate D2E/DX2         !
 ! D119  D(32,15,39,36)  -139.4479 -103.8715  167.2672 estimate D2E/DX2         !
 ! D120  D(32,15,39,38)   102.5469   99.4415  100.0704 estimate D2E/DX2         !
 ! D121  D(18,16,17,39)  -121.6819 -119.7943 -123.1673 estimate D2E/DX2         !
 ! D122  D(19,16,17,39)   121.5573  119.7891  123.1673 estimate D2E/DX2         !
 ! D123  D(36,16,17,39)    -1.5528   -0.0032    0.0    estimate D2E/DX2         !
 ! D124  D(17,16,36,39)     2.1793    0.0033    0.0    estimate D2E/DX2         !
 ! D125  D(18,16,36,39)   121.4082  119.9106  122.9427 estimate D2E/DX2         !
 ! D126  D(19,16,36,39)  -120.708  -119.9051 -122.9427 estimate D2E/DX2         !
 ! D127  D(17,16,39,14)   -82.7623  -85.2524  -82.3243 estimate D2E/DX2         !
 ! D128  D(17,16,39,15)    84.6539   85.2567   82.3243 estimate D2E/DX2         !
 ! D129  D(17,16,39,36)  -178.1602 -179.9964  180.0    estimate D2E/DX2         !
 ! D130  D(17,16,39,38)     1.5114    0.0173    0.0    estimate D2E/DX2         !
 ! D131  D(18,16,39,14)    16.938     6.0496   34.6868 estimate D2E/DX2         !
 ! D132  D(18,16,39,15)  -175.6459  176.5587 -160.6645 estimate D2E/DX2         !
 ! D133  D(18,16,39,36)   -78.46    -88.6944  -62.9888 estimate D2E/DX2         !
 ! D134  D(18,16,39,38)   101.2116   91.3193  117.0112 estimate D2E/DX2         !
 ! D135  D(19,16,39,14)   174.9985 -176.5577  160.6645 estimate D2E/DX2         !
 ! D136  D(19,16,39,15)   -17.5854   -6.0487  -34.6868 estimate D2E/DX2         !
 ! D137  D(19,16,39,36)    79.6006   88.6983   62.9888 estimate D2E/DX2         !
 ! D138  D(19,16,39,38)  -100.7279  -91.2881 -117.0112 estimate D2E/DX2         !
 ! D139  D(16,17,39,14)   100.2097   97.8022   99.3308 estimate D2E/DX2         !
 ! D140  D(16,17,39,15)   -98.511   -97.7977  -99.3308 estimate D2E/DX2         !
 ! D141  D(16,17,39,36)     1.7253    0.002     0.0    estimate D2E/DX2         !
 ! D142  D(16,17,39,38)  -179.6529 -179.9988  180.0    estimate D2E/DX2         !
 ! D143  D(16,36,39,14)   -95.7603  -89.207   -99.571  estimate D2E/DX2         !
 ! D144  D(16,36,39,15)    95.065    89.2037   99.571  estimate D2E/DX2         !
 ! D145  D(16,36,39,17)    -0.8605   -0.002     0.0    estimate D2E/DX2         !
 ! D146  D(16,36,39,38)  -179.9502  179.9989  180.0    estimate D2E/DX2         !
 ! D147  D(1,38,39,14)     -1.9432   -2.7786    0.3404 estimate D2E/DX2         !
 ! D148  D(1,38,39,15)   -171.6491 -173.83   -170.3583 estimate D2E/DX2         !
 ! D149  D(1,38,39,16)    -87.3628  -88.3194  -85.009  estimate D2E/DX2         !
 ! D150  D(1,38,39,17)    -86.148   -88.3033  -85.009  estimate D2E/DX2         !
 ! D151  D(1,38,39,36)     92.2875   91.6953   94.991  estimate D2E/DX2         !
 ! D152  D(2,38,39,14)    171.7651  173.83    170.3583 estimate D2E/DX2         !
 ! D153  D(2,38,39,15)      2.0592    2.7786   -0.3404 estimate D2E/DX2         !
 ! D154  D(2,38,39,16)     86.3455   88.2892   85.009  estimate D2E/DX2         !
 ! D155  D(2,38,39,17)     87.5603   88.3054   85.009  estimate D2E/DX2         !
 ! D156  D(2,38,39,36)    -94.0042  -91.6961  -94.991  estimate D2E/DX2         !
 --------------------------------------------------------------------------------
 Trust Radius=3.00D-01 FncErr=1.00D-07 GrdErr=1.00D-06 EigMax=2.50D+02 EigMin=1.00D-04
 Number of steps in this run=    234 maximum allowed number of steps=    234.
 Search for a saddle point of order  1.
 GradGradGradGradGradGradGradGradGradGradGradGradGradGradGradGradGradGrad

                          Input orientation:                          
 ---------------------------------------------------------------------
 Center     Atomic      Atomic             Coordinates (Angstroms)
 Number     Number       Type             X           Y           Z
 ---------------------------------------------------------------------
      1          6           0        1.741282    1.207277   -0.163713
      2          6           0        1.741737   -1.209584   -0.165756
      3          6           0        3.119414    1.210378    0.000182
      4          6           0        3.119988   -1.211953   -0.002126
      5          6           0        3.802311   -0.000687    0.094141
      6          1           0        3.670855    2.142866    0.048292
      7          1           0        3.671943   -2.144206    0.044790
      8          6           0        0.867039    2.402821   -0.416062
      9          1           0        0.822077    2.583182   -1.491621
     10          1           0        1.233619    3.322331    0.052028
     11          6           0        0.868446   -2.404681   -0.417283
     12          1           0        0.822255   -2.585252   -1.492760
     13          1           0        1.235897   -3.324027    0.050443
     14          7           0       -0.530245    2.127994    0.040104
     15          7           0       -0.528636   -2.129777    0.040889
     16          6           0       -3.181090   -0.003144    0.253080
     17          1           0       -2.787816    0.015802    1.322266
     18          1           0       -3.797123    0.895913    0.186033
     19          1           0       -3.796903   -0.901549    0.176090
     20          6           0       -1.441469    2.979637   -0.733825
     21          1           0       -2.460935    2.813379   -0.393026
     22          1           0       -1.192496    4.039711   -0.607209
     23          1           0       -1.375205    2.717602   -1.787162
     24          6           0       -0.718538    2.468612    1.461206
     25          1           0       -0.543471    3.538271    1.624650
     26          1           0       -1.732713    2.221633    1.765197
     27          1           0       -0.018949    1.897135    2.067292
     28          6           0       -1.439719   -2.981982   -0.732582
     29          1           0       -1.190088   -4.041904   -0.606017
     30          1           0       -2.459131   -2.816282   -0.391339
     31          1           0       -1.374072   -2.719971   -1.785963
     32          6           0       -0.715699   -2.469961    1.462256
     33          1           0       -1.729734   -2.223276    1.766944
     34          1           0       -0.540077   -3.539495    1.625942
     35          1           0       -0.015861   -1.897997    2.067600
     36          1           0       -1.789384    0.024106   -1.670621
     37          1           0        4.876083   -0.000552    0.230019
     38          6           0        1.051924   -0.001431   -0.206957
     39         45           0       -0.872246   -0.000840   -0.139334
 ---------------------------------------------------------------------
                    Distance matrix (angstroms):
                    1          2          3          4          5
     1  C    0.000000
     2  C    2.416862   0.000000
     3  C    1.387847   2.789578   0.000000
     4  C    2.789196   1.387932   2.422332   0.000000
     5  C    2.402811   2.403111   1.393504   1.393556   0.000000
     6  H    2.154883   3.873788   1.084405   3.400118   2.148069
     7  H    3.873417   2.154888   3.400075   1.084413   2.148047
     8  C    1.502434   3.725215   2.582320   4.279453   3.827921
     9  H    2.121649   4.121743   3.063956   4.679961   4.251213
    10  H    2.185800   4.565509   2.831830   4.911319   4.200286
    11  C    3.724564   1.501386   4.278994   2.581550   3.827311
    12  H    4.122408   2.121049   4.681092   3.063906   4.251937
    13  H    4.564426   2.184830   4.910294   2.830799   4.199164
    14  N    2.459491   4.042735   3.763459   4.947851   4.827550
    15  N    4.041079   2.458466   4.946369   3.762541   4.826279
    16  C    5.086117   5.085780   6.421289   6.421054   6.985210
    17  H    4.913297   4.922666   6.170113   6.177666   6.703607
    18  H    5.558165   5.935979   6.926176   7.233597   7.652694
    19  H    5.935833   5.557723   7.233715   6.926146   7.652864
    20  C    3.687302   5.291982   4.946787   6.237924   6.088110
    21  H    4.504529   5.822228   5.819323   6.892228   6.883643
    22  H    4.102003   6.029901   5.192939   6.822288   6.462569
    23  H    3.824809   5.269448   5.066352   6.231735   6.142887
    24  C    3.206563   4.714774   4.295070   5.515631   5.329576
    25  H    3.721811   5.565057   4.634082   6.215462   5.809690
    26  H    4.101006   5.251060   5.261279   6.201746   6.194160
    27  H    2.924330   4.211678   3.820197   4.878714   4.700753
    28  C    5.290772   3.685695   6.236868   4.945452   6.086910
    29  H    6.028471   4.100179   6.820979   5.191345   6.461091
    30  H    5.821023   4.503295   6.891114   5.818241   6.882508
    31  H    5.268814   3.822905   6.231322   5.064857   6.142006
    32  C    4.711964   3.205927   5.512771   4.294123   5.327426
    33  H    5.248246   4.100490   6.198844   5.260436   6.192067
    34  H    5.562311   3.720933   6.212589   4.632940   5.807401
    35  H    4.208210   2.924200   4.875055   3.819420   4.698166
    36  H    4.016998   4.031802   5.319317   5.330446   5.863621
    37  H    3.382433   3.382679   2.145941   2.145985   1.082335
    38  C    1.392141   1.391824   2.405390   2.405038   2.766819
    39  Rh   2.879353   2.880047   4.173712   4.174153   4.680384
                    6          7          8          9         10
     6  H    0.000000
     7  H    4.287074   0.000000
     8  C    2.853872   5.362400   0.000000
     9  H    3.268141   5.729790   1.091503   0.000000
    10  H    2.707632   5.985692   1.094983   1.760273   0.000000
    11  C    5.361944   2.853236   4.807503   5.102463   5.757801
    12  H    5.731009   3.267921   5.103152   5.168434   6.120060
    13  H    5.984642   2.706719   5.757645   6.119176   6.646359
    14  N    4.201134   5.992503   1.495332   2.093359   2.130211
    15  N    5.990931   4.200606   4.764573   5.136632   5.729848
    16  C    7.183066   7.182729   4.756444   5.075274   5.530720
    17  H    6.918225   6.930084   4.698682   5.247927   5.358973
    18  H    7.572618   8.065309   4.938390   5.195999   5.586934
    19  H    8.065494   7.572654   5.746465   6.021593   6.569834
    20  C    5.239060   7.280590   2.400604   2.419726   2.809111
    21  H    6.184108   7.898197   3.353281   3.469592   3.755906
    22  H    5.261167   7.894852   2.637731   2.638591   2.614433
    23  H    5.400179   7.243406   2.647009   2.221140   3.248735
    24  C    4.622684   6.523852   2.458153   3.332538   2.554513
    25  H    4.710902   7.249567   2.728239   3.533845   2.382817
    26  H    5.670318   7.157559   3.398445   4.155061   3.598001
    27  H    4.213241   5.834864   2.684724   3.720732   2.767923
    28  C    7.279546   5.237868   5.866636   6.054991   6.892512
    29  H    7.893558   5.259672   6.767742   6.980320   7.780703
    30  H    7.897034   6.183200   6.188946   6.413357   7.177433
    31  H    7.243132   5.398651   5.756927   5.747446   6.832838
    32  C    6.520684   4.622415   5.456843   6.051809   6.272099
    33  H    7.154252   5.670112   5.736682   6.342872   6.517374
    34  H    7.246388   4.710412   6.439012   7.004415   7.260018
    35  H    5.830785   4.213345   5.044316   5.783697   5.733721
    36  H    6.103934   6.121299   3.780051   3.660689   4.794201
    37  H    2.465734   2.465667   4.718693   5.106338   4.933637
    38  C    3.394401   3.394018   2.420400   2.895412   3.338784
    39  Rh   5.026972   5.027681   2.979812   3.372919   3.938878
                   11         12         13         14         15
    11  C    0.000000
    12  H    1.091508   0.000000
    13  H    1.094981   1.760217   0.000000
    14  N    4.765572   5.137471   5.730959   0.000000
    15  N    1.495772   2.093906   2.130704   4.257771   0.000000
    16  C    4.755577   5.073658   5.529837   3.407945   3.406333
    17  H    4.717311   5.265213   5.381659   3.346928   3.368877
    18  H    5.746777   6.022915   6.569442   3.494540   4.456329
    19  H    4.937305   5.191968   5.586883   4.457317   3.494050
    20  C    5.867434   6.055445   6.893442   1.467853   5.247814
    21  H    6.189791   6.413576   7.178508   2.094020   5.325115
    22  H    6.768585   6.980942   7.781660   2.124207   6.238856
    23  H    5.757458   5.747675   6.833442   2.097736   5.249337
    24  C    5.458592   6.053222   6.274132   1.473434   4.816487
    25  H    6.440628   7.005782   7.261915   2.121284   5.885176
    26  H    5.738643   6.344153   6.519767   2.104909   4.832991
    27  H    5.046406   5.785619   5.736101   2.103381   4.536752
    28  C    2.400066   2.419047   2.808744   5.247479   1.467849
    29  H    2.636983   2.637739   2.613750   6.238630   2.124202
    30  H    3.353037   3.469005   3.755823   5.324716   2.094020
    31  H    2.646050   2.219903   3.247955   5.248745   2.097732
    32  C    2.458952   3.333273   2.555655   4.816440   1.473432
    33  H    3.399161   4.155639   3.599026   4.832629   2.104909
    34  H    2.728829   3.534519   2.383842   5.885185   2.121280
    35  H    2.685772   3.721682   2.769365   4.536952   2.103383
    36  H    3.812338   3.696084   4.829532   2.989709   3.026213
    37  H    4.718050   5.107070   4.932412   5.813360   5.812088
    38  C    2.419404   2.895197   3.337626   2.664347   2.662604
    39  Rh   2.980892   3.373763   3.940032   2.163584   2.164005
                   16         17         18         19         20
    16  C    0.000000
    17  H    1.139378   0.000000
    18  H    1.091922   1.756223   0.000000
    19  H    1.091918   1.781434   1.797490   0.000000
    20  C    3.591273   3.850257   3.276759   4.630294   0.000000
    21  H    2.978066   3.297805   2.407776   3.988659   1.087702
    22  H    4.586859   4.739174   4.158940   5.640261   1.096256
    23  H    3.850489   4.354738   3.616315   4.776739   1.087461
    24  C    3.692331   3.212086   3.684716   4.741924   2.366841
    25  H    4.623836   4.187639   4.431470   5.691674   2.584739
    26  H    3.055147   2.484979   2.917718   4.066990   2.627642
    27  H    4.111151   3.429447   4.337762   5.067763   3.322895
    28  C    3.588507   3.876400   4.630257   3.272645   5.961619
    29  H    4.584073   4.768227   5.639682   4.155600   7.027202
    30  H    2.974936   3.326436   3.987978   2.403707   5.894540
    31  H    3.847618   4.375410   4.778552   3.609213   5.796297
    32  C    3.691266   3.239179   4.738462   3.688896   5.920104
    33  H    3.054048   2.516098   4.062354   2.924204   5.779900
    34  H    4.622281   4.217189   5.688104   4.434833   6.991429
    35  H    4.111159   3.449911   5.064007   4.343616   5.802728
    36  H    2.374493   3.155046   2.870232   2.880506   3.119903
    37  H    8.057207   7.741358   8.719523   8.719827   7.051382
    38  C    4.257940   4.133090   4.947012   4.946521   3.921908
    39  Rh   2.341955   2.409556   3.076513   3.076424   3.092035
                   21         22         23         24         25
    21  H    0.000000
    22  H    1.777274   0.000000
    23  H    1.769632   1.781472   0.000000
    24  C    2.567681   2.640328   3.323417   0.000000
    25  H    2.876309   2.377787   3.606347   1.096145   0.000000
    26  H    2.353380   3.037359   3.604587   1.087179   1.779772
    27  H    3.585521   3.622265   4.167663   1.087819   1.778871
    28  C    5.894437   7.027162   5.796686   5.919610   6.990959
    29  H    6.975337   8.081616   6.864423   6.847086   7.927992
    30  H    5.629661   6.975357   5.809225   5.864443   6.936448
    31  H    5.808572   6.864090   5.437573   6.155910   7.175498
    32  C    5.865288   6.847324   6.156661   4.938574   6.012894
    33  H    5.528836   6.719393   6.096691   4.809346   5.884123
    34  H    6.937214   7.928239   7.176209   6.013013   7.077767
    35  H    5.850652   6.617813   6.165287   4.464162   5.479744
    36  H    3.140586   4.196690   2.727646   4.114689   4.975990
    37  H    7.882780   7.338414   7.108867   6.237979   6.621165
    38  C    4.505325   4.639876   3.972549   3.466759   4.292966
    39  Rh   3.241623   4.080137   3.218421   2.946786   3.968002
                   26         27         28         29         30
    26  H    0.000000
    27  H    1.770183   0.000000
    28  C    5.779477   5.802040   0.000000
    29  H    6.719300   6.617427   1.096252   0.000000
    30  H    5.528011   5.849415   1.087706   1.777276   0.000000
    31  H    6.095802   6.164544   1.087461   1.781468   1.769634
    32  C    4.810108   4.463525   2.367210   2.640796   2.568134
    33  H    4.444910   4.471553   2.628188   3.038021   2.354116
    34  H    5.884927   5.479353   2.585113   2.378355   2.876670
    35  H    4.473296   3.795134   3.323163   3.622620   3.585972
    36  H    4.078870   4.540339   3.168398   4.245583   3.186365
    37  H    7.139402   5.562205   7.050169   7.336887   7.881611
    38  C    4.072543   3.150164   3.920237   4.638027   4.503876
    39  Rh   3.050742   3.033089   3.092115   4.080320   3.241669
                   31         32         33         34         35
    31  H    0.000000
    32  C    3.323686   0.000000
    33  H    3.605045   1.087177   0.000000
    34  H    3.606697   1.096147   1.779774   0.000000
    35  H    4.167772   1.087822   1.770187   1.778870   0.000000
    36  H    2.777723   4.145852   4.107449   5.012718   4.562254
    37  H    7.108014   6.235737   7.137188   6.618724   5.559507
    38  C    3.971043   3.464738   4.070689   4.290907   3.148133
    39  Rh   3.218212   2.947228   3.050967   3.968452   3.033670
                   36         37         38         39
    36  H    0.000000
    37  H    6.931197   0.000000
    38  C    3.196248   3.849044   0.000000
    39  Rh   1.785107   5.760183   1.925359   0.000000
 Stoichiometry    C13H23N2Rh
 Framework group  C1[X(C13H23N2Rh)]
 Deg. of freedom   111
 Full point group                 C1      NOp   1
 Largest Abelian subgroup         C1      NOp   1
 Largest concise Abelian subgroup C1      NOp   1
                         Standard orientation:                         
 ---------------------------------------------------------------------
 Center     Atomic      Atomic             Coordinates (Angstroms)
 Number     Number       Type             X           Y           Z
 ---------------------------------------------------------------------
      1          6           0       -1.732188   -1.262791   -0.124409
      2          6           0       -1.808222    1.152873   -0.126515
      3          6           0       -3.105785   -1.308839    0.068542
      4          6           0       -3.182114    1.112289    0.066175
      5          6           0       -3.824063   -0.119639    0.176861
      6          1           0       -3.626674   -2.258069    0.128312
      7          1           0       -3.761822    2.026873    0.124705
      8          6           0       -0.826525   -2.430609   -0.395123
      9          1           0       -0.798653   -2.610218   -1.471386
     10          1           0       -1.154231   -3.360801    0.080630
     11          6           0       -0.978209    2.374500   -0.396458
     12          1           0       -0.960387    2.555684   -1.472675
     13          1           0       -1.364263    3.282238    0.078894
     14          7           0        0.570800   -2.111941    0.031435
     15          7           0        0.436138    2.143699    0.032126
     16          6           0        3.157648    0.101130    0.188338
     17          1           0        2.787805    0.070643    1.265589
     18          1           0        3.799926   -0.778285    0.108328
     19          1           0        3.743320    1.018285    0.098338
     20          6           0        1.491663   -2.935230   -0.761532
     21          1           0        2.512398   -2.736965   -0.442336
     22          1           0        1.278669   -4.002479   -0.629657
     23          1           0        1.395031   -2.676121   -1.813244
     24          6           0        0.799590   -2.445530    1.448256
     25          1           0        0.661526   -3.520024    1.615391
     26          1           0        1.811738   -2.166773    1.730761
     27          1           0        0.095426   -1.895774    2.068959
     28          6           0        1.303618    3.023423   -0.760431
     29          1           0        1.023708    4.075114   -0.628657
     30          1           0        2.334684    2.889891   -0.440780
     31          1           0        1.223981    2.758761   -1.812184
     32          6           0        0.642426    2.490542    1.449218
     33          1           0        1.669878    2.275873    1.732438
     34          1           0        0.436956    3.554179    1.616542
     35          1           0       -0.026265    1.897408    2.069218
     36          1           0        1.727194    0.029082   -1.705554
     37          1           0       -4.894201   -0.153231    0.335378
     38          6           0       -1.082009   -0.033164   -0.182233
     39         45           0        0.842238    0.026415   -0.155246
 ---------------------------------------------------------------------
 Rotational constants (GHZ):           0.5279337           0.4998351           0.2887247
 Standard basis: def2TZVPP (5D, 7F)
 There are   956 symmetry adapted cartesian basis functions of A   symmetry.
 There are   843 symmetry adapted basis functions of A   symmetry.
   843 basis functions,  1255 primitive gaussians,   956 cartesian basis functions
    66 alpha electrons       66 beta electrons
       nuclear repulsion energy      1386.3995353032 Hartrees.
 NAtoms=   39 NActive=   39 NUniq=   39 SFac= 1.00D+00 NAtFMM=   60 NAOKFM=F Big=F
 Integral buffers will be    131072 words long.
 Raffenetti 2 integral format.
 Two-electron integral symmetry is turned on.
 Nuclear repulsion after empirical dispersion term =     1386.3597042172 Hartrees.
 ------------------------------------------------------------------------------
 Polarizable Continuum Model (PCM)
 =================================
 Model                : PCM.
 Atomic radii         : UFF (Universal Force Field).
 Polarization charges : Total charges.
 Charge compensation  : None.
 Solution method      : On-the-fly selection.
 Cavity type          : Scaled VdW (van der Waals Surface) (Alpha=1.100).
 Cavity algorithm     : GePol (No added spheres)
                        Default sphere list used, NSphG=   39.
                        Lebedev-Laikov grids with approx.  5.0 points / Ang**2.
                        Smoothing algorithm: York/Karplus (Gamma=1.0000).
                        Polarization charges: spherical gaussians, with
                                              point-specific exponents (IZeta= 3).
                        Self-potential: point-specific (ISelfS= 7).
                        Self-field    : sphere-specific E.n sum rule (ISelfD= 2).
 1st derivatives      : Analytical E(r).r(x)/FMM algorithm (CHGder, D1EAlg=3).
                        Cavity 1st derivative terms included.
 Solvent              : Dichloromethane, Eps=   8.930000 Eps(inf)=   2.028346
 ------------------------------------------------------------------------------
 One-electron integrals computed using PRISM.
   1 Symmetry operations used in ECPInt.
 ECPInt:  NShTT=   51040 NPrTT=  129190 LenC2=   46690 LenP2D=   91228.
 LDataN:  DoStor=T MaxTD1= 8 Len=  415
 Number of processors reduced to  41 by ecpmxn.
 NBasis=   843 RedAO= T EigKep=  3.94D-06  NBF=   843
 NBsUse=   843 1.00D-06 EigRej= -1.00D+00 NBFU=   843
 Defaulting to unpruned grid for atomic number  45.
 ExpMin= 3.70D-02 ExpMax= 1.97D+04 ExpMxC= 6.73D+02 IAcc=3 IRadAn=         5 AccDes= 0.00D+00
 Harris functional with IExCor= 4639 and IRadAn=       5 diagonalized for initial guess.
 HarFok:  IExCor= 4639 AccDes= 0.00D+00 IRadAn=         5 IDoV= 1 UseB2=F ITyADJ=14
 ICtDFT=  3500011 ScaDFX=  1.000000  1.000000  1.000000  1.000000
 Defaulting to unpruned grid for atomic number  45.
 FoFCou: FMM=F IPFlag=           0 FMFlag=      100000 FMFlg1=           0
         NFxFlg=           0 DoJE=T BraDBF=F KetDBF=T FulRan=T
         wScrn=  0.000000 ICntrl=       500 IOpCl=  0 I1Cent=   200000004 NGrid=           0
         NMat0=    1 NMatS0=      1 NMatT0=    0 NMatD0=    1 NMtDS0=    0 NMtDT0=    0
 Petite list used in FoFCou.
 Requested convergence on RMS density matrix=1.00D-08 within 128 cycles.
 Requested convergence on MAX density matrix=1.00D-06.
 Requested convergence on             energy=1.00D-06.
 No special actions if energy rises.
 Defaulting to unpruned grid for atomic number  45.
 Defaulting to unpruned grid for atomic number  45.
 Defaulting to unpruned grid for atomic number  45.
 Defaulting to unpruned grid for atomic number  45.
 Defaulting to unpruned grid for atomic number  45.
 Defaulting to unpruned grid for atomic number  45.
 Defaulting to unpruned grid for atomic number  45.
 Defaulting to unpruned grid for atomic number  45.
 Defaulting to unpruned grid for atomic number  45.
 Defaulting to unpruned grid for atomic number  45.
 Defaulting to unpruned grid for atomic number  45.
 Defaulting to unpruned grid for atomic number  45.
 Defaulting to unpruned grid for atomic number  45.
 Defaulting to unpruned grid for atomic number  45.
 Defaulting to unpruned grid for atomic number  45.
 Defaulting to unpruned grid for atomic number  45.
 Defaulting to unpruned grid for atomic number  45.
 Defaulting to unpruned grid for atomic number  45.
 Defaulting to unpruned grid for atomic number  45.
 Defaulting to unpruned grid for atomic number  45.
 Defaulting to unpruned grid for atomic number  45.
 Defaulting to unpruned grid for atomic number  45.
 Defaulting to unpruned grid for atomic number  45.
 Defaulting to unpruned grid for atomic number  45.
 Defaulting to unpruned grid for atomic number  45.
 Defaulting to unpruned grid for atomic number  45.
 Defaulting to unpruned grid for atomic number  45.
 Defaulting to unpruned grid for atomic number  45.
 Defaulting to unpruned grid for atomic number  45.
 Defaulting to unpruned grid for atomic number  45.
 Defaulting to unpruned grid for atomic number  45.
 Defaulting to unpruned grid for atomic number  45.
 Defaulting to unpruned grid for atomic number  45.
 Defaulting to unpruned grid for atomic number  45.
 Defaulting to unpruned grid for atomic number  45.
 Defaulting to unpruned grid for atomic number  45.
 Defaulting to unpruned grid for atomic number  45.
 Defaulting to unpruned grid for atomic number  45.
 Defaulting to unpruned grid for atomic number  45.
 Defaulting to unpruned grid for atomic number  45.
 Defaulting to unpruned grid for atomic number  45.
 Defaulting to unpruned grid for atomic number  45.
 Defaulting to unpruned grid for atomic number  45.
 Defaulting to unpruned grid for atomic number  45.
 Defaulting to unpruned grid for atomic number  45.
 Defaulting to unpruned grid for atomic number  45.
 Defaulting to unpruned grid for atomic number  45.
 Defaulting to unpruned grid for atomic number  45.
 Inv3:  Mode=1 IEnd=    18125292.
 Iteration    1 A*A^-1 deviation from unit magnitude is 3.11D-15 for   1386.
 Iteration    1 A*A^-1 deviation from orthogonality  is 1.89D-15 for   2293   1958.
 Iteration    1 A^-1*A deviation from unit magnitude is 3.55D-15 for   1386.
 Iteration    1 A^-1*A deviation from orthogonality  is 1.93D-15 for   2122    475.
 Error on total polarization charges =  0.01755
 SCF Done:  E(RwB97XD) =  -729.314571858     A.U. after   19 cycles
            NFock= 19  Conv=0.52D-08     -V/T= 2.1119

 **********************************************************************

            Population analysis using the SCF Density.

 **********************************************************************

 Orbital symmetries:
       Occupied  (A) (A) (A) (A) (A) (A) (A) (A) (A) (A) (A) (A)
                 (A) (A) (A) (A) (A) (A) (A) (A) (A) (A) (A) (A)
                 (A) (A) (A) (A) (A) (A) (A) (A) (A) (A) (A) (A)
                 (A) (A) (A) (A) (A) (A) (A) (A) (A) (A) (A) (A)
                 (A) (A) (A) (A) (A) (A) (A) (A) (A) (A) (A) (A)
                 (A) (A) (A) (A) (A) (A)
       Virtual   (A) (A) (A) (A) (A) (A) (A) (A) (A) (A) (A) (A)
                 (A) (A) (A) (A) (A) (A) (A) (A) (A) (A) (A) (A)
                 (A) (A) (A) (A) (A) (A) (A) (A) (A) (A) (A) (A)
                 (A) (A) (A) (A) (A) (A) (A) (A) (A) (A) (A) (A)
                 (A) (A) (A) (A) (A) (A) (A) (A) (A) (A) (A) (A)
                 (A) (A) (A) (A) (A) (A) (A) (A) (A) (A) (A) (A)
                 (A) (A) (A) (A) (A) (A) (A) (A) (A) (A) (A) (A)
                 (A) (A) (A) (A) (A) (A) (A) (A) (A) (A) (A) (A)
                 (A) (A) (A) (A) (A) (A) (A) (A) (A) (A) (A) (A)
                 (A) (A) (A) (A) (A) (A) (A) (A) (A) (A) (A) (A)
                 (A) (A) (A) (A) (A) (A) (A) (A) (A) (A) (A) (A)
                 (A) (A) (A) (A) (A) (A) (A) (A) (A) (A) (A) (A)
                 (A) (A) (A) (A) (A) (A) (A) (A) (A) (A) (A) (A)
                 (A) (A) (A) (A) (A) (A) (A) (A) (A) (A) (A) (A)
                 (A) (A) (A) (A) (A) (A) (A) (A) (A) (A) (A) (A)
                 (A) (A) (A) (A) (A) (A) (A) (A) (A) (A) (A) (A)
                 (A) (A) (A) (A) (A) (A) (A) (A) (A) (A) (A) (A)
                 (A) (A) (A) (A) (A) (A) (A) (A) (A) (A) (A) (A)
                 (A) (A) (A) (A) (A) (A) (A) (A) (A) (A) (A) (A)
                 (A) (A) (A) (A) (A) (A) (A) (A) (A) (A) (A) (A)
                 (A) (A) (A) (A) (A) (A) (A) (A) (A) (A) (A) (A)
                 (A) (A) (A) (A) (A) (A) (A) (A) (A) (A) (A) (A)
                 (A) (A) (A) (A) (A) (A) (A) (A) (A) (A) (A) (A)
                 (A) (A) (A) (A) (A) (A) (A) (A) (A) (A) (A) (A)
                 (A) (A) (A) (A) (A) (A) (A) (A) (A) (A) (A) (A)
                 (A) (A) (A) (A) (A) (A) (A) (A) (A) (A) (A) (A)
                 (A) (A) (A) (A) (A) (A) (A) (A) (A) (A) (A) (A)
                 (A) (A) (A) (A) (A) (A) (A) (A) (A) (A) (A) (A)
                 (A) (A) (A) (A) (A) (A) (A) (A) (A) (A) (A) (A)
                 (A) (A) (A) (A) (A) (A) (A) (A) (A) (A) (A) (A)
                 (A) (A) (A) (A) (A) (A) (A) (A) (A) (A) (A) (A)
                 (A) (A) (A) (A) (A) (A) (A) (A) (A) (A) (A) (A)
                 (A) (A) (A) (A) (A) (A) (A) (A) (A) (A) (A) (A)
                 (A) (A) (A) (A) (A) (A) (A) (A) (A) (A) (A) (A)
                 (A) (A) (A) (A) (A) (A) (A) (A) (A) (A) (A) (A)
                 (A) (A) (A) (A) (A) (A) (A) (A) (A) (A) (A) (A)
                 (A) (A) (A) (A) (A) (A) (A) (A) (A) (A) (A) (A)
                 (A) (A) (A) (A) (A) (A) (A) (A) (A) (A) (A) (A)
                 (A) (A) (A) (A) (A) (A) (A) (A) (A) (A) (A) (A)
                 (A) (A) (A) (A) (A) (A) (A) (A) (A) (A) (A) (A)
                 (A) (A) (A) (A) (A) (A) (A) (A) (A) (A) (A) (A)
                 (A) (A) (A) (A) (A) (A) (A) (A) (A) (A) (A) (A)
                 (A) (A) (A) (A) (A) (A) (A) (A) (A) (A) (A) (A)
                 (A) (A) (A) (A) (A) (A) (A) (A) (A) (A) (A) (A)
                 (A) (A) (A) (A) (A) (A) (A) (A) (A) (A) (A) (A)
                 (A) (A) (A) (A) (A) (A) (A) (A) (A) (A) (A) (A)
                 (A) (A) (A) (A) (A) (A) (A) (A) (A) (A) (A) (A)
                 (A) (A) (A) (A) (A) (A) (A) (A) (A) (A) (A) (A)
                 (A) (A) (A) (A) (A) (A) (A) (A) (A) (A) (A) (A)
                 (A) (A) (A) (A) (A) (A) (A) (A) (A) (A) (A) (A)
                 (A) (A) (A) (A) (A) (A) (A) (A) (A) (A) (A) (A)
                 (A) (A) (A) (A) (A) (A) (A) (A) (A) (A) (A) (A)
                 (A) (A) (A) (A) (A) (A) (A) (A) (A) (A) (A) (A)
                 (A) (A) (A) (A) (A) (A) (A) (A) (A) (A) (A) (A)
                 (A) (A) (A) (A) (A) (A) (A) (A) (A) (A) (A) (A)
                 (A) (A) (A) (A) (A) (A) (A) (A) (A) (A) (A) (A)
                 (A) (A) (A) (A) (A) (A) (A) (A) (A) (A) (A) (A)
                 (A) (A) (A) (A) (A) (A) (A) (A) (A) (A) (A) (A)
                 (A) (A) (A) (A) (A) (A) (A) (A) (A) (A) (A) (A)
                 (A) (A) (A) (A) (A) (A) (A) (A) (A) (A) (A) (A)
                 (A) (A) (A) (A) (A) (A) (A) (A) (A) (A) (A) (A)
                 (A) (A) (A) (A) (A) (A) (A) (A) (A) (A) (A) (A)
                 (A) (A) (A) (A) (A) (A) (A) (A) (A) (A) (A) (A)
                 (A) (A) (A) (A) (A) (A) (A) (A) (A) (A) (A) (A)
                 (A) (A) (A) (A) (A) (A) (A) (A) (A)
 The electronic state is 1-A.
 Alpha  occ. eigenvalues --  -14.48747 -14.48738 -10.31752 -10.31748 -10.31118
 Alpha  occ. eigenvalues --  -10.31114 -10.30509 -10.30500 -10.27986 -10.27978
 Alpha  occ. eigenvalues --  -10.27902 -10.27891 -10.27750 -10.25190 -10.23815
 Alpha  occ. eigenvalues --   -3.31162  -2.06447  -2.06339  -2.05191  -1.05532
 Alpha  occ. eigenvalues --   -1.05246  -0.95207  -0.87779  -0.85448  -0.81688
 Alpha  occ. eigenvalues --   -0.81675  -0.79194  -0.78715  -0.72786  -0.71911
 Alpha  occ. eigenvalues --   -0.70994  -0.66818  -0.66690  -0.60244  -0.58649
 Alpha  occ. eigenvalues --   -0.57884  -0.57534  -0.57062  -0.55732  -0.55518
 Alpha  occ. eigenvalues --   -0.53158  -0.50567  -0.50118  -0.49738  -0.48547
[...]
 00396,0.00000230,-0.00043057,0.00022734,-0.00044288,0.00012739,-0.0001
 5258,0.00005394,-0.00010297,-0.00037438,0.00006159,-0.00000072,0.00018
 327,-0.00001748,0.00722105,0.00479639,0.00486838,-0.00006739,-0.000048
 11,0.00012755,-0.00003095,0.00002809,-0.00006465,0.00001676,-0.0000125
 2,-0.00004542,-0.00008135,0.00001130,0.00001814,0.00003590,-0.00000011
 ,0.00001877,-0.00000088,-0.00000272,0.00000098,-0.00000868,0.00001962,
 -0.00000522,-0.00000150,0.00000112,-0.00000807,0.00002714,-0.00001563,
 -0.00001427,-0.00000040,0.00002215,-0.00000865,0.00000522,-0.00000729,
 0.00000105,-0.00003559,-0.00001645,-0.00000588,-0.00016584,0.00048582,
 0.00076202,0.00009068,0.00045585,0.00035453,-0.00010734,-0.00016675,0.
 00008481,-0.00005331,0.00048743,0.00028511,-0.10077319,-0.13546547,-0.
 08115162,0.00544418,0.00448361,0.00507256,-0.01992733,-0.01517708,-0.0
 1532169,0.10816354,0.14084721,0.00023256,0.00020975,0.00002720,0.00040
 681,0.00019876,0.00007624,-0.00021654,0.00006453,-0.00007981,0.0003795
 6,0.00013889,0.00004050,-0.00002983,-0.00025493,-0.00002526,-0.0000133
 1,-0.00001474,0.00000080,-0.00000964,0.00001876,0.00000249,-0.00007505
 ,0.00003734,0.00005382,0.00002192,-0.00001496,0.00000488,0.00002183,-0
 .00001372,-0.00000905,-0.00144700,-0.00053894,0.00072021,-0.00012191,-
 0.00001094,0.00017369,0.00023352,-0.00012143,-0.00006399,-0.00000467,0
 .00021135,-0.00000422,-0.02375366,-0.01853714,-0.02253301,-0.00000220,
 0.00003449,-0.00013137,0.00005737,0.00003018,-0.00004428,0.00002050,-0
 .00001011,-0.00000246,0.00004408,-0.00000390,-0.00000701,0.00002598,0.
 00001633,0.00001000,0.00000161,0.00000154,0.00000243,-0.00001032,0.000
 00826,-0.00001165,-0.00000190,-0.00000169,-0.00001197,0.00000362,-0.00
 001806,-0.00004484,0.00000631,-0.00000445,0.00000701,0.00000099,0.0000
 0219,0.00000381,0.00000010,0.00000967,0.00001875,0.00250686,0.00265171
 ,-0.00593144,0.00013437,-0.00012425,0.00006272,-0.00001220,0.00018228,
 0.00024485,-0.00120643,-0.00123582,-0.00115920,-0.08548730,-0.07488990
 ,-0.11899204,0.00557329,0.00604246,0.00600143,0.00360063,0.00237620,0.
 00355805,0.09972833,0.08380591,0.13826864,0.00054069,0.00084500,-0.000
 64153,0.00050195,-0.00083675,-0.00064648,-0.00033249,-0.00021212,-0.00
 074289,-0.00031369,0.00022905,-0.00073767,0.00059746,-0.00001036,0.000
 21460,-0.00002005,0.00004964,0.00001792,-0.00002049,-0.00004929,0.0000
 1669,-0.00047767,-0.00025347,0.00050932,-0.00003054,-0.00000262,-0.000
 02201,0.00011769,0.00017964,0.00006319,-0.00048142,0.00023787,0.000504
 05,-0.00003316,0.00001359,-0.00001478,0.00011896,-0.00018167,0.0000658
 2,0.00022153,-0.00003635,0.00024195,0.00019580,0.00000551,0.00015379,-
 0.01612640,-0.00001886,-0.01637839,0.00959809,-0.00003954,-0.00202533,
 -0.00283160,-0.00191011,0.00330982,-0.00296079,0.00191971,0.00342712,0
 .00083575,-0.00042203,0.00004343,-0.00027500,0.00029874,0.00000924,-0.
 00025366,0.00028530,0.00003985,-0.00001378,0.00004720,-0.00003815,0.00
 065392,-0.00026946,-0.00032488,-0.00014910,0.00047221,0.00007325,0.000
 03455,0.00016658,0.00025174,-0.00029548,0.00002869,-0.00021922,0.00082
 395,0.00038331,0.00013125,-0.00025333,-0.00029233,0.00004914,-0.000227
 30,-0.00025435,0.00004201,-0.00008309,-0.00009403,-0.00001127,0.000596
 93,0.00018860,-0.00037368,0.00003613,-0.00016247,0.00025198,-0.0001465
 5,-0.00047029,0.00007266,-0.00028044,-0.00005392,-0.00020872,0.0823057
 8,-0.00029481,-0.00084345,0.00005415,0.00029652,-0.00088866,-0.0000593
 5,0.00064588,-0.00019386,0.00024693,-0.00065762,-0.00017392,-0.0002567
 4,0.00000967,0.00070870,0.00000463,0.00004338,0.00001304,0.00003571,-0
 .00004823,0.00001419,-0.00003771,-0.00032399,0.00027993,-0.00004361,0.
 00000616,0.00007112,0.00004583,0.00004733,0.00006308,0.00005858,0.0003
 4657,0.00027803,0.00003203,-0.00001355,0.00007494,-0.00004888,-0.00005
 486,0.00006585,-0.00005986,-0.00184100,0.00410100,-0.00316066,0.002015
 71,0.00412102,0.00321046,-0.00001681,-0.00214192,0.00002990,-0.0000088
 9,-0.00073581,0.00000130,0.00235232,0.00041084,-0.00271393,-0.00234419
 ,0.00041901,0.00269983,-0.00008563,-0.00022075,0.00041118,0.00006746,-
 0.00002855,0.00003380,-0.00006741,0.00031934,-0.00017991,-0.00000096,0
 .00030547,-0.00020479,-0.00027141,-0.00006462,-0.00000635,0.00015065,-
 0.00014290,-0.00000585,-0.00000801,0.00004295,0.00004714,0.00011781,-0
 .00001599,0.00028538,0.00005380,-0.00018064,-0.00052085,0.00008125,0.0
 0033048,0.00019406,-0.00002148,0.00000936,-0.00001067,-0.00011962,0.00
 004756,0.00014874,0.00024249,-0.00012272,0.00001098,0.00000915,0.00004
 035,-0.00004925,-0.00015427,-0.00014299,0.00000200,-0.00011647,-0.0000
 3530,-0.00028029,0.00008746,0.01246398,0.00090121,0.00132359,0.0001983
 0,0.00089243,-0.00131460,0.00020694,-0.00035092,0.00001074,-0.00037901
 ,-0.00033970,-0.00000470,-0.00037214,0.00020440,-0.00000538,0.00008724
 ,-0.00005331,-0.00003155,-0.00002818,-0.00005320,0.00003102,-0.0000282
 2,0.00057915,-0.00017585,0.00010530,-0.00002580,-0.00010840,-0.0000143
 8,-0.00015471,-0.00015061,-0.00009747,0.00057104,0.00017216,0.00011047
 ,-0.00002720,0.00010620,-0.00002132,-0.00015302,0.00015049,-0.00010012
 ,-0.00005881,-0.00065005,-0.00059726,-0.00002228,0.00052757,-0.0005729
 6,-0.00011301,-0.00002698,0.00288299,-0.00073321,0.00000856,0.00307516
 ,0.00082922,0.00017993,-0.00071115,0.00092398,-0.00018266,-0.00081179,
 -0.00077545,0.00015833,-0.00048246,0.00020992,-0.00027448,-0.00012103,
 0.00030232,-0.00028794,0.00011340,-0.00013258,0.00012920,0.00041506,-0
 .00055953,-0.00012562,0.00000934,0.00007215,-0.00061382,-0.00002017,-0
 .00016458,-0.00000574,-0.00013022,0.00038738,-0.00008619,0.00021135,-0
 .00072084,-0.00037781,-0.00038925,0.00029969,0.00028661,0.00011934,0.0
 0020447,0.00026107,-0.00012612,-0.00002972,-0.00001878,0.00033631,-0.0
 0048391,0.00024941,0.00005298,-0.00017210,0.00000550,-0.00012891,0.000
 07034,0.00061489,-0.00002110,0.00037469,0.00011098,0.00020593,0.100224
 92,0.00115577,0.08813510,0.00050401,0.00309555,-0.00093323,0.00049611,
 -0.00309198,-0.00094967,-0.01093384,-0.00329883,-0.00183532,-0.0109266
 6,0.00330122,-0.00182446,-0.33453720,0.00015342,-0.03962738,0.00077832
 ,0.00033414,0.00068810,0.00077713,-0.00033968,0.00068552,-0.00024983,-
 0.00057901,-0.00003587,-0.00008167,0.00008017,-0.00004279,-0.00001385,
 0.00005573,0.00003514,-0.00024885,0.00057862,-0.00003399,-0.00008218,-
 0.00008037,-0.00004229,-0.00001444,-0.00005673,0.00003517,-0.00016432,
 0.00023365,-0.00007921,-0.00016208,-0.00023450,-0.00007824,-0.00004184
 ,0.00000053,0.00008148,-0.00003721,0.00000073,0.00002100,-0.00002656,0
 .00001777,0.00000487,-0.00002686,-0.00001734,0.00000463,-0.00004180,-0
 .00008505,0.00012481,-0.00004153,0.00001846,-0.00001540,0.00000850,0.0
 0002511,-0.00000261,0.00000785,0.00000253,-0.00000057,-0.00001949,-0.0
 0002839,-0.00009574,0.00000311,0.00002785,0.00000828,-0.00001716,0.000
 00045,0.00001727,0.00001072,0.00000074,-0.00001802,-0.00004078,0.00008
 385,0.00012455,0.00000910,-0.00002558,-0.00000309,-0.00004156,-0.00001
 838,-0.00001493,0.00000735,-0.00000142,-0.00000026,-0.00002068,0.00002
 636,-0.00009620,-0.00001734,-0.00000075,0.00001729,0.00000325,-0.00002
 753,0.00000834,0.00001139,-0.00000194,-0.00001857,0.00003801,-0.000000
 77,-0.00004445,0.35449225,0.00256285,-0.00464769,0.00056567,-0.0025634
 3,-0.00463842,-0.00061803,0.02812161,0.00431642,0.00368540,-0.02811480
 ,0.00433931,-0.00368499,0.00014074,-0.05982891,-0.00007645,-0.00055039
 ,0.00105455,-0.00010848,0.00055261,0.00105090,0.00013506,0.00081415,0.
 00066886,-0.00006870,0.00001649,-0.00005273,0.00005307,0.00000305,-0.0
 0001770,-0.00004209,-0.00081283,0.00066756,0.00006984,-0.00001735,-0.0
 0005313,-0.00005293,-0.00000374,-0.00001879,0.00004204,0.00033276,-0.0
 0025930,0.00015835,-0.00032920,-0.00025701,-0.00015720,0.00000024,-0.0
 0002264,0.,-0.00000001,-0.00000360,-0.00000003,-0.00000104,0.00000417,
 -0.00000265,0.00000084,0.00000405,0.00000250,0.00010938,0.00006705,-0.
 00011016,0.00004832,-0.00003066,0.00002191,-0.00001035,-0.00000472,-0.
 00000136,-0.00000828,-0.00000166,0.00000006,0.00002195,0.00002499,0.00
 006428,0.00000034,-0.00000631,0.00000026,0.00001340,-0.00000598,-0.000
 02054,-0.00000802,-0.00000514,0.00000668,-0.00010862,0.00006660,0.0001
 1061,0.00001074,-0.00000501,0.00000106,-0.00004829,-0.00003056,-0.0000
 2147,0.00000828,-0.00000153,-0.00000016,-0.00002196,0.00002492,-0.0000
 6385,-0.00001338,-0.00000598,0.00002047,-0.00000026,-0.00000630,-0.000
 00022,0.00000803,-0.00000565,-0.00000696,-0.00000021,0.00000747,-0.000
 00023,-0.00015123,0.05894267,-0.00059211,0.00062030,0.00697174,-0.0006
 0280,-0.00067499,0.00696383,-0.00205107,-0.00031912,0.00304787,-0.0021
 8136,0.00032497,0.00302909,-0.03959228,-0.00007708,-0.04130789,0.00068
 210,-0.00002648,-0.00427300,0.00068433,0.00005083,-0.00426854,-0.00000
 480,-0.00004824,0.00045788,-0.00003100,-0.00003778,0.00000070,-0.00002
 658,0.00000879,-0.00001490,-0.00000843,0.00005401,0.00045676,-0.000030
 91,0.00003784,0.00000088,-0.00002657,-0.00000851,-0.00001419,-0.000148
 19,0.00010287,-0.00013835,-0.00014988,-0.00010398,-0.00013768,-0.00004
 336,-0.00000031,0.00008508,-0.00002364,0.00000012,0.00002805,-0.000003
 67,0.00000555,0.00000544,-0.00000388,-0.00000542,0.00000554,-0.0000399
 0,-0.00001629,0.00002088,-0.00000613,0.00001146,-0.00001002,-0.0000003
 9,0.00000623,0.00000093,0.00000510,-0.00000011,0.00000252,-0.00000958,
 -0.00002749,-0.00002980,0.00000710,-0.00000899,-0.00000442,0.00000022,
 -0.00000047,0.00000508,0.00000797,-0.00001095,0.00000353,-0.00004060,0
 .00001688,0.00002139,-0.00000020,-0.00000628,0.00000091,-0.00000660,-0
 .00001174,-0.00001012,0.00000517,0.00000012,0.00000248,-0.00000976,0.0
 0002850,-0.00002997,0.00000014,0.00000028,0.00000524,0.00000718,0.0000
 0910,-0.00000433,0.00000826,0.00001092,0.00000361,0.00007536,0.0000002
 9,0.00001128,0.04366487,0.00009691,0.03143622,-0.16072779,-0.10588506,
 -0.00968956,-0.16077465,0.10576580,-0.00932174,-0.02760900,-0.03170371
 ,-0.00444606,-0.02750453,0.03157098,-0.00434813,0.00092165,0.00008068,
 0.00142895,-0.00628955,0.00029897,-0.00194814,-0.00629866,-0.00028777,
 -0.00192873,0.01179989,0.01352954,0.00063966,-0.00108428,0.00126862,-0
 .00033522,-0.00222480,0.00190977,-0.00035597,0.01158814,-0.01338969,0.
 00021221,-0.00105356,-0.00130774,-0.00033119,-0.00221974,-0.00189035,-
 0.00035122,0.00178630,0.00236519,-0.00030414,0.00206923,-0.00269699,-0
 .00012432,-0.01422382,-0.00002728,-0.00921606,0.00314776,-0.00001117,-
 0.00027925,-0.00169799,-0.00074686,0.00127668,-0.00170843,0.00076132,0
 .00128188,-0.00036759,-0.00042857,-0.00043996,-0.00005483,-0.00009005,
 -0.00002490,0.00011489,-0.00041276,0.00012080,0.00004217,0.00003088,-0
 .00000694,-0.00015187,0.00072865,0.00138378,-0.00041601,-0.00010882,-0
 .00030186,-0.00002755,-0.00001950,0.00016475,-0.00035934,0.00036695,-0
 .00022294,-0.00036750,0.00043030,-0.00044301,0.00011561,0.00040765,0.0
 0011970,-0.00006029,0.00009214,-0.00002225,0.00004459,-0.00004487,-0.0
 0000956,-0.00019565,-0.00081357,0.00114439,-0.00002507,0.00002442,0.00
 016371,-0.00041814,0.00010610,-0.00030433,-0.00037453,-0.00038059,-0.0
 0022100,-0.00967582,-0.00007566,-0.00308060,0.00056224,-0.00000132,0.0
 0035067,0.51705360,-0.06719705,-0.27385922,-0.00231659,0.06700617,-0.2
 7441188,0.00157106,-0.07998196,0.03477370,-0.00774430,0.07996587,0.034
 72964,0.00788172,-0.00002118,-0.07576381,-0.00014843,0.00079559,0.0015
 8374,-0.00063293,-0.00078388,0.00157687,0.00061860,-0.00747676,-0.0391
 7344,-0.00014188,-0.00056638,-0.00096322,-0.00067220,0.00346274,-0.004
 83991,0.00023404,0.00736140,-0.03877982,-0.00016410,0.00058233,-0.0009
 3704,0.00066363,-0.00346309,-0.00482857,-0.00022346,0.00420013,-0.0031
 3951,-0.00173159,-0.00418297,-0.00372857,0.00181909,-0.00001109,0.0125
 6712,0.00002554,-0.00002100,0.00010129,0.00001987,-0.00260030,-0.00055
 559,0.00164022,0.00256650,-0.00057835,-0.00162399,-0.00048669,-0.00049
 785,-0.00022382,0.00009532,-0.00004576,-0.00008122,-0.00000636,-0.0000
 5337,0.00013377,-0.00006028,-0.00003995,-0.00001950,0.00006278,-0.0007
 2195,-0.00029732,-0.00003959,-0.00003985,0.00022195,0.00003053,-0.0000
 5440,-0.00019474,0.00025847,-0.00017665,0.00006471,0.00048111,-0.00051
 128,0.00023343,0.00000528,-0.00007509,-0.00013406,-0.00009167,-0.00005
 548,0.00007795,0.00006793,-0.00003434,0.00003121,-0.00006575,-0.000486
 46,0.00014591,-0.00003542,-0.00005254,0.00019332,0.00003916,-0.0000432
 0,-0.00021941,-0.00030284,-0.00007888,-0.00011171,0.00008836,0.0028394
 0,-0.00010389,0.00000071,-0.00123800,-0.00000236,0.00055311,0.68755993
 ,-0.00951482,-0.00991661,-0.06594274,-0.00916492,0.00910245,-0.0662030
 5,-0.00617970,-0.00327402,0.01539497,-0.00591537,0.00333070,0.01543735
 ,0.00170219,-0.00011479,-0.00795899,-0.00140305,0.00015946,0.00708437,
 -0.00139423,-0.00018520,0.00710009,0.00314264,0.00529527,0.00193676,-0
 .00039100,0.00015209,0.00032086,-0.00120050,-0.00028254,0.00050321,0.0
 0282585,-0.00544762,0.00138320,-0.00035696,-0.00014771,0.00033314,-0.0
 0120874,0.00026522,0.00051223,-0.00115893,-0.00024228,0.00057380,-0.00
 107653,0.00025647,0.00080396,-0.00304046,-0.00003406,0.01066286,-0.003
 81896,0.00000363,0.00188588,-0.00001494,0.00061710,0.00065161,-0.00002
 984,-0.00060105,0.00066172,-0.00078282,-0.00001058,-0.00023704,-0.0000
 1735,-0.00006283,0.00002264,0.00017160,-0.00030629,0.00004122,0.000056
 61,0.00002676,0.00010615,-0.00085116,-0.00053675,-0.00061741,0.0002800
 3,-0.00064146,0.00000714,-0.00001352,-0.00005488,0.00001692,0.00055962
 ,-0.00020536,0.00037176,-0.00079250,0.00002460,-0.00023720,0.00017292,
 0.00030872,0.00004155,-0.00001845,0.00006282,0.00002473,0.00006355,-0.
 00002840,0.00011176,-0.00062227,0.00031842,-0.00011146,-0.00001560,0.0
 0005011,0.00001851,0.00028050,0.00064206,0.00000357,0.00051594,0.00028
 935,0.00033753,0.01031443,0.00000841,0.00600456,0.00032388,0.00000165,
 -0.00199838,0.01658605,0.00146575,0.11006692,-0.01342736,-0.01310434,-
 0.00124811,-0.01364484,0.01313638,-0.00117795,0.00220855,-0.00020066,-
 0.00049867,0.00225017,0.00023924,-0.00048132,-0.00105304,-0.00002744,0
 .00014388,0.00042720,0.00016028,0.00001935,0.00042491,-0.00016016,0.00
 001387,-0.00440606,-0.01046780,-0.00203036,0.00017233,0.00024768,0.000
 07517,-0.00263119,0.00003642,0.00072100,-0.00446953,0.01044842,-0.0019
 9553,0.00017546,-0.00023228,0.00005563,-0.00264863,-0.00002839,0.00072
 523,-0.03621478,0.00866509,0.00070516,-0.03641342,-0.00837061,0.000674
 13,-0.04833528,0.00023558,0.04063072,-0.01539736,-0.00001726,0.0093339
 9,-0.00589180,0.00193552,0.00084079,-0.00583396,-0.00189302,0.00079005
 ,0.00182735,0.00729750,0.00175889,-0.00010297,0.00072088,0.00011353,-0
 .00068801,0.00182124,-0.00120590,0.00009404,0.00008769,-0.00002328,0.0
 0024480,0.00049334,-0.00074092,0.00088118,-0.00050393,0.00059160,-0.00
 020146,0.00102308,0.00032520,0.00062721,-0.00119079,-0.00017168,0.0018
 2382,-0.00735341,0.00176617,-0.00069259,-0.00182272,-0.00120831,-0.000
 12038,-0.00067484,0.00012535,0.00009455,-0.00009695,-0.00002321,0.0001
 8965,-0.00004608,-0.00079585,-0.00017029,-0.00102993,0.00031345,0.0008
 8235,0.00051802,0.00056102,0.00062676,0.00115909,-0.00016002,-0.061935
 32,-0.00004800,-0.09879841,0.00007838,-0.00000109,0.00013524,-0.123335
 07,-0.00022919,0.01198678,0.36458463,-0.01394495,0.00194356,-0.0009798
 7,0.01403565,0.00193645,0.00096053,-0.00297024,-0.00354340,-0.00058392
 ,0.00298445,-0.00356892,0.00055851,-0.00000581,-0.00183906,-0.00000475
 ,-0.00108809,0.00015001,-0.00028708,0.00109648,0.00014410,0.00029063,-
 0.01431633,-0.00681241,0.00237991,0.00076098,0.00017553,-0.00062721,0.
 00115776,0.00054150,0.00030339,0.01435793,-0.00670102,-0.00243139,-0.0
 0076350,0.00017240,0.00064761,-0.00112654,0.00052612,-0.00029010,0.000
 07839,-0.03253529,0.00580690,-0.00008858,-0.03322402,-0.00563378,0.000
 20914,-0.04142174,0.00002202,-0.00010885,0.00118924,0.00003135,0.01134
 731,0.00330731,-0.00686557,-0.01118369,0.00331928,0.00679807,0.0041649
 3,-0.01018376,0.00382165,-0.00120351,0.00022633,-0.00033905,-0.0008566
 9,0.00102687,-0.00058185,-0.00057260,0.00006084,-0.00137169,0.00110727
 ,-0.00487054,-0.01005551,-0.00052953,0.00135628,0.00154500,-0.00062241
 ,-0.00097011,0.00031160,-0.00025909,-0.00080814,-0.00019012,-0.0041014
 7,-0.01025370,-0.00382536,0.00084066,0.00101105,0.00058498,0.00110861,
 0.00029977,0.00036873,0.00054754,0.00007167,0.00138511,-0.00079014,-0.
 00469138,0.01018355,0.00063401,-0.00080163,-0.00044534,0.00051520,0.00
 133325,-0.00153882,0.00023536,-0.00071669,0.00015336,0.00004378,-0.021
 09505,-0.00093675,0.00000189,-0.00009210,0.00000064,0.00003126,-0.0499
 6767,-0.00028861,-0.00072658,0.21530504,-0.00522083,-0.00250491,0.0046
 1801,-0.00514430,0.00247407,0.00462880,0.00126462,0.00051006,0.0036249
 7,0.00122381,-0.00055527,0.00360442,-0.00327340,0.00002245,-0.00085007
 ,-0.00019183,-0.00022522,-0.00030098,-0.00019237,0.00022658,-0.0003006
 1,-0.00094404,0.00440835,-0.00019033,0.00025478,0.00018605,0.00040572,
 0.00135300,0.00008143,0.00029881,-0.00087750,-0.00445639,-0.00018188,0
 .00027642,-0.00023754,0.00042462,0.00136626,-0.00009016,0.00029673,0.0
 0334144,0.00290744,-0.03002769,0.00328594,-0.00257076,-0.03002787,0.03
 408925,0.00004936,-0.02049547,0.00883857,0.00002000,-0.00764279,0.0000
 5427,-0.00081368,-0.00010663,0.00010969,0.00078472,-0.00015563,0.00169
 378,0.00612657,0.00045379,0.00014328,-0.00007329,0.00005232,-0.0009684
 6,0.00172899,-0.00013351,0.00007227,0.00067810,0.00018417,-0.00078070,
 -0.01141506,-0.00136640,-0.00047466,-0.00080451,-0.00246093,0.00014539
 ,-0.00150773,-0.00043574,-0.00106005,-0.00103906,-0.00087520,0.0016974
 7,-0.00610180,0.00045356,-0.00096907,-0.00172700,-0.00012781,0.0001327
 3,0.00010123,0.00005055,0.00004270,-0.00068522,0.00018366,-0.00149478,
 0.01164729,-0.00189258,0.00011072,0.00143415,-0.00035107,-0.00048666,0
 .00080813,-0.00246755,-0.00098344,0.00082135,-0.00077301,-0.09771856,-
 0.00107840,-0.09712779,-0.00005292,0.00000070,-0.00032534,0.02318387,-
 0.00025426,-0.03911475,0.03815331,0.00112324,0.21845150\\0.00000311,-0
 .00000158,-0.00000241,-0.00000385,0.00000154,-0.00000640,-0.00000031,-
 0.00000064,-0.00000433,-0.00000123,-0.00000068,-0.00001070,0.00000067,
 -0.00000529,-0.00000917,0.00000099,-0.00000300,-0.00000685,-0.00000189
 ,-0.00000263,-0.00001231,-0.00000183,0.00000480,0.00000581,-0.00000536
 ,0.00000095,0.00000102,0.00000177,0.00000025,0.00000130,0.00000047,-0.
 00000129,-0.00000766,-0.00000272,-0.00000149,-0.00000677,-0.00000185,0
 .00000103,-0.00000738,0.00000267,-0.00000185,0.00000075,-0.00000308,-0
 .00000034,0.00000579,0.00000344,0.00000460,0.00001103,0.00000775,-0.00
 000425,0.00000746,-0.00000227,-0.00000041,0.00000880,-0.00000065,0.000
 00083,0.00000587,0.00000309,0.00000089,0.00000283,0.00000139,0.0000032
 6,0.00001052,0.00000081,0.00000127,0.00000836,-0.00000434,0.00000303,0
 .00000672,0.00000909,-0.00000523,0.00000672,0.00000568,-0.00000148,0.0
 0000621,0.00000620,-0.00000136,0.00000696,0.00000602,-0.00000344,0.000
 00351,-0.00000268,0.00000239,-0.00000501,-0.00000444,0.00000215,-0.000
 00331,-0.00000374,0.00000367,0.00000295,-0.00000619,0.00000422,-0.0000
 0132,-0.00000356,-0.00000529,0.00000045,0.00000277,-0.00000079,0.00000
 288,0.00000074,-0.00000154,-0.00000399,0.00000453,-0.00000333,-0.00000
 297,-0.00000522,0.00000812,0.00000712,0.00000021,-0.00000370,-0.000012
 79,0.00000285,0.00000689,-0.00000285,-0.00000904,-0.00000028,-0.000006
 83\\\@
 The archive entry for this job was punched.


 IF YOU WANT TO LEARN FROM THE THEORETICAL PHYSICISTS ABOUT THE
 METHODS WHICH THEY USE, I ADVISE YOU TO FOLLOW THIS PRINCIPLE VERY STRICTLY:
 DON'T LISTEN TO THEIR WORDS; PAY ATTENTION, INSTEAD, TO THEIR ACTIONS.
 -- A.EINSTEIN, 1934
 Job cpu time:       2 days 17 hours 18 minutes 56.5 seconds.
 Elapsed time:       0 days  1 hours 22 minutes 14.0 seconds.
 File lengths (MBytes):  RWF=   1825 Int=      0 D2E=      0 Chk=     68 Scr=      1
 Normal termination of Gaussian 16 at Fri Mar  8 16:02:00 2024.
