 Entering Gaussian System, Link 0=/cm/shared/apps//g16/g16
 Input=QST2_YIrMeH_sigma_YIrMeH.gjf
 Output=QST2_YIrMeH_sigma_YIrMeH.log
 Initial command:
 /cm/shared/apps//g16/l1.exe "/local/mvanvleet/pbs.14067.josephine/Gau-3497902.inp" -scrdir="/local/mvanvleet/pbs.14067.josephine/"
 Entering Link 1 = /cm/shared/apps//g16/l1.exe PID=   3497905.
  
 Copyright (c) 1988-2019, Gaussian, Inc.  All Rights Reserved.
  
 This is part of the Gaussian(R) 16 program.  It is based on
 the Gaussian(R) 09 system (copyright 2009, Gaussian, Inc.),
 the Gaussian(R) 03 system (copyright 2003, Gaussian, Inc.),
 the Gaussian(R) 98 system (copyright 1998, Gaussian, Inc.),
 the Gaussian(R) 94 system (copyright 1995, Gaussian, Inc.),
 the Gaussian 92(TM) system (copyright 1992, Gaussian, Inc.),
 the Gaussian 90(TM) system (copyright 1990, Gaussian, Inc.),
 the Gaussian 88(TM) system (copyright 1988, Gaussian, Inc.),
 the Gaussian 86(TM) system (copyright 1986, Carnegie Mellon
 University), and the Gaussian 82(TM) system (copyright 1983,
 Carnegie Mellon University). Gaussian is a federally registered
 trademark of Gaussian, Inc.
  
 This software contains proprietary and confidential information,
 including trade secrets, belonging to Gaussian, Inc.
  
 This software is provided under written license and may be
 used, copied, transmitted, or stored only in accord with that
 written license.
  
 The following legend is applicable only to US Government
 contracts under FAR:
  
                    RESTRICTED RIGHTS LEGEND
  
 Use, reproduction and disclosure by the US Government is
 subject to restrictions as set forth in subparagraphs (a)
 and (c) of the Commercial Computer Software - Restricted
 Rights clause in FAR 52.227-19.
  
 Gaussian, Inc.
 340 Quinnipiac St., Bldg. 40, Wallingford CT 06492
  
  
 ---------------------------------------------------------------
 Warning -- This program may not be used in any manner that
 competes with the business of Gaussian, Inc. or will provide
 assistance to any competitor of Gaussian, Inc.  The licensee
 of this program is prohibited from giving any competitor of
 Gaussian, Inc. access to this program.  By using this program,
 the user acknowledges that Gaussian, Inc. is engaged in the
 business of creating and licensing software in the field of
 computational chemistry and represents and warrants to the
 licensee that it is not a competitor of Gaussian, Inc. and that
 it will not use this program in any manner prohibited above.
 ---------------------------------------------------------------
  

 Cite this work as:
 Gaussian 16, Revision C.01,
 M. J. Frisch, G. W. Trucks, H. B. Schlegel, G. E. Scuseria, 
 M. A. Robb, J. R. Cheeseman, G. Scalmani, V. Barone, 
 G. A. Petersson, H. Nakatsuji, X. Li, M. Caricato, A. V. Marenich, 
 J. Bloino, B. G. Janesko, R. Gomperts, B. Mennucci, H. P. Hratchian, 
 J. V. Ortiz, A. F. Izmaylov, J. L. Sonnenberg, D. Williams-Young, 
 F. Ding, F. Lipparini, F. Egidi, J. Goings, B. Peng, A. Petrone, 
 T. Henderson, D. Ranasinghe, V. G. Zakrzewski, J. Gao, N. Rega, 
 G. Zheng, W. Liang, M. Hada, M. Ehara, K. Toyota, R. Fukuda, 
 J. Hasegawa, M. Ishida, T. Nakajima, Y. Honda, O. Kitao, H. Nakai, 
 T. Vreven, K. Throssell, J. A. Montgomery, Jr., J. E. Peralta, 
 F. Ogliaro, M. J. Bearpark, J. J. Heyd, E. N. Brothers, K. N. Kudin, 
 V. N. Staroverov, T. A. Keith, R. Kobayashi, J. Normand, 
 K. Raghavachari, A. P. Rendell, J. C. Burant, S. S. Iyengar, 
 J. Tomasi, M. Cossi, J. M. Millam, M. Klene, C. Adamo, R. Cammi, 
 J. W. Ochterski, R. L. Martin, K. Morokuma, O. Farkas, 
 J. B. Foresman, and D. J. Fox, Gaussian, Inc., Wallingford CT, 2019.
 
 ******************************************
 Gaussian 16:  ES64L-G16RevC.01  3-Jul-2019
                 8-Mar-2024 
 ******************************************
 %nprocshared=48
 Will use up to   48 processors via shared memory.
 %chk=QST2_YIrMeH_sigma_YIrMeH.chk
 %mem=16GB
 ---------------------------------------------------------------
 # wb97xd def2TZVPP SCRF=(solvent=dichloromethane) opt=qst2 freq
 ---------------------------------------------------------------
 1/5=1,18=20,26=3,27=202,38=1/1,3;
 2/9=110,12=2,17=6,18=5,40=1/2;
 3/5=44,7=202,11=2,25=1,30=1,70=2201,71=1,72=9,74=-58/1,2,3;
 4//1;
 5/5=2,38=5,53=9/2;
 6/7=2,8=2,9=2,10=2,28=1/1;
 7//1,2,3,16;
 1/5=1,18=20,26=3,27=202/3(2);
 2/9=110/2;
 99//99;
 2/9=110/2;
 3/5=44,7=202,11=2,25=1,30=1,70=2205,71=1,72=9,74=-58/1,2,3;
 4/5=5,16=3,69=1/1;
 5/5=2,38=5,53=9/2;
 7//1,2,3,16;
 1/5=1,18=20,26=3,27=202/3(-5);
 2/9=110/2;
 6/7=2,8=2,9=2,10=2,19=2,28=1/1;
 99/9=1/99;
 -----------------------
 ts_xyz/YIrMeH_sigma.xyz
 -----------------------
 Symbolic Z-matrix:
 Charge =  0 Multiplicity = 1
 C                     1.92342   1.21076  -0.10747 
 C                     1.92263  -1.21194  -0.10752 
 C                     3.30496   1.21128   0.00307 
 C                     3.30417  -1.21336   0.00302 
 C                     3.99194  -0.00127   0.0793 
 H                     3.8596    2.14334   0.01904 
 H                     3.85821  -2.14578   0.01896 
 C                     1.04435   2.40174  -0.36928 
 H                     1.01676   2.58324  -1.44502 
 H                     1.39335   3.32262   0.10764 
 C                     1.04279  -2.40234  -0.36935 
 H                     1.01504  -2.58377  -1.4451 
 H                     1.39122  -3.32347   0.1075 
 N                    -0.37408   2.12476   0.05214 
 N                    -0.37546  -2.12447   0.05215 
 C                    -3.27324   0.00069   0.0258 
 H                    -2.669     0.00036   0.94786 
 H                    -3.88983   0.89566   0.01013 
 H                    -3.88986  -0.89424   0.00964 
 C                    -1.28163   2.95171  -0.75863 
 H                    -2.3026    2.80745  -0.41133 
 H                    -1.02517   4.01348  -0.67349 
 H                    -1.21547   2.64454  -1.79943 
 C                    -0.52089   2.52477   1.467 
 H                    -0.35195   3.60207   1.57529 
 H                    -1.52277   2.2839    1.81454 
 H                     0.20164   1.98462   2.07324 
 C                    -1.28359  -2.95084  -0.75857 
 H                    -1.0278   -4.01278  -0.67346 
 H                    -2.30445  -2.80593  -0.4112 
 H                    -1.21729  -2.6437   -1.79937 
 C                    -0.52243  -2.5244    1.46701 
 H                    -1.52415  -2.28293   1.81461 
 H                    -0.35416  -3.60181   1.57529 
 H                     0.20046  -1.98471   2.07322 
 H                    -2.63318   0.00092  -0.8842 
 Ir                   -0.67651   0.00023  -0.08143 
 H                     5.06989  -0.00162   0.17627 
 C                     1.2241   -0.00036  -0.11451 
 
 Add virtual bond connecting atoms Ir37       and H17        Dist= 4.24D+00.
 Add virtual bond connecting atoms Ir37       and H36        Dist= 4.00D+00.
 -----------------
 ts_xyz/YIrMeH.xyz
 -----------------
 Symbolic Z-matrix:
 Charge =  0 Multiplicity = 1
 C                     1.90229   1.21276  -0.09318 
 C                     1.90283  -1.21192  -0.09324 
 C                     3.26536   1.2154    0.16429 
 C                     3.2659   -1.21398   0.16423 
 C                     3.93836   0.00086   0.30507 
 H                     3.8151    2.14611   0.24993 
 H                     3.81605  -2.14445   0.24982 
 C                     1.02483   2.39527  -0.40477 
 H                     1.02106   2.54997  -1.48522 
 H                     1.35793   3.32724   0.0596 
 C                     1.02588  -2.39479  -0.40487 
 H                     1.02213  -2.54943  -1.48533 
 H                     1.35943  -3.32664   0.05943 
 N                    -0.40549   2.12605  -0.00964 
 N                    -0.40451  -2.1262   -0.00963 
 C                    -2.68858  -0.00073   0.81123 
 H                    -2.48027  -0.00074   1.89437 
 H                    -3.31577   0.88176   0.63475 
 H                    -3.31529  -0.88354   0.63464 
 C                    -1.29999   2.95809  -0.82984 
 H                    -2.32536   2.79981  -0.50511 
 H                    -1.04683   4.0181   -0.7252 
 H                    -1.20838   2.66514  -1.87265 
 C                    -0.57235   2.51188   1.40655 
 H                    -0.36988   3.5791    1.53466 
 H                    -1.58872   2.2956    1.72357 
 H                     0.12341   1.94205   2.01965 
 C                    -1.29872  -2.95863  -0.82975 
 H                    -1.0451   -4.01852  -0.72514 
 H                    -2.32413  -2.8008   -0.50493 
 H                    -1.20734  -2.66562  -1.87257 
 C                    -0.57107  -2.512     1.4066 
 H                    -1.5875   -2.29606   1.72367 
 H                    -0.3682   -3.57912   1.53477 
 H                     0.1245   -1.94186   2.01961 
 H                    -0.27867  -0.00014  -1.64992 
 Ir                   -0.73033  -0.00017  -0.16149 
 H                     5.00026   0.00108   0.51386 
 C                     1.22641   0.00027  -0.17845 
 
 Iteration  1 RMS(Cart)=  0.05998598 RMS(Int)=  0.47403992
 Iteration  2 RMS(Cart)=  0.03190216 RMS(Int)=  0.47118082
 Iteration  3 RMS(Cart)=  0.01850389 RMS(Int)=  0.46915428
 Iteration  4 RMS(Cart)=  0.01703285 RMS(Int)=  0.46790133
 Iteration  5 RMS(Cart)=  0.01730080 RMS(Int)=  0.46781114
 Iteration  6 RMS(Cart)=  0.01758457 RMS(Int)=  0.46897977
 Iteration  7 RMS(Cart)=  0.01752788 RMS(Int)=  0.47135808
 Iteration  8 RMS(Cart)=  0.01268046 RMS(Int)=  0.47351285
 Iteration  9 RMS(Cart)=  0.00428097 RMS(Int)=  0.47430413
 Iteration 10 RMS(Cart)=  0.00127072 RMS(Int)=  0.47453314
 Iteration 11 RMS(Cart)=  0.00036755 RMS(Int)=  0.47458908
 Iteration 12 RMS(Cart)=  0.00009921 RMS(Int)=  0.47460315
 Iteration 13 RMS(Cart)=  0.00002689 RMS(Int)=  0.47460680
 Iteration 14 RMS(Cart)=  0.00000728 RMS(Int)=  0.47460776
 Iteration 15 RMS(Cart)=  0.00000197 RMS(Int)=  0.47460802
 Iteration 16 RMS(Cart)=  0.00000053 RMS(Int)=  0.47460809
 Iteration  1 RMS(Cart)=  0.00000014 RMS(Int)=  0.47460811
 Iteration  1 RMS(Cart)=  0.00000004 RMS(Int)=  0.47460811
 Iteration  1 RMS(Cart)=  0.00000001 RMS(Int)=  0.47460812
 Iteration  1 RMS(Cart)=  0.00000000 RMS(Int)=  0.47460812
 Iteration  1 RMS(Cart)=  0.00000000 RMS(Int)=  0.47460812
 Iteration  1 RMS(Cart)=  0.00000000 RMS(Int)=  0.47460812
 Iteration  1 RMS(Cart)=  0.00000000 RMS(Int)=  0.47460812
 Iteration  1 RMS(Cart)=  0.00000000 RMS(Int)=  0.47460812
 Iteration  1 RMS(Cart)=  0.00000000 RMS(Int)=  0.47460812
   Var     Old X     New X   DQ Goal   DQ Act.  Rel. Err.   Overall
     1    2.6191    2.6202    0.0012    0.0011
     2    2.8407    2.8392    0.0018   -0.0015
     3    2.6429    2.6361   -0.0073   -0.0067
     4    2.6191    2.6203    0.0012    0.0012
     5    2.8407    2.8384    0.0018   -0.0023
     6    2.6429    2.6359   -0.0074   -0.0069
     7    2.6375    2.6356   -0.0001   -0.0019
     8    2.0498    2.0495   -0.0004   -0.0004
     9    2.6375    2.6357   -0.0000   -0.0019
    10    2.0498    2.0495   -0.0004   -0.0004
    11    2.0453    2.0452   -0.0001   -0.0001
    12    2.0622    2.0624    0.0002    0.0002
    13    2.0677    2.0668   -0.0009   -0.0009
    14    2.8448    2.8423    0.0026   -0.0025
    15    2.0622    2.0624    0.0002    0.0002
    16    2.0677    2.0668   -0.0009   -0.0009
    17    2.8448    2.8428    0.0025   -0.0020
    18    2.7804    2.7805    0.0001    0.0001
    19    2.7923    2.7920   -0.0003   -0.0003
    20    4.0631    4.0721    0.0058    0.0090
    21    2.7804    2.7805    0.0001    0.0001
    22    2.7923    2.7920   -0.0003   -0.0003
    23    4.0631    4.0723    0.0058    0.0092
    24    2.0832    2.1542    0.0006    0.0710
    25    2.0540    2.0635    0.0095    0.0095
    26    2.0540    2.0635    0.0095    0.0095
    27    2.1024    4.4675    2.2034    2.3651    1.0734
    28    4.9113    4.4627   -0.3897   -0.4486    1.1513
    29    4.2380    4.5964    0.4319    0.3584    0.8297
    30    2.0561    2.0552   -0.0008   -0.0008
    31    2.0704    2.0697   -0.0007   -0.0007
    32    2.0545    2.0544   -0.0001   -0.0001
    33    2.0708    2.0689   -0.0019   -0.0019
    34    2.0550    2.0540   -0.0010   -0.0010
    35    2.0539    2.0554    0.0015    0.0015
    36    2.0704    2.0697   -0.0008   -0.0008
    37    2.0561    2.0552   -0.0008   -0.0008
    38    2.0545    2.0544   -0.0001   -0.0001
    39    2.0550    2.0540   -0.0010   -0.0010
    40    2.0708    2.0689   -0.0020   -0.0020
    41    2.0539    2.0554    0.0014    0.0014
    42    3.9967    3.3875   -0.5286   -0.6091    1.1522
    43    3.5922    3.6527    0.0528    0.0606    1.1462
    44    2.2099    2.2159    0.0083    0.0060
    45    2.0934    2.0918   -0.0049   -0.0017
    46    1.9745    1.9714   -0.0021   -0.0031
    47    2.2099    2.2160    0.0083    0.0061
    48    2.0934    2.0916   -0.0049   -0.0018
    49    1.9745    1.9715   -0.0021   -0.0030
    50    2.0882    2.0864   -0.0022   -0.0018
    51    2.1074    2.1091    0.0019    0.0017
    52    2.0875    2.0876    0.0003    0.0001
    53    2.0883    2.0866   -0.0022   -0.0017
    54    2.1074    2.1090    0.0019    0.0017
    55    2.0875    2.0875    0.0003    0.0000
    56    2.1047    2.1068    0.0035    0.0020
    57    2.0891    2.0881   -0.0017   -0.0010
    58    2.0891    2.0881   -0.0017   -0.0010
    59    1.8947    1.8978    0.0000    0.0031
    60    1.9871    1.9877   -0.0001    0.0007
    61    1.9353    1.9300    0.0010   -0.0053
    62    1.8731    1.8738    0.0016    0.0007
    63    1.8574    1.8621   -0.0007    0.0046
    64    1.9107    1.9074   -0.0019   -0.0032
    65    1.8947    1.8979    0.0000    0.0033
    66    1.9871    1.9877   -0.0001    0.0006
    67    1.9353    1.9298    0.0010   -0.0055
    68    1.8731    1.8737    0.0016    0.0006
    69    1.8574    1.8622   -0.0007    0.0047
    70    1.9107    1.9075   -0.0018   -0.0032
    71    1.9002    1.8793    0.0032   -0.0210
    72    1.8879    1.9416   -0.0001    0.0537
    73    1.8723    1.8793    0.0018    0.0070
    74    1.8904    1.8643    0.0020   -0.0261
    75    2.0201    2.0146   -0.0042   -0.0056
    76    1.8891    1.8858   -0.0026   -0.0033
    77    1.9003    1.8788    0.0032   -0.0215
    78    1.8879    1.9418   -0.0001    0.0539
    79    1.8723    1.8794    0.0019    0.0071
    80    1.8904    1.8646    0.0020   -0.0258
    81    2.0201    2.0144   -0.0042   -0.0057
    82    1.8892    1.8859   -0.0027   -0.0033
    83    1.8999    1.8164   -0.0300   -0.0836    2.7884
    84    1.8998    1.8453   -0.0299   -0.0545    1.8225
    85    1.9485    2.1693    0.1141    0.2208    1.9348
    86    1.0320    1.3915    0.4049    0.3595    0.8878
    87    1.9347    1.9319   -0.0323   -0.0028    0.0869
    88    1.8906    1.8414   -0.0154   -0.0492    3.1862
    89    2.1729    2.1472   -0.0731   -0.0257    0.3518
    90    1.8906    1.8553   -0.0155   -0.0353    2.2793
    91    2.1725    2.1470   -0.0729   -0.0255    0.3500
    92    1.6741    1.2708   -0.3894   -0.4033    1.0355
    93    1.9054    1.9034   -0.0020   -0.0020
    94    1.9364    1.9343   -0.0021   -0.0021
    95    1.9084    1.9083   -0.0000   -0.0000
    96    1.9001    1.9038    0.0038    0.0038
    97    1.9020    1.9029    0.0008    0.0008
    98    1.9113    1.9109   -0.0004   -0.0004
    99    1.9235    1.9239    0.0004    0.0004
   100    1.9151    1.9129   -0.0022   -0.0022
   101    1.9108    1.9095   -0.0013   -0.0013
   102    1.9052    1.9079    0.0027    0.0027
   103    1.9081    1.9058   -0.0024   -0.0024
   104    1.9009    1.9037    0.0028    0.0028
   105    1.9364    1.9343   -0.0021   -0.0021
   106    1.9054    1.9034   -0.0020   -0.0020
   107    1.9084    1.9083   -0.0000   -0.0000
   108    1.9001    1.9038    0.0038    0.0038
   109    1.9113    1.9109   -0.0004   -0.0004
   110    1.9021    1.9029    0.0008    0.0008
   111    1.9151    1.9129   -0.0022   -0.0022
   112    1.9235    1.9239    0.0004    0.0004
   113    1.9108    1.9095   -0.0013   -0.0013
   114    1.9052    1.9079    0.0027    0.0027
   115    1.9009    1.9037    0.0028    0.0028
   116    1.9081    1.9058   -0.0023   -0.0023
   117    1.7944    1.1804   -0.6571   -0.6140    0.9345
   118    2.8334    2.7958   -0.0132   -0.0377    2.8529
   119    1.7090    1.7119   -0.0171    0.0029   -0.1701
   120    1.6673    1.6440   -0.0262   -0.0234    0.8945
   121    1.7248    1.7018   -0.0652   -0.0230    0.3522
   122    1.4311    1.4167   -0.0056   -0.0144
   123    1.7087    1.7114   -0.0170    0.0026   -0.1550
   124    1.6669    1.6553   -0.0260   -0.0116    0.4478
   125    1.7248    1.7311   -0.0653    0.0063   -0.0958
   126    1.4311    1.4162   -0.0056   -0.0149
   127    0.4306    1.1830    0.9479    0.7524    0.7938
   128    3.1177    2.9911   -0.2142   -0.1266    0.5911
   129    0.8662    1.6622    0.9324    0.7960    0.8537
   130    2.6822    2.5118   -0.1988   -0.1704    0.8572
   131    2.7349    2.1091   -0.7337   -0.6258    0.8530
   132    2.0949    2.1003    0.0112    0.0054    0.4777
   133    2.0939    2.0897   -0.0080   -0.0042
   134    2.0939    2.0901   -0.0080   -0.0038
   135   -3.0002   -3.0135   -0.0160   -0.0133    0.8321
   136    0.1285    0.1168   -0.0136   -0.0117    0.8552
   137    0.0228    0.0235    0.0003    0.0007
   138   -3.1317   -3.1293    0.0026    0.0024
   139    1.4574    1.5107    0.0519    0.0532    1.0261
   140   -0.6275   -0.5777    0.0499    0.0498    0.9969
   141   -2.7912   -2.7335    0.0516    0.0577    1.1175
   142   -1.5724   -1.5325    0.0367    0.0399    1.0889
   143    2.6258    2.6623    0.0348    0.0365    1.0503
   144    0.4621    0.5065    0.0364    0.0444    1.2188
   145   -0.0806   -0.0766    0.0051    0.0040
   146    3.0293    2.9806   -0.0558   -0.0488    0.8742
   147    2.9575    2.9743    0.0199    0.0168    0.8445
   148   -0.2157   -0.2517   -0.0411   -0.0360    0.8765
   149    3.0002    3.0148    0.0160    0.0146    0.9121
   150   -0.1285   -0.1160    0.0136    0.0125    0.9167
   151   -0.0228   -0.0233   -0.0003   -0.0005
   152    3.1317    3.1291   -0.0026   -0.0026
   153   -1.4575   -1.5112   -0.0519   -0.0537    1.0357
   154    0.6275    0.5772   -0.0499   -0.0502    1.0056
   155    2.7912    2.7329   -0.0516   -0.0583    1.1285
   156    1.5724    1.5329   -0.0367   -0.0395    1.0759
   157   -2.6259   -2.6618   -0.0348   -0.0360    1.0350
   158   -0.4621   -0.5062   -0.0365   -0.0440    1.2077
   159    0.0806    0.0765   -0.0051   -0.0041
   160   -3.0293   -2.9807    0.0558    0.0487    0.8723
   161   -2.9576   -2.9754   -0.0198   -0.0178    0.8964
   162    0.2157    0.2507    0.0411    0.0350    0.8519
   163    0.0353    0.0296   -0.0064   -0.0057
   164   -3.1302   -3.1319   -0.0014   -0.0017
   165   -3.0936   -3.1009   -0.0087   -0.0073
   166    0.0241    0.0208   -0.0037   -0.0033
   167   -0.0353   -0.0297    0.0064    0.0056
   168    3.1302    3.1318    0.0014    0.0016
   169    3.0936    3.1012    0.0087    0.0077
   170   -0.0241   -0.0204    0.0037    0.0037
   171   -2.6677   -2.6878   -0.0149   -0.0201    1.3466
   172    1.5648    1.5582   -0.0190   -0.0065    0.3435
   173   -0.4695   -0.5050   -0.0169   -0.0355    2.1026
   174   -0.6104   -0.6269   -0.0147   -0.0165    1.1189
   175   -2.6611   -2.6640   -0.0189   -0.0029    0.1555
   176    1.5878    1.5559   -0.0167   -0.0319    1.9103
   177    1.4087    1.3939   -0.0142   -0.0149    1.0454
   178   -0.6420   -0.6433   -0.0183   -0.0013    0.0709
   179   -2.6762   -2.7065   -0.0162   -0.0303    1.8713
   180    2.6678    2.6879    0.0149    0.0201    1.3458
   181   -1.5647   -1.5580    0.0191    0.0068    0.3537
   182    0.4696    0.5055    0.0169    0.0359    2.1242
   183    0.6104    0.6268    0.0148    0.0164    1.1097
   184    2.6611    2.6642    0.0189    0.0030    0.1593
   185   -1.5878   -1.5556    0.0167    0.0322    1.9250
   186   -1.4087   -1.3940    0.0142    0.0147    1.0334
   187    0.6420    0.6434    0.0184    0.0013    0.0724
   188    2.6763    2.7068    0.0162    0.0305    1.8852
   189   -3.0733   -3.0971   -0.0081   -0.0239
   190   -0.9793   -1.0011   -0.0060   -0.0218
   191    1.1305    1.1069   -0.0079   -0.0236
   192   -1.0241   -1.0101   -0.0053    0.0140
   193    1.0698    1.0859   -0.0032    0.0161
   194   -3.1035   -3.0893   -0.0051    0.0142
   195    1.1001    1.0866   -0.0100   -0.0135    1.3472
   196   -3.0891   -3.1005   -0.0079   -0.0114
   197   -0.9792   -0.9925   -0.0098   -0.0133
   198    1.0978    1.0676   -0.0132   -0.0302    2.2821
   199   -3.0869   -3.1149   -0.0111   -0.0280    2.5311
   200   -1.0016   -1.0283   -0.0098   -0.0267
   201   -0.9592   -0.9787   -0.0181   -0.0195    1.0755
   202    1.1393    1.1220   -0.0159   -0.0173    1.0856
   203   -3.0586   -3.0746   -0.0146   -0.0160    1.0933
   204    3.1211    3.1269   -0.0125    0.0058   -0.4680
   205   -1.0636   -1.0556   -0.0103    0.0080   -0.7739
   206    1.0217    1.0310   -0.0090    0.0093
   207    0.7308    0.7763    0.0014    0.0455
   208   -2.8736   -2.9887    2.9221   -0.1151   -0.0394
   209    2.9730    2.8171   -0.2019   -0.1558    0.7720
   210   -2.4385   -1.7932    0.7306    0.6454    0.8834
   211    0.2921    0.3045   -0.0047    0.0124
   212    2.8556    2.8757    0.0041    0.0201
   213   -0.7488   -0.8893   -0.2168   -0.1406    0.6483
   214   -1.1854   -1.3667   -0.1991   -0.1813    0.9102
   215   -0.3138    0.3062    0.7333    0.6200    0.8455
   216    2.4169    2.4039   -0.0020   -0.0130
   217   -1.3027   -1.3226    0.0019   -0.0199
   218    1.3761    1.1956   -0.2190   -0.1805    0.8242
   219    0.9395    0.7183   -0.2014   -0.2212    1.0986
   220    1.8112    2.3912   -2.4105    0.5800   -0.2406
   221   -1.7414   -1.7944   -0.0042   -0.0530
   222    0.9793    1.0012    0.0060    0.0219
   223    3.0733    3.0973    0.0081    0.0240
   224   -1.1305   -1.1067    0.0078    0.0238
   225   -1.0698   -1.0859    0.0031   -0.0161
   226    1.0241    1.0101    0.0053   -0.0140
   227    3.1035    3.0893    0.0050   -0.0142
   228    3.0891    3.1003    0.0079    0.0112
   229   -1.1002   -1.0868    0.0100    0.0133    1.3270
   230    0.9792    0.9923    0.0098    0.0131
   231    3.0869    3.1151    0.0110    0.0282    2.5555
   232   -1.0978   -1.0675    0.0132    0.0303    2.3003
   233    1.0016    1.0285    0.0097    0.0269
   234   -1.1393   -1.1221    0.0159    0.0171    1.0771
   235    0.9592    0.9785    0.0181    0.0193    1.0679
   236    3.0586    3.0745    0.0146    0.0158    1.0838
   237    1.0636    1.0555    0.0103   -0.0081   -0.7892
   238   -3.1211   -3.1270    0.0124   -0.0059   -0.4778
   239   -1.0217   -1.0311    0.0090   -0.0094
   240   -0.7308   -0.7771   -0.0014   -0.0463
   241    2.8735    2.9879   -2.9221    0.1144   -0.0391
   242   -2.9731   -2.8162    0.2019    0.1569    0.7773
   243    2.4385    1.7896   -0.7306   -0.6489    0.8882
   244   -0.2921   -0.3052    0.0047   -0.0131
   245   -2.8556   -2.8758   -0.0041   -0.0202
   246    0.7487    0.8892    0.2168    0.1404    0.6478
   247    1.1853    1.3683    0.1991    0.1830    0.9189
   248    0.3137   -0.3091   -0.7333   -0.6228    0.8493
   249   -2.4169   -2.4040    0.0020    0.0130
   250    1.3026    1.3221   -0.0019    0.0194
   251   -1.3762   -1.1962    0.2190    0.1801    0.8221
   252   -0.9396   -0.7170    0.2014    0.2226    1.1054
   253   -1.8112   -2.3945    2.4105   -0.5832   -0.2419
   254    1.7413    1.7939    0.0042    0.0526
   255   -2.0864   -2.1242   -0.0338   -0.0378    1.1171
   256    2.0861    2.1226    0.0340    0.0365    1.0757
   257   -0.0001   -0.0246    0.0001   -0.0245
   258    0.0001    0.0345   -0.0002    0.0343
   259    2.0919    2.1226    0.0267    0.0307    1.1502
   260   -2.0915   -2.1083   -0.0270   -0.0168    0.6218
   261   -1.5025   -1.4572    0.0314    0.0452    1.4380
   262    1.5020    1.4831   -0.0313   -0.0189    0.6036
   263   -3.1414   -3.1127    3.1414    0.0288    0.0092
   264    0.0053    0.0162   -0.0026    0.0109
   265    0.1145    0.2914    0.2383    0.1769    0.7425
   266    3.1189   -3.0515   -2.9661   -6.1704    2.0803
   267   -1.5245   -1.3641    0.2066    0.1605    0.7765
   268    1.6223    1.7648    0.2042    0.1426    0.6983
   269   -3.1194    3.0428    2.9663    6.1622    2.0774
   270   -0.1150   -0.3000   -0.2380   -0.1850    0.7774
   271    1.5248    1.3874   -0.2069   -0.1374    0.6640
   272   -1.6116   -1.7669   -0.2094   -0.1553    0.7415
   273    1.6911    1.7364    0.0205    0.0453    2.2067
   274   -1.6914   -1.7133   -0.0204   -0.0219    1.0745
   275    0.0001    0.0269   -0.0002    0.0268
   276   -3.1413   -3.1375   -0.0001    0.0038
   277   -1.5669   -1.6704   -0.0848   -0.1035    1.2201
   278    1.5661    1.6582    0.0851    0.0921    1.0819
   279   -0.0001   -0.0134    0.0001   -0.0133
   280    3.1413   -3.1394    0.0001   -6.2807
   281   -0.0494   -0.0358    0.0259    0.0136    0.5263
   282    3.0605    3.0219   -0.0333   -0.0387    1.1617
   283   -3.0605   -3.0208    0.0333    0.0397    1.1935
   284    0.0494    0.0369   -0.0259   -0.0126    0.4853
   285   -1.5605   -1.5316    0.0323    0.0289    0.8958
   286    1.5494    1.5261   -0.0269   -0.0233    0.8690
   287   -1.5554   -1.5189    0.0298    0.0366    1.2278
   288    1.5545    1.5388   -0.0294   -0.0157    0.5346
   289    1.5865    1.5963    0.0297    0.0098    0.3299
   290   -1.5867   -1.6292   -0.0295   -0.0425    1.4402

 GradGradGradGradGradGradGradGradGradGradGradGradGradGradGradGradGradGrad
 Berny optimization.
 Initialization pass.
                           ----------------------------
                           !    Initial Parameters    !
                           ! (Angstroms and Degrees)  !
 --------------------------                            --------------------------
 ! Name  Definition         TS        Reactant Product Derivative Info.         !
 --------------------------------------------------------------------------------
 ! R1    R(1,3)             1.3865    1.386     1.3872 estimate D2E/DX2         !
 ! R2    R(1,8)             1.5025    1.5032    1.5051 estimate D2E/DX2         !
 ! R3    R(1,39)            1.395     1.3985    1.3908 estimate D2E/DX2         !
 ! R4    R(2,4)             1.3866    1.386     1.3872 estimate D2E/DX2         !
 ! R5    R(2,11)            1.502     1.5032    1.5051 estimate D2E/DX2         !
 ! R6    R(2,39)            1.3949    1.3985    1.3908 estimate D2E/DX2         !
 ! R7    R(3,5)             1.3947    1.3957    1.3957 estimate D2E/DX2         !
 ! R8    R(3,6)             1.0845    1.0847    1.0843 estimate D2E/DX2         !
 ! R9    R(4,5)             1.3947    1.3957    1.3957 estimate D2E/DX2         !
 ! R10   R(4,7)             1.0845    1.0847    1.0843 estimate D2E/DX2         !
 ! R11   R(5,38)            1.0823    1.0823    1.0822 estimate D2E/DX2         !
 ! R12   R(8,9)             1.0914    1.0913    1.0915 estimate D2E/DX2         !
 ! R13   R(8,10)            1.0937    1.0942    1.0932 estimate D2E/DX2         !
 ! R14   R(8,14)            1.5041    1.5054    1.5081 estimate D2E/DX2         !
 ! R15   R(11,12)           1.0914    1.0913    1.0915 estimate D2E/DX2         !
 ! R16   R(11,13)           1.0937    1.0942    1.0932 estimate D2E/DX2         !
 ! R17   R(11,15)           1.5043    1.5054    1.5081 estimate D2E/DX2         !
 ! R18   R(14,20)           1.4714    1.4713    1.4714 estimate D2E/DX2         !
 ! R19   R(14,24)           1.4774    1.4776    1.4773 estimate D2E/DX2         !
 ! R20   R(14,37)           2.1549    2.1501    2.1562 estimate D2E/DX2         !
 ! R21   R(15,28)           1.4714    1.4713    1.4714 estimate D2E/DX2         !
 ! R22   R(15,32)           1.4774    1.4776    1.4773 estimate D2E/DX2         !
 ! R23   R(15,37)           2.155     2.1501    2.1562 estimate D2E/DX2         !
 ! R24   R(16,17)           1.14      1.1024    1.103  estimate D2E/DX2         !
 ! R25   R(16,18)           1.0919    1.0869    1.097  estimate D2E/DX2         !
 ! R26   R(16,19)           1.0919    1.0869    1.097  estimate D2E/DX2         !
 ! R27   R(16,36)           2.3641    1.1126    3.4446 estimate D2E/DX2         !
 ! R28   R(16,37)           2.3615    2.5989    2.1865 estimate D2E/DX2         !
 ! R29   R(17,37)           2.4323    2.2426    2.6998 estimate D2E/DX2         !
 ! R30   R(20,21)           1.0876    1.088     1.0871 estimate D2E/DX2         !
 ! R31   R(20,22)           1.0952    1.0956    1.0948 estimate D2E/DX2         !
 ! R32   R(20,23)           1.0871    1.0872    1.087  estimate D2E/DX2         !
 ! R33   R(24,25)           1.0948    1.0958    1.0938 estimate D2E/DX2         !
 ! R34   R(24,26)           1.0869    1.0875    1.0864 estimate D2E/DX2         !
 ! R35   R(24,27)           1.0877    1.0869    1.0884 estimate D2E/DX2         !
 ! R36   R(28,29)           1.0952    1.0956    1.0948 estimate D2E/DX2         !
 ! R37   R(28,30)           1.0876    1.088     1.0871 estimate D2E/DX2         !
 ! R38   R(28,31)           1.0871    1.0872    1.0871 estimate D2E/DX2         !
 ! R39   R(32,33)           1.0869    1.0875    1.0864 estimate D2E/DX2         !
 ! R40   R(32,34)           1.0948    1.0958    1.0938 estimate D2E/DX2         !
 ! R41   R(32,35)           1.0877    1.0869    1.0884 estimate D2E/DX2         !
 ! R42   R(36,37)           1.7926    2.1149    1.5554 estimate D2E/DX2         !
 ! R43   R(37,39)           1.9329    1.9009    1.9568 estimate D2E/DX2         !
 ! A1    A(3,1,8)         126.9644  126.6205  127.574  estimate D2E/DX2         !
 ! A2    A(3,1,39)        119.8494  119.9451  119.3782 estimate D2E/DX2         !
 ! A3    A(8,1,39)        112.9505  113.1296  112.8888 estimate D2E/DX2         !
 ! A4    A(4,2,11)        126.9688  126.6205  127.5742 estimate D2E/DX2         !
 ! A5    A(4,2,39)        119.8402  119.9448  119.3789 estimate D2E/DX2         !
 ! A6    A(11,2,39)       112.96    113.13    112.888  estimate D2E/DX2         !
 ! A7    A(1,3,5)         119.5446  119.6478  119.3995 estimate D2E/DX2         !
 ! A8    A(1,3,6)         120.8426  120.743   120.962  estimate D2E/DX2         !
 ! A9    A(5,3,6)         119.6097  119.605   119.6368 estimate D2E/DX2         !
 ! A10   A(2,4,5)         119.5531  119.6482  119.3988 estimate D2E/DX2         !
 ! A11   A(2,4,7)         120.8384  120.7433  120.9623 estimate D2E/DX2         !
 ! A12   A(5,4,7)         119.6056  119.6044  119.6372 estimate D2E/DX2         !
 ! A13   A(3,5,4)         120.7097  120.5931  120.995  estimate D2E/DX2         !
 ! A14   A(3,5,38)        119.6405  119.6961  119.5008 estimate D2E/DX2         !
 ! A15   A(4,5,38)        119.64    119.6967  119.4994 estimate D2E/DX2         !
 ! A16   A(1,8,9)         108.7341  108.5561  108.5601 estimate D2E/DX2         !
 ! A17   A(1,8,10)        113.8896  113.8503  113.8411 estimate D2E/DX2         !
 ! A18   A(1,8,14)        110.5816  110.8835  111.0033 estimate D2E/DX2         !
 ! A19   A(9,8,10)        107.3598  107.322   107.4997 estimate D2E/DX2         !
 ! A20   A(9,8,14)        106.6893  106.423   106.3426 estimate D2E/DX2         !
 ! A21   A(10,8,14)       109.287   109.4727  109.2606 estimate D2E/DX2         !
 ! A22   A(2,11,12)       108.7439  108.5561  108.5606 estimate D2E/DX2         !
 ! A23   A(2,11,13)       113.8873  113.8506  113.84   estimate D2E/DX2         !
 ! A24   A(2,11,15)       110.568   110.8835  111.0017 estimate D2E/DX2         !
 ! A25   A(12,11,13)      107.3576  107.3214  107.4995 estimate D2E/DX2         !
 ! A26   A(12,11,15)      106.695   106.4232  106.3442 estimate D2E/DX2         !
 ! A27   A(13,11,15)      109.2905  109.4729  109.2616 estimate D2E/DX2         !
 ! A28   A(8,14,20)       107.6731  108.8756  109.2422 estimate D2E/DX2         !
 ! A29   A(8,14,24)       111.2451  108.1709  108.16   estimate D2E/DX2         !
 ! A30   A(8,14,37)       107.6773  107.2741  107.485  estimate D2E/DX2         !
 ! A31   A(20,14,24)      106.8153  108.3125  108.5431 estimate D2E/DX2         !
 ! A32   A(20,14,37)      115.4259  115.7447  115.2614 estimate D2E/DX2         !
 ! A33   A(24,14,37)      108.0489  108.2401  107.941  estimate D2E/DX2         !
 ! A34   A(11,15,28)      107.6447  108.8764  109.2426 estimate D2E/DX2         !
 ! A35   A(11,15,32)      111.2568  108.1702  108.1604 estimate D2E/DX2         !
 ! A36   A(11,15,37)      107.6802  107.2724  107.4858 estimate D2E/DX2         !
 ! A37   A(28,15,32)      106.8336  108.3124  108.5462 estimate D2E/DX2         !
 ! A38   A(28,15,37)      115.4193  115.7446  115.2597 estimate D2E/DX2         !
 ! A39   A(32,15,37)      108.0518  108.2417  107.938  estimate D2E/DX2         !
 ! A40   A(17,16,18)      104.0713  108.8588  105.425  estimate D2E/DX2         !
 ! A41   A(17,16,19)      105.7293  108.8529  105.425  estimate D2E/DX2         !
 ! A42   A(17,16,36)      124.2903  111.6414  124.7165 estimate D2E/DX2         !
 ! A43   A(17,16,37)       79.7252   59.1272  105.5287 estimate D2E/DX2         !
 ! A44   A(18,16,19)      110.6891  110.8498  107.1509 estimate D2E/DX2         !
 ! A45   A(18,16,36)      105.505   108.3245  106.5546 estimate D2E/DX2         !
 ! A46   A(18,16,37)      123.0232  124.496   116.1221 estimate D2E/DX2         !
 ! A47   A(19,16,36)      106.3006  108.3239  106.5485 estimate D2E/DX2         !
 ! A48   A(19,16,37)      123.0144  124.4767  116.1206 estimate D2E/DX2         !
 ! A49   A(16,17,37)       72.8127   95.9173   51.2905 estimate D2E/DX2         !
 ! A50   A(14,20,21)      109.0543  109.171   108.9376 estimate D2E/DX2         !
 ! A51   A(14,20,22)      110.8273  110.9449  110.7095 estimate D2E/DX2         !
 ! A52   A(14,20,23)      109.3389  109.3413  109.3363 estimate D2E/DX2         !
 ! A53   A(21,20,22)      109.0822  108.8649  109.2994 estimate D2E/DX2         !
 ! A54   A(21,20,23)      109.0267  108.979   109.0743 estimate D2E/DX2         !
 ! A55   A(22,20,23)      109.4837  109.509   109.4583 estimate D2E/DX2         !
 ! A56   A(14,24,25)      110.2322  110.2085  110.2557 estimate D2E/DX2         !
 ! A57   A(14,24,26)      109.6031  109.73    109.4763 estimate D2E/DX2         !
 ! A58   A(14,24,27)      109.4073  109.4811  109.3333 estimate D2E/DX2         !
 ! A59   A(25,24,26)      109.3127  109.1599  109.4656 estimate D2E/DX2         !
 ! A60   A(25,24,27)      109.1923  109.327   109.0574 estimate D2E/DX2         !
 ! A61   A(26,24,27)      109.0731  108.912   109.234  estimate D2E/DX2         !
 ! A62   A(15,28,29)      110.8277  110.9452  110.7101 estimate D2E/DX2         !
 ! A63   A(15,28,30)      109.0543  109.1708  108.9377 estimate D2E/DX2         !
 ! A64   A(15,28,31)      109.3384  109.3407  109.3359 estimate D2E/DX2         !
 ! A65   A(29,28,30)      109.0821  108.8651  109.299  estimate D2E/DX2         !
 ! A66   A(29,28,31)      109.484   109.5088  109.4591 estimate D2E/DX2         !
 ! A67   A(30,28,31)      109.0266  108.9796  109.0736 estimate D2E/DX2         !
 ! A68   A(15,32,33)      109.6017  109.73    109.4735 estimate D2E/DX2         !
 ! A69   A(15,32,34)      110.2329  110.2091  110.2566 estimate D2E/DX2         !
 ! A70   A(15,32,35)      109.4084  109.482   109.3348 estimate D2E/DX2         !
 ! A71   A(33,32,34)      109.3122  109.1583  109.4663 estimate D2E/DX2         !
 ! A72   A(33,32,35)      109.0726  108.9124  109.2328 estimate D2E/DX2         !
 ! A73   A(34,32,35)      109.1927  109.3269  109.0583 estimate D2E/DX2         !
 ! A74   A(16,36,37)       67.6318  102.8141   27.517  estimate D2E/DX2         !
 ! A75   A(14,37,15)      160.1853  162.3433  160.8305 estimate D2E/DX2         !
 ! A76   A(14,37,16)       98.0873   97.9206   95.9607 estimate D2E/DX2         !
 ! A77   A(14,37,17)       94.1916   95.5319   92.535  estimate D2E/DX2         !
 ! A78   A(14,37,36)       97.5082   98.8234   91.3537 estimate D2E/DX2         !
 ! A79   A(14,37,39)       81.1693   81.9956   81.3582 estimate D2E/DX2         !
 ! A80   A(15,37,16)       98.0549   97.9038   95.955  estimate D2E/DX2         !
 ! A81   A(15,37,17)       94.8388   95.5056   92.5279 estimate D2E/DX2         !
 ! A82   A(15,37,36)       99.1849   98.8266   91.3486 estimate D2E/DX2         !
 ! A83   A(15,37,39)       81.1448   81.9971   81.3574 estimate D2E/DX2         !
 ! A84   A(16,37,36)       67.7831   24.6717  133.2952 estimate D2E/DX2         !
 ! A85   A(16,37,39)      171.3763  178.6325  154.0817 estimate D2E/DX2         !
 ! A86   A(17,37,36)       95.2349   49.6272  156.476  estimate D2E/DX2         !
 ! A87   A(17,37,39)      143.9151  153.6769  130.9009 estimate D2E/DX2         !
 ! A88   A(36,37,39)      120.8399  156.6958   72.6231 estimate D2E/DX2         !
 ! A89   A(1,39,2)        120.3366  120.0293  121.3161 estimate D2E/DX2         !
 ! A90   A(1,39,37)       119.7334  119.9738  119.0534 estimate D2E/DX2         !
 ! A91   A(2,39,37)       119.7536  119.972   119.0533 estimate D2E/DX2         !
 ! D1    D(8,1,3,5)      -172.6618 -171.8991 -173.7323 estimate D2E/DX2         !
 ! D2    D(8,1,3,6)         6.6929    7.3616    5.798  estimate D2E/DX2         !
 ! D3    D(39,1,3,5)        1.3474    1.3047    1.3376 estimate D2E/DX2         !
 ! D4    D(39,1,3,6)     -179.2978 -179.4347 -179.1321 estimate D2E/DX2         !
 ! D5    D(3,1,8,9)        86.554    83.5048   89.448  estimate D2E/DX2         !
 ! D6    D(3,1,8,10)      -33.1025  -35.9542  -30.2328 estimate D2E/DX2         !
 ! D7    D(3,1,8,14)     -156.6205 -159.9262 -154.0101 estimate D2E/DX2         !
 ! D8    D(39,1,8,9)      -87.8044  -90.0932  -85.8893 estimate D2E/DX2         !
 ! D9    D(39,1,8,10)     152.5391  150.4478  154.4299 estimate D2E/DX2         !
 ! D10   D(39,1,8,14)      29.0211   26.4758   30.6526 estimate D2E/DX2         !
 ! D11   D(3,1,39,2)       -4.3887   -4.617    -4.0304 estimate D2E/DX2         !
 ! D12   D(3,1,39,37)     170.7732  173.568   167.1739 estimate D2E/DX2         !
 ! D13   D(8,1,39,2)      170.4154  169.4549  171.7296 estimate D2E/DX2         !
 ! D14   D(8,1,39,37)     -14.4226  -12.3601  -17.0661 estimate D2E/DX2         !
 ! D15   D(11,2,4,5)      172.7363  171.9004  173.7333 estimate D2E/DX2         !
 ! D16   D(11,2,4,7)       -6.6439   -7.3607   -5.7968 estimate D2E/DX2         !
 ! D17   D(39,2,4,5)       -1.3342   -1.3047   -1.3376 estimate D2E/DX2         !
 ! D18   D(39,2,4,7)      179.2856  179.4342  179.1323 estimate D2E/DX2         !
 ! D19   D(4,2,11,12)     -86.5853  -83.5078  -89.4509 estimate D2E/DX2         !
 ! D20   D(4,2,11,13)      33.0738   35.9506   30.2293 estimate D2E/DX2         !
 ! D21   D(4,2,11,15)     156.5843  159.923   154.006  estimate D2E/DX2         !
 ! D22   D(39,2,11,12)     87.8299   90.0914   85.8875 estimate D2E/DX2         !
 ! D23   D(39,2,11,13)   -152.5109 -150.4502 -154.4323 estimate D2E/DX2         !
 ! D24   D(39,2,11,15)    -29.0005  -26.4777  -30.6557 estimate D2E/DX2         !
 ! D25   D(4,2,39,1)        4.3817    4.617     4.0304 estimate D2E/DX2         !
 ! D26   D(4,2,39,37)    -170.7792 -173.5681 -167.1739 estimate D2E/DX2         !
 ! D27   D(11,2,39,1)    -170.4755 -169.456  -171.7305 estimate D2E/DX2         !
 ! D28   D(11,2,39,37)     14.3635   12.3589   17.0653 estimate D2E/DX2         !
 ! D29   D(1,3,5,4)         1.6931    2.0203    1.2918 estimate D2E/DX2         !
 ! D30   D(1,3,5,38)     -179.4475 -179.3496 -179.5107 estimate D2E/DX2         !
 ! D31   D(6,3,5,4)      -177.6697 -177.2488 -178.2448 estimate D2E/DX2         !
 ! D32   D(6,3,5,38)        1.1897    1.3813    0.9527 estimate D2E/DX2         !
 ! D33   D(2,4,5,3)        -1.6998   -2.0203   -1.2918 estimate D2E/DX2         !
 ! D34   D(2,4,5,38)      179.4408  179.3496  179.5107 estimate D2E/DX2         !
 ! D35   D(7,4,5,3)       177.688   177.2493  178.2446 estimate D2E/DX2         !
 ! D36   D(7,4,5,38)       -1.1714   -1.3808   -0.953  estimate D2E/DX2         !
 ! D37   D(1,8,14,20)    -154.0003 -152.8484 -154.5592 estimate D2E/DX2         !
 ! D38   D(1,8,14,24)      89.2797   89.6545   87.4721 estimate D2E/DX2         !
 ! D39   D(1,8,14,37)     -28.9365  -26.9004  -28.8372 estimate D2E/DX2         !
 ! D40   D(9,8,14,20)     -35.9178  -34.9727  -36.662  estimate D2E/DX2         !
 ! D41   D(9,8,14,24)    -152.6378 -152.4698 -154.6306 estimate D2E/DX2         !
 ! D42   D(9,8,14,37)      89.146    90.9754   89.0601 estimate D2E/DX2         !
 ! D43   D(10,8,14,20)     79.863    80.7145   79.0853 estimate D2E/DX2         !
 ! D44   D(10,8,14,24)    -36.857   -36.7825  -38.8833 estimate D2E/DX2         !
 ! D45   D(10,8,14,37)   -155.0732 -153.3374 -155.1926 estimate D2E/DX2         !
 ! D46   D(2,11,15,28)    154.0035  152.851   154.5637 estimate D2E/DX2         !
 ! D47   D(2,11,15,32)    -89.2649  -89.6519  -87.4634 estimate D2E/DX2         !
 ! D48   D(2,11,15,37)     28.9634   26.9036   28.8429 estimate D2E/DX2         !
 ! D49   D(12,11,15,28)    35.9133   34.9753   36.6658 estimate D2E/DX2         !
 ! D50   D(12,11,15,32)   152.6449  152.4724  154.6387 estimate D2E/DX2         !
 ! D51   D(12,11,15,37)   -89.1269  -90.9721  -89.055  estimate D2E/DX2         !
 ! D52   D(13,11,15,28)   -79.8697  -80.7114  -79.0826 estimate D2E/DX2         !
 ! D53   D(13,11,15,32)    36.8618   36.7857   38.8903 estimate D2E/DX2         !
 ! D54   D(13,11,15,37)   155.0901  153.3412  155.1966 estimate D2E/DX2         !
 ! D55   D(8,14,20,21)   -177.4526 -176.0846 -177.0111 estimate D2E/DX2         !
 ! D56   D(8,14,20,22)    -57.3569  -56.11    -56.7945 estimate D2E/DX2         !
 ! D57   D(8,14,20,23)     63.4204   64.7754   63.875  estimate D2E/DX2         !
 ! D58   D(24,14,20,21)   -57.876   -58.6774  -59.2829 estimate D2E/DX2         !
 ! D59   D(24,14,20,22)    62.2196   61.2973   60.9336 estimate D2E/DX2         !
 ! D60   D(24,14,20,23)  -177.003  -177.8174 -178.3969 estimate D2E/DX2         !
 ! D61   D(37,14,20,21)    62.2595   63.0331   61.8846 estimate D2E/DX2         !
 ! D62   D(37,14,20,22)  -177.6449 -176.9922 -177.8988 estimate D2E/DX2         !
 ! D63   D(37,14,20,23)   -56.8675  -56.1069  -57.2294 estimate D2E/DX2         !
 ! D64   D(8,14,24,25)     61.1688   62.8988   61.3827 estimate D2E/DX2         !
 ! D65   D(8,14,24,26)   -178.4719 -176.8653 -178.1348 estimate D2E/DX2         !
 ! D66   D(8,14,24,27)    -58.9178  -57.386   -58.5058 estimate D2E/DX2         !
 ! D67   D(20,14,24,25)   -56.0741  -54.9594  -57.0323 estimate D2E/DX2         !
 ! D68   D(20,14,24,26)    64.2851   65.2764   63.4503 estimate D2E/DX2         !
 ! D69   D(20,14,24,27)  -176.1607 -175.2443 -176.9208 estimate D2E/DX2         !
 ! D70   D(37,14,24,25)   179.1608  178.8261  177.3955 estimate D2E/DX2         !
 ! D71   D(37,14,24,26)   -60.4799  -60.938   -62.122  estimate D2E/DX2         !
 ! D72   D(37,14,24,27)    59.0742   58.5413   57.507  estimate D2E/DX2         !
 ! D73   D(8,14,37,15)     44.4785   41.8715   42.0291 estimate D2E/DX2         !
 ! D74   D(8,14,37,16)   -171.2411 -164.6436  170.2    estimate D2E/DX2         !
 ! D75   D(8,14,37,17)    161.4092  170.3386  147.2062 estimate D2E/DX2         !
 ! D76   D(8,14,37,36)   -102.7402 -139.7184  -55.9999 estimate D2E/DX2         !
 ! D77   D(8,14,37,39)     17.4453   16.7346   16.1962 estimate D2E/DX2         !
 ! D78   D(20,14,37,15)   164.7642  163.6131  164.0824 estimate D2E/DX2         !
 ! D79   D(20,14,37,16)   -50.9554  -42.9021  -67.7468 estimate D2E/DX2         !
 ! D80   D(20,14,37,17)   -78.3051  -67.9199  -90.7405 estimate D2E/DX2         !
 ! D81   D(20,14,37,36)    17.5454  -17.9768   66.0534 estimate D2E/DX2         !
 ! D82   D(20,14,37,39)   137.7309  138.4762  138.2494 estimate D2E/DX2         !
 ! D83   D(24,14,37,15)   -75.7768  -74.6378  -74.4241 estimate D2E/DX2         !
 ! D84   D(24,14,37,16)    68.5036   78.8471   53.7468 estimate D2E/DX2         !
 ! D85   D(24,14,37,17)    41.1539   53.8293   30.753  estimate D2E/DX2         !
 ! D86   D(24,14,37,36)   137.0045  103.7723 -172.4531 estimate D2E/DX2         !
 ! D87   D(24,14,37,39)  -102.81    -99.7747 -100.2571 estimate D2E/DX2         !
 ! D88   D(11,15,28,29)    57.3661   56.1096   56.7942 estimate D2E/DX2         !
 ! D89   D(11,15,28,30)   177.4618  176.0845  177.0107 estimate D2E/DX2         !
 ! D90   D(11,15,28,31)   -63.4116  -64.7753  -63.8764 estimate D2E/DX2         !
 ! D91   D(32,15,28,29)   -62.219   -61.2973  -60.9364 estimate D2E/DX2         !
 ! D92   D(32,15,28,30)    57.8767   58.6777   59.2801 estimate D2E/DX2         !
 ! D93   D(32,15,28,31)   177.0032  177.8179  178.393  estimate D2E/DX2         !
 ! D94   D(37,15,28,29)   177.6326  176.9903  177.8988 estimate D2E/DX2         !
 ! D95   D(37,15,28,30)   -62.2717  -63.0348  -61.8847 estimate D2E/DX2         !
 ! D96   D(37,15,28,31)    56.8549   56.1055   57.2282 estimate D2E/DX2         !
 ! D97   D(11,15,32,33)   178.4806  176.8667  178.1298 estimate D2E/DX2         !
 ! D98   D(11,15,32,34)   -61.1611  -62.899   -61.388  estimate D2E/DX2         !
 ! D99   D(11,15,32,35)    58.9272   57.3865   58.5031 estimate D2E/DX2         !
 ! D100  D(28,15,32,33)   -64.2934  -65.2745  -63.4527 estimate D2E/DX2         !
 ! D101  D(28,15,32,34)    56.0649   54.9598   57.0295 estimate D2E/DX2         !
 ! D102  D(28,15,32,35)   176.1532  175.2453  176.9206 estimate D2E/DX2         !
 ! D103  D(37,15,32,33)    60.4766   60.9409   62.1175 estimate D2E/DX2         !
 ! D104  D(37,15,32,34)  -179.1652 -178.8249 -177.4003 estimate D2E/DX2         !
 ! D105  D(37,15,32,35)   -59.0769  -58.5393  -57.5092 estimate D2E/DX2         !
 ! D106  D(11,15,37,14)   -44.5245  -41.8745  -42.0341 estimate D2E/DX2         !
 ! D107  D(11,15,37,16)   171.1918  164.6395 -170.2057 estimate D2E/DX2         !
 ! D108  D(11,15,37,17)  -161.3543 -170.3447 -147.2124 estimate D2E/DX2         !
 ! D109  D(11,15,37,36)   102.5353  139.7154   55.9958 estimate D2E/DX2         !
 ! D110  D(11,15,37,39)   -17.4893  -16.7377  -16.2011 estimate D2E/DX2         !
 ! D111  D(28,15,37,14)  -164.7716 -163.6158 -164.0875 estimate D2E/DX2         !
 ! D112  D(28,15,37,16)    50.9447   42.8982   67.7409 estimate D2E/DX2         !
 ! D113  D(28,15,37,17)    78.3986   67.9139   90.7343 estimate D2E/DX2         !
 ! D114  D(28,15,37,36)   -17.7117   17.9741  -66.0576 estimate D2E/DX2         !
 ! D115  D(28,15,37,39)  -137.7364 -138.479  -138.2545 estimate D2E/DX2         !
 ! D116  D(32,15,37,14)    75.748    74.6339   74.4184 estimate D2E/DX2         !
 ! D117  D(32,15,37,16)   -68.5357  -78.8521  -53.7532 estimate D2E/DX2         !
 ! D118  D(32,15,37,17)   -41.0818  -53.8363  -30.7599 estimate D2E/DX2         !
 ! D119  D(32,15,37,36)  -137.1922 -103.7761  172.4482 estimate D2E/DX2         !
 ! D120  D(32,15,37,39)   102.7832   99.7707  100.2514 estimate D2E/DX2         !
 ! D121  D(18,16,17,37)  -121.7057 -119.5423 -123.4157 estimate D2E/DX2         !
 ! D122  D(19,16,17,37)   121.6155  119.5227  123.4139 estimate D2E/DX2         !
 ! D123  D(36,16,17,37)    -1.4085   -0.0075    0.0035 estimate D2E/DX2         !
 ! D124  D(17,16,36,37)     1.9745    0.0081   -0.0103 estimate D2E/DX2         !
 ! D125  D(18,16,36,37)   121.6153  119.8581  122.9137 estimate D2E/DX2         !
 ! D126  D(19,16,36,37)  -120.796  -119.8342 -122.9281 estimate D2E/DX2         !
 ! D127  D(17,16,37,14)   -83.4934  -86.0845  -82.4808 estimate D2E/DX2         !
 ! D128  D(17,16,37,15)    84.977    86.0581   82.4758 estimate D2E/DX2         !
 ! D129  D(17,16,37,36)  -178.3422 -179.9912  179.9912 estimate D2E/DX2         !
 ! D130  D(17,16,37,39)     0.9307    0.3064    0.0043 estimate D2E/DX2         !
 ! D131  D(18,16,37,14)    16.6943    6.5589   33.8604 estimate D2E/DX2         !
 ! D132  D(18,16,37,15)  -174.8353  178.7015 -161.1831 estimate D2E/DX2         !
 ! D133  D(18,16,37,36)   -78.1545  -87.3478  -63.6676 estimate D2E/DX2         !
 ! D134  D(18,16,37,39)   101.1184   92.9498  116.3454 estimate D2E/DX2         !
 ! D135  D(19,16,37,14)   174.3388 -178.7309  161.1789 estimate D2E/DX2         !
 ! D136  D(19,16,37,15)   -17.1908   -6.5883  -33.8646 estimate D2E/DX2         !
 ! D137  D(19,16,37,36)    79.49     87.3624   63.6509 estimate D2E/DX2         !
 ! D138  D(19,16,37,39)  -101.2371  -92.34   -116.3361 estimate D2E/DX2         !
 ! D139  D(16,17,37,14)    99.4895   96.8931   99.2463 estimate D2E/DX2         !
 ! D140  D(16,17,37,15)   -98.1664  -96.9099  -99.2486 estimate D2E/DX2         !
 ! D141  D(16,17,37,36)     1.5411    0.0048   -0.016  estimate D2E/DX2         !
 ! D142  D(16,17,37,39)  -179.7631 -179.9835 -179.9975 estimate D2E/DX2         !
 ! D143  D(16,36,37,14)   -95.7073  -89.7796  -99.4963 estimate D2E/DX2         !
 ! D144  D(16,36,37,15)    95.0073   89.7324   99.4836 estimate D2E/DX2         !
 ! D145  D(16,36,37,17)    -0.7676   -0.0049    0.0086 estimate D2E/DX2         !
 ! D146  D(16,36,37,39)  -179.873   179.982   179.994  estimate D2E/DX2         !
 ! D147  D(14,37,39,1)     -2.0487   -2.8296    0.1381 estimate D2E/DX2         !
 ! D148  D(14,37,39,2)    173.1417  175.3564  171.5436 estimate D2E/DX2         !
 ! D149  D(15,37,39,1)   -173.0781 -175.3537 -171.5404 estimate D2E/DX2         !
 ! D150  D(15,37,39,2)      2.1123    2.8323   -0.1349 estimate D2E/DX2         !
 ! D151  D(16,37,39,1)    -87.753   -89.4115  -85.7085 estimate D2E/DX2         !
 ! D152  D(16,37,39,2)     87.4374   88.7745   85.697  estimate D2E/DX2         !
 ! D153  D(17,37,39,1)    -87.0243  -89.12    -85.7063 estimate D2E/DX2         !
 ! D154  D(17,37,39,2)     88.1661   89.0661   85.6992 estimate D2E/DX2         !
 ! D155  D(36,37,39,1)     91.4631   90.9025   94.3014 estimate D2E/DX2         !
 ! D156  D(36,37,39,2)    -93.3465  -90.9114  -94.293  estimate D2E/DX2         !
 --------------------------------------------------------------------------------
 Trust Radius=3.00D-01 FncErr=1.00D-07 GrdErr=1.00D-06 EigMax=2.50D+02 EigMin=1.00D-04
 Number of steps in this run=    234 maximum allowed number of steps=    234.
 Search for a saddle point of order  1.
 GradGradGradGradGradGradGradGradGradGradGradGradGradGradGradGradGradGrad

                          Input orientation:                          
 ---------------------------------------------------------------------
 Center     Atomic      Atomic             Coordinates (Angstroms)
 Number     Number       Type             X           Y           Z
 ---------------------------------------------------------------------
      1          6           0        1.885438    1.208766   -0.142098
      2          6           0        1.885310   -1.211397   -0.143176
      3          6           0        3.263696    1.210838    0.009217
      4          6           0        3.263636   -1.213462    0.008005
      5          6           0        3.947245   -0.001356    0.101497
      6          1           0        3.817585    2.142518    0.046253
      7          1           0        3.817528   -2.145165    0.044418
      8          6           0        1.004182    2.395774   -0.409999
      9          1           0        0.960118    2.563552   -1.487509
     10          1           0        1.357659    3.322752    0.050419
     11          6           0        1.004175   -2.398020   -0.410607
     12          1           0        0.959411   -2.565862   -1.488080
     13          1           0        1.357911   -3.325005    0.049603
     14          7           0       -0.403830    2.121809    0.042427
     15          7           0       -0.403719   -2.123756    0.042905
     16          6           0       -3.062958   -0.001627    0.311126
     17          1           0       -2.661173    0.013076    1.377830
     18          1           0       -3.679830    0.897111    0.247378
     19          1           0       -3.680552   -0.899293    0.239779
     20          6           0       -1.303209    2.964614   -0.761185
     21          1           0       -2.325744    2.817565   -0.421119
     22          1           0       -1.040394    4.022864   -0.658456
     23          1           0       -1.231810    2.673046   -1.806040
     24          6           0       -0.598482    2.513505    1.453643
     25          1           0       -0.421175    3.586843    1.576564
     26          1           0       -1.614729    2.279611    1.760174
     27          1           0        0.097896    1.961893    2.081171
     28          6           0       -1.303249   -2.966651   -0.760447
     29          1           0       -1.040346   -4.024879   -0.657751
     30          1           0       -2.325709   -2.819655   -0.420125
     31          1           0       -1.232134   -2.675106   -1.805330
     32          6           0       -0.597652   -2.515100    1.454313
     33          1           0       -1.613741   -2.281084    1.761291
     34          1           0       -0.420343   -3.588412    1.577413
     35          1           0        0.099050   -1.963368    2.081360
     36          1           0       -1.705217    0.025204   -1.624017
     37         77           0       -0.739947   -0.000950   -0.113715
     38          1           0        5.022017   -0.001444    0.228644
     39          6           0        1.192104   -0.001327   -0.172416
 ---------------------------------------------------------------------
                    Distance matrix (angstroms):
                    1          2          3          4          5
     1  C    0.000000
     2  C    2.420163   0.000000
     3  C    1.386540   2.791127   0.000000
     4  C    2.790904   1.386594   2.424300   0.000000
     5  C    2.403077   2.403256   1.394694   1.394726   0.000000
     6  H    2.154196   3.875347   1.084524   3.401606   2.148502
     7  H    3.875127   2.154201   3.401577   1.084524   2.148488
     8  C    1.502455   3.722803   2.585578   4.278603   3.830076
     9  H    2.121743   4.112596   3.062106   4.669967   4.245777
    10  H    2.187362   4.568851   2.845146   4.920547   4.214055
    11  C    3.722583   1.501996   4.278498   2.585262   3.829870
    12  H    4.113029   2.121469   4.670662   3.062141   4.246245
    13  H    4.568381   2.186928   4.920113   2.844667   4.213547
    14  N    2.471528   4.047823   3.779116   4.957371   4.841815
    15  N    4.047242   2.471170   4.956872   3.778803   4.841374
    16  C    5.114400   5.114224   6.448858   6.448738   7.013337
    17  H    4.940803   4.948060   6.197726   6.203562   6.730559
    18  H    5.587579   5.963986   6.954689   7.261098   7.681198
    19  H    5.964058   5.587743   7.261431   6.955154   7.681712
    20  C    3.692390   5.290336   4.952360   6.237311   6.091672
    21  H    4.516652   5.834617   5.831689   6.904672   6.897089
    22  H    4.092221   6.018533   5.184445   6.810871   6.453559
    23  H    3.824926   5.250757   5.063870   6.213271   6.133004
    24  C    3.227784   4.753308   4.324317   5.558426   5.368096
    25  H    3.732227   5.594683   4.656205   6.251491   5.842439
    26  H    4.125108   5.297183   5.292179   6.250608   6.236151
    27  H    2.950497   4.267591   3.857378   4.939920   4.752993
    28  C    5.290009   3.691727   6.237049   4.951831   6.091273
    29  H    6.018069   4.091446   6.810459   5.183778   6.453003
    30  H    5.834315   4.516179   6.904394   5.831289   6.896727
    31  H    5.250720   3.824089   6.213343   5.063254   6.132772
    32  C    4.751994   3.227493   5.557061   4.323843   5.367039
    33  H    5.295866   4.124873   6.249213   5.291751   6.235113
    34  H    5.593411   3.731844   6.250134   4.655655   5.841328
    35  H    4.265838   2.950380   4.938050   3.856911   4.751626
    36  H    4.060752   4.076021   5.363140   5.374689   5.910027
    37  Ir   2.890825   2.891024   4.184818   4.184935   4.692130
    38  H    3.382334   3.382480   2.146968   2.146992   1.082267
    39  C    1.394975   1.394869   2.407037   2.406879   2.768723
                    6          7          8          9         10
     6  H    0.000000
     7  H    4.287684   0.000000
     8  C    2.861388   5.361113   0.000000
     9  H    3.270293   5.716958   1.091384   0.000000
    10  H    2.728407   5.995757   1.093718   1.760582   0.000000
    11  C    5.361015   2.861107   4.793794   5.077288   5.750194
    12  H    5.717707   3.270225   5.077607   5.129413   6.099291
    13  H    5.995316   2.727960   5.750101   6.098856   6.647756
    14  N    4.221468   6.002244   1.504077   2.096710   2.131941
    15  N    6.001709   4.221302   4.755361   5.115962   5.724243
    16  C    7.211754   7.211587   4.775896   5.099056   5.537266
    17  H    6.948520   6.957698   4.723178   5.275305   5.372801
    18  H    7.602811   8.093641   4.961664   5.226469   5.594535
    19  H    8.093956   7.603391   5.764236   6.042403   6.576100
    20  C    5.248841   7.278790   2.402283   2.410610   2.804850
    21  H    6.197953   7.911081   3.356552   3.463899   3.747669
    22  H    5.256641   7.882768   2.624776   2.611316   2.596790
    23  H    5.404520   7.220469   2.650561   2.217656   3.251755
    24  C    4.649734   6.571930   2.460803   3.328980   2.539764
    25  H    4.732337   7.291776   2.719691   3.513351   2.358625
    26  H    5.697926   7.213313   3.403210   4.154263   3.584200
    27  H    4.243772   5.903554   2.686174   3.720335   2.750071
    28  C    7.278552   5.248333   5.848304   6.019518   6.877102
    29  H    7.882379   5.255978   6.742868   6.935256   7.761418
    30  H    7.910799   6.197588   6.187809   6.396474   7.177588
    31  H    7.220632   5.403841   5.715058   5.687751   6.791548
    32  C    6.570416   4.649567   5.491650   6.072369   6.314640
    33  H    7.211721   5.697789   5.782821   6.375731   6.569572
    34  H    7.290270   4.732080   6.464484   7.010425   7.297751
    35  H    5.901480   4.243732   5.101789   5.828487   5.801023
    36  H    6.146069   6.163999   3.799248   3.683185   4.801954
    37  Ir   5.038963   5.039171   2.978936   3.369599   3.933686
    38  H    2.465866   2.465821   4.722025   5.101315   4.950713
    39  C    3.396621   3.396456   2.416165   2.891693   3.335650
                   11         12         13         14         15
    11  C    0.000000
    12  H    1.091386   0.000000
    13  H    1.093719   1.760560   0.000000
    14  N    4.755689   5.116164   5.724645   0.000000
    15  N    1.504348   2.097021   2.132225   4.245565   0.000000
    16  C    4.775477   5.098225   5.536905   3.413523   3.412759
    17  H    4.737792   5.288950   5.390733   3.365361   3.382923
    18  H    5.764612   6.043721   6.576033   3.503436   4.460981
    19  H    4.961437   5.224194   5.595208   4.461267   3.503669
    20  C    5.848485   6.019467   6.877372   1.471392   5.229451
    21  H    6.187956   6.396243   7.177886   2.095878   5.322232
    22  H    6.743104   6.935330   7.761726   2.123785   6.219180
    23  H    5.715118   5.687592   6.791662   2.099105   5.207076
    24  C    5.492451   6.072951   6.315615   1.477446   4.851010
    25  H    6.465220   7.010980   7.298657   2.121368   5.912982
    26  H    5.783700   6.376203   6.570720   2.107565   4.879057
    27  H    5.102857   5.829436   5.802258   2.105654   4.593329
    28  C    2.402069   2.410335   2.804705   5.229339   1.471394
    29  H    2.624465   2.610978   2.596499   6.219098   2.123789
    30  H    3.356486   3.463662   3.747676   5.322183   2.095881
    31  H    2.650115   2.217082   3.251381   5.206792   2.099103
    32  C    2.461196   3.329369   2.540351   4.850971   1.477441
    33  H    3.403572   4.154590   3.584740   4.878918   2.107547
    34  H    2.720019   3.513770   2.359189   5.912958   2.121369
    35  H    2.686647   3.720769   2.750786   4.593344   2.105659
    36  H    3.832125   3.719185   4.838145   2.977649   3.015054
    37  Ir   2.979271   3.369788   3.934084   2.154869   2.154967
    38  H    4.721787   5.101779   4.950130   5.829469   5.829007
    39  C    2.415821   2.891705   3.335209   2.664746   2.664155
                   16         17         18         19         20
    16  C    0.000000
    17  H    1.139958   0.000000
    18  H    1.091937   1.759859   0.000000
    19  H    1.091933   1.779525   1.796421   0.000000
    20  C    3.611808   3.889863   3.307582   4.645801   0.000000
    21  H    3.004582   3.348715   2.443068   4.010901   1.087588
    22  H    4.607319   4.780354   4.190166   5.657287   1.095225
    23  H    3.871611   4.388114   3.655581   4.789918   1.087120
    24  C    3.702010   3.242312   3.682732   4.756029   2.367616
    25  H    4.632221   4.222429   4.429473   5.704030   2.574923
    26  H    3.066130   2.525553   2.909382   4.084686   2.631259
    27  H    4.120615   3.450368   4.332179   5.084661   3.323783
    28  C    3.610570   3.910877   4.646775   3.305449   5.931266
    29  H    4.606110   4.803722   5.657926   4.188739   6.995199
    30  H    3.003256   3.371875   4.011678   2.441078   5.883842
    31  H    3.870245   4.404654   4.792240   3.651127   5.736003
    32  C    3.701643   3.264298   4.753914   3.686488   5.952606
    33  H    3.065801   2.550946   4.081861   2.914799   5.828951
    34  H    4.631622   4.246394   5.702032   4.432785   7.013604
    35  H    4.120734   3.467004   5.081906   4.336942   5.859300
    36  H    2.364098   3.150410   2.856823   2.868863   3.089696
    37  Ir   2.361540   2.432285   3.095128   3.095017   3.087241
    38  H    8.085396   7.768671   8.748137   8.748769   7.055902
    39  C    4.282449   4.153458   4.971837   4.971823   3.920464
                   21         22         23         24         25
    21  H    0.000000
    22  H    1.777976   0.000000
    23  H    1.770757   1.782021   0.000000
    24  C    2.567221   2.633327   3.324468   0.000000
    25  H    2.865294   2.359843   3.596410   1.094807   0.000000
    26  H    2.356475   3.036208   3.608226   1.086934   1.779646
    27  H    3.587152   3.612320   4.169444   1.087662   1.778911
    28  C    5.883689   6.995200   5.736249   5.952395   7.013413
    29  H    6.966153   8.047744   6.798340   6.885034   7.957000
    30  H    5.637220   6.966269   5.769501   5.910746   6.975474
    31  H    5.769008   6.798153   5.348152   6.159878   7.162881
    32  C    5.911080   6.885114   6.160269   5.028605   6.105719
    33  H    5.591608   6.776700   6.116790   4.910548   5.990735
    34  H    6.975759   7.957078   7.163245   6.105771   7.175255
    35  H    5.916025   6.681310   6.195111   4.574163   5.597347
    36  H    3.103111   4.166004   2.695981   4.109561   4.957596
    37  Ir   3.248581   4.071621   3.202522   2.966329   3.978809
    38  H    7.896746   7.330405   7.099521   6.278184   6.657405
    39  C    4.514782   4.627569   3.961863   3.489218   4.305411
                   26         27         28         29         30
    26  H    0.000000
    27  H    1.771177   0.000000
    28  C    5.828707   5.859057   0.000000
    29  H    6.776642   6.681222   1.095222   0.000000
    30  H    5.591217   5.915534   1.087590   1.777974   0.000000
    31  H    6.116242   6.194807   1.087123   1.782024   1.770761
    32  C    4.910932   4.573862   2.367895   2.633671   2.567577
    33  H    4.560696   4.586380   2.631648   3.036670   2.357018
    34  H    5.991131   5.597162   2.575208   2.360268   2.865583
    35  H    4.587273   3.925261   3.323987   3.612586   3.587494
    36  H    4.067344   4.553064   3.139829   4.216503   3.150808
    37  Ir   3.078582   3.061415   3.087224   4.071636   3.248634
    38  H    7.182980   5.615471   7.055476   7.329800   7.896347
    39  C    4.100719   3.182794   3.919913   4.626917   4.514349
                   31         32         33         34         35
    31  H    0.000000
    32  C    3.324672   0.000000
    33  H    3.608554   1.086938   0.000000
    34  H    3.596677   1.094801   1.779639   0.000000
    35  H    4.169531   1.087654   1.771169   1.778904   0.000000
    36  H    2.747427   4.141975   4.097272   4.995825   4.575982
    37  Ir   3.202330   2.966464   3.078664   3.978937   3.061593
    38  H    7.099291   6.277055   7.181856   6.656185   5.614028
    39  C    3.961368   3.488342   4.099912   4.304540   3.181804
                   36         37         38         39
    36  H    0.000000
    37  Ir   1.792607   0.000000
    38  H    6.977731   5.772127   0.000000
    39  C    3.240728   1.932943   3.850855   0.000000
 Stoichiometry    C13H23IrN2
 Framework group  C1[X(C13H23IrN2)]
 Deg. of freedom   111
 Full point group                 C1      NOp   1
 Largest Abelian subgroup         C1      NOp   1
 Largest concise Abelian subgroup C1      NOp   1
                         Standard orientation:                         
 ---------------------------------------------------------------------
 Center     Atomic      Atomic             Coordinates (Angstroms)
 Number     Number       Type             X           Y           Z
 ---------------------------------------------------------------------
      1          6           0       -1.916311   -1.218567   -0.099062
      2          6           0       -1.927485    1.201569   -0.100267
      3          6           0       -3.291865   -1.227045    0.074924
      4          6           0       -3.303130    1.197229    0.073587
      5          6           0       -3.979447   -0.018038    0.178384
      6          1           0       -3.840720   -2.161292    0.121122
      7          1           0       -3.860686    2.126345    0.119067
      8          6           0       -1.034060   -2.401489   -0.381376
      9          1           0       -1.006959   -2.569197   -1.459457
     10          1           0       -1.375582   -3.330045    0.084847
     11          6           0       -1.056416    2.392253   -0.382230
     12          1           0       -1.030181    2.560163   -1.460303
     13          1           0       -1.406845    3.317638    0.083694
     14          7           0        0.379918   -2.120905    0.047792
     15          7           0        0.360018    2.124613    0.048054
     16          6           0        3.033179    0.014937    0.272564
     17          1           0        2.649084   -0.001501    1.345739
     18          1           0        3.653102   -0.880924    0.198714
     19          1           0        3.645322    0.915463    0.191012
     20          6           0        1.269864   -2.959612   -0.770476
     21          1           0        2.297163   -2.807754   -0.447299
     22          1           0        1.013714   -4.019063   -0.663379
     23          1           0        1.179914   -2.668514   -1.814028
     24          6           0        0.599602   -2.511509    1.455632
     25          1           0        0.429350   -3.585646    1.581511
     26          1           0        1.619657   -2.272841    1.745377
     27          1           0       -0.088914   -1.963069    2.094512
     28          6           0        1.242259    2.971589   -0.770043
     29          1           0        0.976151    4.028593   -0.663086
     30          1           0        2.270858    2.829404   -0.446594
     31          1           0        1.155311    2.679581   -1.813599
     32          6           0        0.575336    2.517038    1.456057
     33          1           0        1.597421    2.287800    1.746276
     34          1           0        0.395074    3.589527    1.582005
     35          1           0       -0.108368    1.962144    2.094519
     36          1           0        1.643901   -0.018470   -1.639960
     37         77           0        0.703517    0.003378   -0.113972
     38          1           0       -5.051970   -0.022944    0.323209
     39          6           0       -1.229220   -0.005260   -0.140854
 ---------------------------------------------------------------------
 Rotational constants (GHZ):           0.5259580           0.4732725           0.2793862
 Standard basis: def2TZVPP (5D, 7F)
 There are   956 symmetry adapted cartesian basis functions of A   symmetry.
 There are   843 symmetry adapted basis functions of A   symmetry.
   843 basis functions,  1256 primitive gaussians,   956 cartesian basis functions
    66 alpha electrons       66 beta electrons
       nuclear repulsion energy      1383.7428430085 Hartrees.
 NAtoms=   39 NActive=   39 NUniq=   39 SFac= 1.00D+00 NAtFMM=   60 NAOKFM=F Big=F
 Integral buffers will be    131072 words long.
 Raffenetti 2 integral format.
 Two-electron integral symmetry is turned on.
 Nuclear repulsion after empirical dispersion term =     1383.6993418596 Hartrees.
 ------------------------------------------------------------------------------
 Polarizable Continuum Model (PCM)
 =================================
 Model                : PCM.
 Atomic radii         : UFF (Universal Force Field).
 Polarization charges : Total charges.
 Charge compensation  : None.
 Solution method      : On-the-fly selection.
 Cavity type          : Scaled VdW (van der Waals Surface) (Alpha=1.100).
 Cavity algorithm     : GePol (No added spheres)
                        Default sphere list used, NSphG=   39.
                        Lebedev-Laikov grids with approx.  5.0 points / Ang**2.
                        Smoothing algorithm: York/Karplus (Gamma=1.0000).
                        Polarization charges: spherical gaussians, with
                                              point-specific exponents (IZeta= 3).
                        Self-potential: point-specific (ISelfS= 7).
                        Self-field    : sphere-specific E.n sum rule (ISelfD= 2).
 1st derivatives      : Analytical E(r).r(x)/FMM algorithm (CHGder, D1EAlg=3).
                        Cavity 1st derivative terms included.
 Solvent              : Dichloromethane, Eps=   8.930000 Eps(inf)=   2.028346
 ------------------------------------------------------------------------------
 One-electron integrals computed using PRISM.
   1 Symmetry operations used in ECPInt.
 ECPInt:  NShTT=   51040 NPrTT=  129700 LenC2=   46697 LenP2D=   91557.
 LDataN:  DoStor=T MaxTD1= 9 Len=  602
 Number of processors reduced to  41 by ecpmxn.
 NBasis=   843 RedAO= T EigKep=  5.92D-06  NBF=   843
 NBsUse=   843 1.00D-06 EigRej= -1.00D+00 NBFU=   843
 Defaulting to unpruned grid for atomic number  77.
 ExpMin= 5.00D-02 ExpMax= 1.97D+04 ExpMxC= 6.73D+02 IAcc=3 IRadAn=         5 AccDes= 0.00D+00
 Harris functional with IExCor= 4639 and IRadAn=       5 diagonalized for initial guess.
 HarFok:  IExCor= 4639 AccDes= 0.00D+00 IRadAn=         5 IDoV= 1 UseB2=F ITyADJ=14
 ICtDFT=  3500011 ScaDFX=  1.000000  1.000000  1.000000  1.000000
 Defaulting to unpruned grid for atomic number  77.
 FoFCou: FMM=F IPFlag=           0 FMFlag=      100000 FMFlg1=           0
         NFxFlg=           0 DoJE=T BraDBF=F KetDBF=T FulRan=T
         wScrn=  0.000000 ICntrl=       500 IOpCl=  0 I1Cent=   200000004 NGrid=           0
         NMat0=    1 NMatS0=      1 NMatT0=    0 NMatD0=    1 NMtDS0=    0 NMtDT0=    0
 Petite list used in FoFCou.
 Requested convergence on RMS density matrix=1.00D-08 within 128 cycles.
 Requested convergence on MAX density matrix=1.00D-06.
 Requested convergence on             energy=1.00D-06.
 No special actions if energy rises.
 Defaulting to unpruned grid for atomic number  77.
 Defaulting to unpruned grid for atomic number  77.
 Defaulting to unpruned grid for atomic number  77.
 Defaulting to unpruned grid for atomic number  77.
 Defaulting to unpruned grid for atomic number  77.
 Defaulting to unpruned grid for atomic number  77.
 Defaulting to unpruned grid for atomic number  77.
 Defaulting to unpruned grid for atomic number  77.
 Defaulting to unpruned grid for atomic number  77.
 Defaulting to unpruned grid for atomic number  77.
 Defaulting to unpruned grid for atomic number  77.
 Defaulting to unpruned grid for atomic number  77.
 Defaulting to unpruned grid for atomic number  77.
 Defaulting to unpruned grid for atomic number  77.
 Defaulting to unpruned grid for atomic number  77.
 Defaulting to unpruned grid for atomic number  77.
 Defaulting to unpruned grid for atomic number  77.
 Defaulting to unpruned grid for atomic number  77.
 Defaulting to unpruned grid for atomic number  77.
 Defaulting to unpruned grid for atomic number  77.
 Defaulting to unpruned grid for atomic number  77.
 Defaulting to unpruned grid for atomic number  77.
 Defaulting to unpruned grid for atomic number  77.
 Defaulting to unpruned grid for atomic number  77.
 Defaulting to unpruned grid for atomic number  77.
 Defaulting to unpruned grid for atomic number  77.
 Defaulting to unpruned grid for atomic number  77.
 Defaulting to unpruned grid for atomic number  77.
 Defaulting to unpruned grid for atomic number  77.
 Defaulting to unpruned grid for atomic number  77.
 Defaulting to unpruned grid for atomic number  77.
 Defaulting to unpruned grid for atomic number  77.
 Defaulting to unpruned grid for atomic number  77.
 Defaulting to unpruned grid for atomic number  77.
 Defaulting to unpruned grid for atomic number  77.
 Defaulting to unpruned grid for atomic number  77.
 Defaulting to unpruned grid for atomic number  77.
 Defaulting to unpruned grid for atomic number  77.
 Defaulting to unpruned grid for atomic number  77.
 Defaulting to unpruned grid for atomic number  77.
 Defaulting to unpruned grid for atomic number  77.
 Defaulting to unpruned grid for atomic number  77.
 Defaulting to unpruned grid for atomic number  77.
 Defaulting to unpruned grid for atomic number  77.
 Defaulting to unpruned grid for atomic number  77.
 Defaulting to unpruned grid for atomic number  77.
 Defaulting to unpruned grid for atomic number  77.
 Defaulting to unpruned grid for atomic number  77.
 Inv3:  Mode=1 IEnd=    18287883.
 Iteration    1 A*A^-1 deviation from unit magnitude is 3.66D-15 for   1034.
 Iteration    1 A*A^-1 deviation from orthogonality  is 2.26D-15 for   2171   1099.
 Iteration    1 A^-1*A deviation from unit magnitude is 3.11D-15 for    873.
 Iteration    1 A^-1*A deviation from orthogonality  is 1.68D-15 for   2268   1103.
 Error on total polarization charges =  0.01812
 SCF Done:  E(RwB97XD) =  -723.141268379     A.U. after   17 cycles
            NFock= 17  Conv=0.76D-08     -V/T= 2.1113

 **********************************************************************

            Population analysis using the SCF Density.

 **********************************************************************

 Orbital symmetries:
       Occupied  (A) (A) (A) (A) (A) (A) (A) (A) (A) (A) (A) (A)
                 (A) (A) (A) (A) (A) (A) (A) (A) (A) (A) (A) (A)
                 (A) (A) (A) (A) (A) (A) (A) (A) (A) (A) (A) (A)
                 (A) (A) (A) (A) (A) (A) (A) (A) (A) (A) (A) (A)
                 (A) (A) (A) (A) (A) (A) (A) (A) (A) (A) (A) (A)
                 (A) (A) (A) (A) (A) (A)
       Virtual   (A) (A) (A) (A) (A) (A) (A) (A) (A) (A) (A) (A)
                 (A) (A) (A) (A) (A) (A) (A) (A) (A) (A) (A) (A)
                 (A) (A) (A) (A) (A) (A) (A) (A) (A) (A) (A) (A)
                 (A) (A) (A) (A) (A) (A) (A) (A) (A) (A) (A) (A)
                 (A) (A) (A) (A) (A) (A) (A) (A) (A) (A) (A) (A)
                 (A) (A) (A) (A) (A) (A) (A) (A) (A) (A) (A) (A)
                 (A) (A) (A) (A) (A) (A) (A) (A) (A) (A) (A) (A)
                 (A) (A) (A) (A) (A) (A) (A) (A) (A) (A) (A) (A)
                 (A) (A) (A) (A) (A) (A) (A) (A) (A) (A) (A) (A)
                 (A) (A) (A) (A) (A) (A) (A) (A) (A) (A) (A) (A)
                 (A) (A) (A) (A) (A) (A) (A) (A) (A) (A) (A) (A)
                 (A) (A) (A) (A) (A) (A) (A) (A) (A) (A) (A) (A)
                 (A) (A) (A) (A) (A) (A) (A) (A) (A) (A) (A) (A)
                 (A) (A) (A) (A) (A) (A) (A) (A) (A) (A) (A) (A)
                 (A) (A) (A) (A) (A) (A) (A) (A) (A) (A) (A) (A)
                 (A) (A) (A) (A) (A) (A) (A) (A) (A) (A) (A) (A)
                 (A) (A) (A) (A) (A) (A) (A) (A) (A) (A) (A) (A)
                 (A) (A) (A) (A) (A) (A) (A) (A) (A) (A) (A) (A)
                 (A) (A) (A) (A) (A) (A) (A) (A) (A) (A) (A) (A)
                 (A) (A) (A) (A) (A) (A) (A) (A) (A) (A) (A) (A)
                 (A) (A) (A) (A) (A) (A) (A) (A) (A) (A) (A) (A)
                 (A) (A) (A) (A) (A) (A) (A) (A) (A) (A) (A) (A)
                 (A) (A) (A) (A) (A) (A) (A) (A) (A) (A) (A) (A)
                 (A) (A) (A) (A) (A) (A) (A) (A) (A) (A) (A) (A)
                 (A) (A) (A) (A) (A) (A) (A) (A) (A) (A) (A) (A)
                 (A) (A) (A) (A) (A) (A) (A) (A) (A) (A) (A) (A)
                 (A) (A) (A) (A) (A) (A) (A) (A) (A) (A) (A) (A)
                 (A) (A) (A) (A) (A) (A) (A) (A) (A) (A) (A) (A)
                 (A) (A) (A) (A) (A) (A) (A) (A) (A) (A) (A) (A)
                 (A) (A) (A) (A) (A) (A) (A) (A) (A) (A) (A) (A)
                 (A) (A) (A) (A) (A) (A) (A) (A) (A) (A) (A) (A)
                 (A) (A) (A) (A) (A) (A) (A) (A) (A) (A) (A) (A)
                 (A) (A) (A) (A) (A) (A) (A) (A) (A) (A) (A) (A)
                 (A) (A) (A) (A) (A) (A) (A) (A) (A) (A) (A) (A)
                 (A) (A) (A) (A) (A) (A) (A) (A) (A) (A) (A) (A)
                 (A) (A) (A) (A) (A) (A) (A) (A) (A) (A) (A) (A)
                 (A) (A) (A) (A) (A) (A) (A) (A) (A) (A) (A) (A)
                 (A) (A) (A) (A) (A) (A) (A) (A) (A) (A) (A) (A)
                 (A) (A) (A) (A) (A) (A) (A) (A) (A) (A) (A) (A)
                 (A) (A) (A) (A) (A) (A) (A) (A) (A) (A) (A) (A)
                 (A) (A) (A) (A) (A) (A) (A) (A) (A) (A) (A) (A)
                 (A) (A) (A) (A) (A) (A) (A) (A) (A) (A) (A) (A)
                 (A) (A) (A) (A) (A) (A) (A) (A) (A) (A) (A) (A)
                 (A) (A) (A) (A) (A) (A) (A) (A) (A) (A) (A) (A)
                 (A) (A) (A) (A) (A) (A) (A) (A) (A) (A) (A) (A)
                 (A) (A) (A) (A) (A) (A) (A) (A) (A) (A) (A) (A)
                 (A) (A) (A) (A) (A) (A) (A) (A) (A) (A) (A) (A)
                 (A) (A) (A) (A) (A) (A) (A) (A) (A) (A) (A) (A)
                 (A) (A) (A) (A) (A) (A) (A) (A) (A) (A) (A) (A)
                 (A) (A) (A) (A) (A) (A) (A) (A) (A) (A) (A) (A)
                 (A) (A) (A) (A) (A) (A) (A) (A) (A) (A) (A) (A)
                 (A) (A) (A) (A) (A) (A) (A) (A) (A) (A) (A) (A)
                 (A) (A) (A) (A) (A) (A) (A) (A) (A) (A) (A) (A)
                 (A) (A) (A) (A) (A) (A) (A) (A) (A) (A) (A) (A)
                 (A) (A) (A) (A) (A) (A) (A) (A) (A) (A) (A) (A)
                 (A) (A) (A) (A) (A) (A) (A) (A) (A) (A) (A) (A)
                 (A) (A) (A) (A) (A) (A) (A) (A) (A) (A) (A) (A)
                 (A) (A) (A) (A) (A) (A) (A) (A) (A) (A) (A) (A)
                 (A) (A) (A) (A) (A) (A) (A) (A) (A) (A) (A) (A)
                 (A) (A) (A) (A) (A) (A) (A) (A) (A) (A) (A) (A)
                 (A) (A) (A) (A) (A) (A) (A) (A) (A) (A) (A) (A)
                 (A) (A) (A) (A) (A) (A) (A) (A) (A) (A) (A) (A)
                 (A) (A) (A) (A) (A) (A) (A) (A) (A) (A) (A) (A)
                 (A) (A) (A) (A) (A) (A) (A) (A) (A) (A) (A) (A)
                 (A) (A) (A) (A) (A) (A) (A) (A) (A)
 The electronic state is 1-A.
 Alpha  occ. eigenvalues --  -14.49517 -14.49512 -10.31875 -10.31873 -10.31195
 Alpha  occ. eigenvalues --  -10.31184 -10.30608 -10.30595 -10.27914 -10.27912
 Alpha  occ. eigenvalues --  -10.27855 -10.27848 -10.27649 -10.25127 -10.23374
 Alpha  occ. eigenvalues --   -3.75496  -2.08698  -2.08620  -2.07454  -1.05812
 Alpha  occ. eigenvalues --   -1.05426  -0.95161  -0.87802  -0.85472  -0.81779
 Alpha  occ. eigenvalues --   -0.81764  -0.79213  -0.78726  -0.72571  -0.72309
 Alpha  occ. eigenvalues --   -0.71202  -0.66984  -0.66784  -0.60697  -0.58785
 Alpha  occ. eigenvalues --   -0.58031  -0.57655  -0.57169  -0.55899  -0.55671
 Alpha  occ. eigenvalues --   -0.53238  -0.50710  -0.50305  -0.49935  -0.48760
 Alpha  occ. eigenvalues --   -0.48249  -0.48054  -0.47183  -0.46149  -0.45890
 Alpha  occ. eigenvalues --   -0.45673  -0.45003  -0.43970  -0.43786  -0.42921
[...]
 .00000123,-0.00007222,0.00000615,0.00000242,-0.00000226,-0.00000577,0.
 00001820,-0.00000460,-0.00000799,-0.00003868,0.00000673,0.00001632,0.0
 0000907,0.00000162,0.00000214,0.00000621,0.00000176,0.00000263,-0.0002
 9274,0.00028155,-0.00042147,0.00011819,-0.00015292,0.00005656,-0.00009
 535,-0.00038214,0.00001333,-0.00001872,0.00014266,-0.00002989,0.008017
 81,0.00503720,0.00601511,-0.00007812,-0.00006919,0.00011538,-0.0000154
 6,0.00001955,-0.00003944,0.00002167,-0.00001136,-0.00003195,-0.0000695
 7,0.00001872,0.00001109,0.00002647,0.00000977,0.00001293,-0.00000019,-
 0.00000165,0.00000113,-0.00000727,0.00001687,-0.00000465,0.00000031,0.
 00000333,-0.00000844,0.00002230,-0.00001219,-0.00000209,0.00000019,0.0
 0001998,-0.00000922,0.00000541,-0.00000657,0.00000055,-0.00002913,-0.0
 0000723,-0.00000392,-0.00028398,0.00018092,0.00084060,0.00005748,0.000
 47826,0.00035947,-0.00009925,-0.00017504,0.00007113,-0.00002410,0.0004
 9859,0.00036870,-0.09743844,-0.12744978,-0.08191890,0.00542625,0.00404
 950,0.00508301,-0.01999971,-0.01419772,-0.01610542,0.10406385,0.132560
 36,0.00018693,0.00019680,0.00001298,0.00040233,0.00019830,0.00006644,-
 0.00019511,0.00005258,-0.00006163,0.00033623,0.00013581,0.00001359,-0.
 00002277,-0.00023129,-0.00001407,-0.00001297,-0.00001304,0.00000059,-0
 .00001112,0.00001600,0.00000363,-0.00006418,0.00004213,0.00004556,0.00
 002131,-0.00000764,0.00000563,0.00002177,-0.00001056,-0.00000896,-0.00
 155687,-0.00046610,0.00071450,-0.00011749,-0.00003523,0.00018137,0.000
 23779,-0.00015701,-0.00006008,0.00002489,0.00026760,-0.00002701,-0.023
 14069,-0.01729364,-0.02316098,-0.00002794,0.00003774,-0.00018034,0.000
 06827,0.00003450,-0.00005367,0.00001447,-0.00001422,0.00000392,0.00003
 315,0.00000073,-0.00000825,0.00002732,0.00001497,0.00001427,0.00000095
 ,0.00000311,0.00000260,-0.00001116,0.00000822,-0.00001734,-0.00000077,
 0.00000040,-0.00001936,0.00000103,-0.00003818,-0.00004361,0.00000619,-
 0.00000064,0.00000236,0.00000194,0.00000172,0.00000479,-0.00000322,0.0
 0000386,0.00001863,0.00244630,0.00299309,-0.00572985,0.00013963,-0.000
 09879,0.00007734,-0.00002375,0.00016006,0.00024282,-0.00120022,-0.0011
 8528,-0.00119111,-0.09099863,-0.07554505,-0.12665856,0.00578044,0.0057
 5493,0.00643221,0.00281958,0.00165735,0.00307097,0.10511237,0.08387622
 ,0.14632008,0.00145100,0.00186422,-0.00072353,0.00145394,-0.00186636,-
 0.00072339,-0.00110053,-0.00058568,-0.00086305,-0.00110265,0.00058477,
 -0.00086390,0.00180376,0.00000080,0.00033586,-0.00002072,0.00014498,0.
 00001966,-0.00002091,-0.00014493,0.00001966,-0.00027042,-0.00071117,0.
 00028402,-0.00021461,0.00004511,-0.00007914,0.00002348,0.00018565,0.00
 008291,-0.00027043,0.00071160,0.00028437,-0.00021481,-0.00004482,-0.00
 007954,0.00002334,-0.00018553,0.00008280,-0.00047992,-0.00021301,0.000
 23198,-0.00047892,0.00021905,0.00023902,-0.03169556,-0.00000440,-0.032
 96978,0.01455470,0.00001767,-0.00414769,-0.00719205,-0.00197451,0.0064
 7510,-0.00713488,0.00198625,0.00641799,0.00107672,-0.00048933,0.000007
 68,-0.00034353,0.00044754,0.00006946,-0.00032701,0.00034293,0.00000799
 ,0.00002416,0.00014732,0.00022113,0.00060377,-0.00031870,-0.00048504,-
 0.00013635,0.00042741,0.00007613,0.00000797,0.00022699,0.00029636,-0.0
 0023629,0.00000913,-0.00027467,0.00107414,0.00049870,0.00001174,-0.000
 32679,-0.00034266,0.00000827,-0.00034020,-0.00044799,0.00006834,0.0000
 1147,-0.00014090,0.00021946,0.00060389,0.00031810,-0.00048495,0.000008
 08,-0.00022687,0.00029665,-0.00013678,-0.00042761,0.00007611,-0.000236
 38,-0.00000920,-0.00027488,0.10740811,-0.00052720,-0.00104216,0.000421
 34,0.00052436,-0.00103917,-0.00042191,0.00090211,-0.00027391,0.0003738
 0,-0.00090050,-0.00027437,-0.00037356,-0.00000116,0.00097321,-0.000000
 26,0.00006578,0.00000911,0.00001488,-0.00006578,0.00000933,-0.00001475
 ,-0.00035921,0.00034913,-0.00008972,0.00003235,0.00011163,0.00004689,-
 0.00002082,0.00004059,0.00006162,0.00035776,0.00034737,0.00009038,-0.0
 0003179,0.00011163,-0.00004663,0.00002104,0.00004072,-0.00006168,-0.00
 106662,0.00284901,-0.00193532,0.00107356,0.00284963,0.00192981,0.00000
 359,-0.00360427,0.00000289,0.00000381,-0.00183542,0.00000345,0.0045118
 3,0.00019542,-0.00431111,-0.00450643,0.00019549,0.00431504,-0.00027718
 ,-0.00042490,0.00026633,0.00015799,-0.00006540,-0.00003804,0.00010989,
 0.00023772,-0.00005093,0.00006237,0.00000346,-0.00023153,-0.00020416,0
 .00017349,0.00016469,0.00015036,-0.00014558,-0.00000500,0.00001351,0.0
 0000994,-0.00000817,0.00009923,-0.00000834,0.00028774,0.00028438,-0.00
 043031,-0.00026342,-0.00011010,0.00023764,0.00005047,-0.00015728,-0.00
 006320,0.00003974,-0.00005762,-0.00000934,0.00022535,0.00020404,0.0001
 7327,-0.00016492,-0.00001341,0.00000986,0.00000803,-0.00015040,-0.0001
 4523,0.00000501,-0.00009912,-0.00000802,-0.00028754,-0.00007503,0.0084
 1382,0.00089993,0.00140097,0.00033964,0.00089896,-0.00140183,0.0003390
 5,-0.00015454,0.00026554,-0.00058022,-0.00015435,-0.00026533,-0.000580
 36,-0.00022941,-0.00000007,0.00003782,-0.00004946,-0.00006641,-0.00001
 822,-0.00004947,0.00006651,-0.00001815,0.00038124,0.00000409,0.0004885
 7,0.00006134,-0.00019162,-0.00005273,-0.00003880,-0.00011912,-0.000105
 11,0.00038075,-0.00000436,0.00048841,0.00006155,0.00019152,-0.00005251
 ,-0.00003866,0.00011908,-0.00010504,-0.00006623,0.00001255,-0.00055860
 ,-0.00006429,-0.00000773,-0.00056356,0.00791902,0.00000522,0.00196790,
 -0.00325022,0.00000220,0.00451457,0.00081616,0.00037776,-0.00064222,0.
 00080708,-0.00038393,-0.00063893,-0.00078242,0.00062540,-0.00003756,0.
 00026690,-0.00033754,-0.00006131,0.00029385,-0.00021919,0.00001750,0.0
 0013682,-0.00031755,-0.00024160,-0.00065463,0.00008233,0.00011745,0.00
 012596,-0.00053028,0.00005348,-0.00013584,-0.00007409,-0.00017791,0.00
 036995,-0.00009494,0.00028115,-0.00077544,-0.00061962,-0.00004243,0.00
 029426,0.00021901,0.00001790,0.00026570,0.00033967,-0.00006113,0.00013
 615,0.00030257,-0.00023092,-0.00065437,-0.00008179,0.00011782,-0.00013
 587,0.00007409,-0.00017824,0.00012638,0.00053011,0.00005371,0.00037019
 ,0.00009497,0.00028118,0.09988139,-0.00007985,0.07045224,-0.01987424,-
 0.01647526,-0.00138317,-0.01986213,0.01648746,-0.00138604,0.00356555,-
 0.00078465,-0.00025857,0.00356588,0.00078095,-0.00025867,-0.00305201,0
 .00000129,-0.00005375,0.00015357,-0.00003379,-0.00003942,0.00015427,0.
 00003371,-0.00003925,-0.00615415,-0.01226684,-0.00174778,0.00050566,-0
 .00010519,0.00010816,-0.00292086,-0.00012931,0.00074860,-0.00612270,0.
 01225892,-0.00174900,0.00050480,0.00010423,0.00010944,-0.00292099,0.00
 013076,0.00074782,-0.04310023,0.00970620,0.00099322,-0.04312156,-0.009
 68974,0.00099108,-0.02672070,-0.00002134,0.06215142,-0.02308786,0.0000
 0329,0.01278115,-0.00380614,0.00252071,-0.00074236,-0.00386542,-0.0025
 2163,-0.00070308,0.00221633,0.00812117,0.00179372,0.00011045,0.0006166
 6,0.00007045,-0.00051663,0.00230936,-0.00125843,0.00002361,0.00023316,
 0.00011916,-0.00010908,0.00005540,-0.00114941,0.00127993,-0.00025503,0
 .00067131,0.00021070,0.00090198,-0.00001908,0.00069885,-0.00111187,0.0
 0024937,0.00221105,-0.00812531,0.00179062,-0.00051796,-0.00230654,-0.0
 0125828,0.00010605,-0.00061094,0.00007299,0.00002452,-0.00023322,0.000
 11952,-0.00011231,-0.00007316,-0.00113300,0.00021065,-0.00090202,-0.00
 002125,0.00128017,0.00025413,0.00067242,0.00069983,0.00111052,0.000249
 57,-0.05895815,0.00003610,-0.10630020,0.38977121,-0.01625167,0.0018154
 2,-0.00095297,0.01626402,0.00179934,0.00095599,-0.00328424,-0.00402514
 ,-0.00054007,0.00328051,-0.00402789,0.00054043,0.00000057,-0.00195644,
 0.00000012,-0.00126497,0.00015648,-0.00028516,0.00126540,0.00015604,0.
 00028491,-0.01685667,-0.00942422,0.00259318,0.00076651,-0.00001175,-0.
 00067561,0.00077514,0.00052546,0.00040460,0.01685108,-0.00942055,-0.00
 259004,-0.00076675,-0.00001109,0.00067399,-0.00077372,0.00052490,-0.00
 040464,-0.00045446,-0.03865785,0.00309507,0.00047922,-0.03866228,-0.00
 309720,0.00000847,-0.04221863,0.00001003,0.00002357,0.00126008,-0.0000
 1041,0.01169984,0.00364597,-0.00688098,-0.01172867,0.00366458,0.006876
 57,0.00409468,-0.01222273,0.00432541,-0.00123191,0.00029205,-0.0005793
 8,-0.00088608,0.00068633,-0.00060712,-0.00070268,-0.00002032,-0.001439
 12,0.00056866,-0.00880388,-0.01150402,-0.00056810,0.00096995,0.0013478
 5,-0.00082120,-0.00085241,0.00063285,-0.00011295,-0.00090087,0.0000270
 1,-0.00410476,-0.01221151,-0.00433138,0.00088659,0.00068834,0.00060869
 ,0.00122763,0.00029407,0.00058003,0.00070217,-0.00001990,0.00143816,-0
 .00058453,-0.00882121,0.01149185,0.00082108,-0.00086345,-0.00062345,0.
 00056855,0.00096934,-0.00134681,0.00011258,-0.00090159,-0.00002771,0.0
 0002959,-0.01071017,0.00007964,-0.00004442,0.24596797,-0.00617194,-0.0
 0462692,0.00602447,-0.00617219,0.00463013,0.00602426,0.00205648,0.0007
 3570,0.00467133,0.00205824,-0.00073571,0.00467212,-0.00416565,0.000000
 14,-0.00095526,-0.00008455,-0.00025394,-0.00040891,-0.00008422,0.00025
 395,-0.00040905,-0.00083005,0.00505533,-0.00072272,0.00025841,0.000367
 59,0.00062598,0.00136975,0.00007419,0.00043134,-0.00082961,-0.00505261
 ,-0.00072192,0.00025713,-0.00036594,0.00062514,0.00136855,-0.00007456,
 0.00043150,0.00300404,0.00137238,-0.04175042,0.00299708,-0.00137887,-0
 .04176287,0.03397817,0.00002658,-0.01199239,0.00666634,-0.00001227,-0.
 00623158,0.00115633,-0.00080417,-0.00105021,0.00117910,0.00079308,-0.0
 0105124,0.00183526,0.00834772,-0.00005743,0.00014051,-0.00011856,0.000
 03737,-0.00114462,0.00213696,0.00000135,0.00011964,0.00079817,0.000585
 85,-0.00209652,-0.01579124,-0.00151978,-0.00048625,-0.00209457,-0.0029
 4941,-0.00025972,-0.00152602,-0.00030785,-0.00051118,-0.00109183,-0.00
 049751,0.00183011,-0.00835560,-0.00005982,-0.00114581,-0.00213694,0.00
 000001,0.00014123,0.00011789,0.00003771,0.00011893,-0.00079706,0.00058
 582,-0.00207828,0.01579336,-0.00148987,-0.00025766,0.00153009,-0.00031
 060,-0.00048377,0.00209618,-0.00294979,-0.00051165,0.00109194,-0.00049
 707,-0.08650655,0.00007889,-0.08290885,0.02511673,-0.00007266,0.226117
 40,0.00047043,0.00305473,-0.00080058,0.00046781,-0.00305690,-0.0008007
 8,-0.01099106,-0.00327577,-0.00148803,-0.01100514,0.00328432,-0.001489
 68,-0.33613268,0.00007284,-0.03338257,0.00080926,0.00034078,0.00057393
 ,0.00080943,-0.00034067,0.00057402,-0.00025724,-0.00056762,-0.00000939
 ,-0.00008027,0.00007715,-0.00004145,-0.00001746,0.00005480,0.00003395,
 -0.00025726,0.00056816,-0.00000930,-0.00008030,-0.00007712,-0.00004150
 ,-0.00001747,-0.00005478,0.00003397,-0.00015912,0.00023534,-0.00009006
 ,-0.00015953,-0.00023541,-0.00009015,-0.00003023,0.00000006,0.00011684
 ,-0.00004870,-0.00000003,0.00001900,-0.00002599,0.00001745,0.00000173,
 -0.00002595,-0.00001750,0.00000181,-0.00004520,-0.00008431,0.00012470,
 -0.00004212,0.00001731,-0.00001660,0.00000956,0.00002191,-0.00000229,0
 .00000590,0.00000190,0.00000105,-0.00002047,-0.00003098,-0.00009591,0.
 00000396,0.00002492,0.00000576,-0.00001718,0.,0.00001756,0.00001122,0.
 00000220,-0.00001630,-0.00004529,0.00008433,0.00012478,0.00000954,-0.0
 0002190,-0.00000229,-0.00004217,-0.00001729,-0.00001664,0.00000591,-0.
 00000188,0.00000099,-0.00002046,0.00003105,-0.00009594,-0.00001719,0.,
 0.00001756,0.00000395,-0.00002494,0.00000575,0.00001121,-0.00000221,-0
 .00001628,0.00008313,-0.00000004,-0.00006343,-0.00003057,0.00000003,-0
 .00005436,0.35623086,0.00255598,-0.00463729,0.00059142,-0.00255906,-0.
 00463432,-0.00059073,0.02820915,0.00423830,0.00305225,-0.02820061,0.00
 425179,-0.00305128,0.00007376,-0.05970921,0.00001053,-0.00055241,0.001
 05771,-0.00013042,0.00055233,0.00105771,0.00012988,0.00081476,0.000661
 90,-0.00010696,0.00001832,-0.00004933,0.00005333,0.00000243,-0.0000188
 4,-0.00004026,-0.00081420,0.00066202,0.00010698,-0.00001825,-0.0000492
 5,-0.00005332,-0.00000241,-0.00001880,0.00004026,0.00032320,-0.0002657
 6,0.00015916,-0.00032339,-0.00026548,-0.00015915,0.,-0.00002843,0.,0.,
 -0.00000495,0.,0.00000164,0.00000295,-0.00000265,-0.00000161,0.0000029
 8,0.00000265,0.00010972,0.00006944,-0.00011111,0.00004931,-0.00002980,
 0.00002371,-0.00001072,-0.00000141,-0.00000118,-0.00000763,-0.00000213
 ,0.00000129,0.00002249,0.00002759,0.00006432,0.00000052,-0.00000319,0.
 00000119,0.00001447,-0.00000636,-0.00002169,-0.00000940,-0.00000521,0.
 00000612,-0.00010969,0.00006944,0.00011105,0.00001071,-0.00000141,0.00
 000118,-0.00004930,-0.00002978,-0.00002374,0.00000763,-0.00000213,-0.0
 0000131,-0.00002247,0.00002759,-0.00006428,-0.00001446,-0.00000636,0.0
 0002168,-0.00000053,-0.00000317,-0.00000120,0.00000939,-0.00000521,-0.
 00000611,0.00000003,0.00001431,0.00000004,-0.00000007,-0.00008297,-0.0
 0000005,-0.00007914,0.05896399,-0.00046946,0.00063172,0.00680892,-0.00
 047000,-0.00063090,0.00680880,-0.00182633,-0.00021589,0.00291729,-0.00
 182523,0.00021686,0.00291753,-0.03330028,0.00001050,-0.03902400,0.0005
 6352,-0.00008015,-0.00427326,0.00056353,0.00007965,-0.00427325,0.00006
 419,-0.00004112,0.00052135,-0.00002304,-0.00004465,0.00000398,-0.00003
 189,0.00001381,-0.00002201,0.00006424,0.00004093,0.00052134,-0.0000230
 5,0.00004464,0.00000399,-0.00003188,-0.00001379,-0.00002203,-0.0001845
 4,0.00006943,-0.00010360,-0.00018458,-0.00006942,-0.00010365,-0.000065
 17,-0.00000006,0.00007573,-0.00001154,0.00000005,0.00003076,-0.0000037
 7,0.00000252,0.00000728,-0.00000385,-0.00000258,0.00000730,-0.00003551
 ,-0.00001289,0.00002338,-0.00000214,0.00001265,-0.00001142,-0.00000046
 ,0.00000820,0.00000034,0.00000511,0.00000005,0.00000217,-0.00000646,-0
 .00002073,-0.00002184,0.00000436,-0.00000538,-0.00000228,0.00000096,0.
 00000152,0.00000731,0.00000709,-0.00000983,0.00000258,-0.00003549,0.00
 001289,0.00002339,-0.00000047,-0.00000820,0.00000034,-0.00000216,-0.00
 001262,-0.00001141,0.00000512,-0.00000005,0.00000216,-0.00000644,0.000
 02076,-0.00002176,0.00000099,-0.00000154,0.00000732,0.00000436,0.00000
 535,-0.00000227,0.00000707,0.00000981,0.00000256,0.00008126,0.00000002
 ,0.00004163,0.00008718,-0.00000008,-0.00045911,0.03673135,-0.00001152,
 0.02944516,-0.15828184,-0.10255546,-0.00623355,-0.15816579,0.10250386,
 -0.00622800,-0.02900406,-0.03161703,-0.00327848,-0.02895093,0.03165660
 ,-0.00327503,0.00259346,-0.00003785,0.00149343,-0.00611289,0.00047791,
 -0.00171396,-0.00611322,-0.00047392,-0.00171432,0.01396445,0.01309249,
 -0.00033533,-0.00155453,0.00139004,-0.00047540,-0.00252194,0.00209627,
 -0.00035129,0.01400781,-0.01306962,-0.00032700,-0.00155552,-0.00138818
 ,-0.00047551,-0.00252502,-0.00209806,-0.00035234,-0.00031366,0.0016951
 7,0.00003125,-0.00032518,-0.00170884,0.00003095,-0.01439028,0.00000428
 ,-0.01618904,0.00537527,0.00000436,-0.00069196,-0.00167411,-0.00099942
 ,0.00148187,-0.00166274,0.00099816,0.00146774,-0.00037980,-0.00039970,
 -0.00040945,-0.00013557,0.00006161,-0.00002221,0.00015080,-0.00050167,
 0.00012740,0.00008788,0.00006582,-0.00003207,-0.00020790,0.00074553,0.
 00114532,-0.00042007,-0.00024943,-0.00033990,-0.00010507,0.00008333,0.
 00028612,-0.00023961,0.00032932,-0.00025540,-0.00037902,0.00039965,-0.
 00040859,0.00015087,0.00050142,0.00012737,-0.00013510,-0.00006198,-0.0
 0002226,0.00008811,-0.00006588,-0.00003138,-0.00020939,-0.00074525,0.0
 0114586,-0.00010524,-0.00008342,0.00028657,-0.00041977,0.00024974,-0.0
 0033997,-0.00023972,-0.00033028,-0.00025440,-0.01897380,0.00000979,-0.
 00089597,-0.14243936,0.00001190,0.02822257,0.00063690,-0.00000050,0.00
 035340,0.54048560,-0.06521298,-0.27356331,0.00127542,0.06513488,-0.273
 62229,-0.00127045,-0.07867788,0.03540978,-0.00578874,0.07871187,0.0353
 4727,0.00578729,-0.00002208,-0.07507591,0.00000033,0.00106765,0.001595
 48,-0.00081322,-0.00106411,0.00159653,0.00081387,-0.00648546,-0.039375
 86,0.00038052,-0.00049560,-0.00098267,-0.00054770,0.00350430,-0.004404
 34,0.00034174,0.00653596,-0.03928879,-0.00037323,0.00049571,-0.0009831
 9,0.00054799,-0.00350407,-0.00440176,-0.00034301,0.00380840,-0.0041364
 1,-0.00133912,-0.00383920,-0.00418941,0.00133833,0.00000626,0.01344808
 ,-0.00000290,-0.00000313,0.00021147,0.00000014,-0.00305640,-0.00046741
 ,0.00180454,0.00306331,-0.00047101,-0.00180470,-0.00049178,-0.00046818
 ,-0.00023350,0.00007713,-0.00000254,-0.00006276,0.00005629,-0.00000915
 ,0.00012058,-0.00003830,-0.00005466,-0.00001986,0.00012628,-0.00035194
 ,-0.00011465,-0.00004847,-0.00000121,0.00015781,0.00001605,-0.00002203
 ,-0.00015636,0.00023747,-0.00012919,0.00003917,0.00049214,-0.00047039,
 0.00023738,-0.00005695,-0.00000981,-0.00012109,-0.00007685,-0.00000334
 ,0.00006237,0.00003836,-0.00005483,0.00001957,-0.00012737,-0.00037657,
 0.00012116,-0.00001579,-0.00002210,0.00015625,0.00004878,-0.00000173,-
 0.00015734,-0.00023808,-0.00012899,-0.00003809,0.00000084,0.00272400,0
 .00000201,0.00002434,-0.05858946,-0.00001076,-0.00000078,-0.00124694,0
 .00000004,0.00000923,0.69257282,-0.00679605,-0.00487193,-0.06661489,-0
 .00679602,0.00488015,-0.06660982,-0.00512545,-0.00270208,0.01406497,-0
 .00512267,0.00270627,0.01406484,0.00160357,-0.00000185,-0.00787287,-0.
 00115556,0.00018687,0.00735759,-0.00115618,-0.00018613,0.00735743,0.00
 340359,0.00582320,0.00286189,-0.00045768,0.00013871,0.00025296,-0.0009
 4752,-0.00017116,0.00031473,0.00340914,-0.00582179,0.00287301,-0.00045
 880,-0.00013899,0.00025265,-0.00094769,0.00017155,0.00031446,-0.000301
 11,0.00038608,0.00133585,-0.00030376,-0.00038555,0.00133061,-0.0062087
 5,-0.00000962,0.01003620,-0.00275786,0.00000105,0.00203887,-0.00009412
 ,0.00050306,0.00101108,-0.00010352,-0.00049831,0.00101538,-0.00059818,
 -0.00010124,-0.00005495,-0.00003142,-0.00006791,0.00000468,0.00012150,
 -0.00018776,0.00003053,0.00000113,0.00010792,0.00009950,-0.00044899,0.
 00018003,-0.00038066,0.00017000,-0.00042676,0.00009500,-0.00007663,-0.
 00001590,0.00005749,0.00040791,-0.00025434,0.00021430,-0.00059797,0.00
 010090,-0.00005533,0.00012162,0.00018770,0.00003054,-0.00003179,0.0000
 6869,0.00000487,0.00000128,-0.00010777,0.00009916,-0.00045362,-0.00018
 127,-0.00038668,-0.00007707,0.00001595,0.00005716,0.00017004,0.0004266
 6,0.00009508,0.00040930,0.00025423,0.00021386,0.01268078,-0.00000197,0
 .00824560,0.00985681,0.00000241,-0.04980798,0.00023878,-0.00000008,-0.
 00183071,0.00845296,-0.00000902,0.11788357\\-0.00000151,-0.00000272,-0
 .00000840,0.00000083,-0.00000330,-0.00001110,-0.00000191,0.00000014,-0
 .00000275,-0.00000392,-0.00000114,-0.00000337,0.00000036,0.00000117,-0
 .00002870,-0.00000040,-0.00000006,-0.00001558,-0.00000044,0.00000025,-
 0.00001513,-0.00000510,0.00000283,-0.00000556,-0.00001105,0.00000034,-
 0.00000615,-0.00000261,0.00000041,-0.00000561,-0.00000073,-0.00000032,
 -0.00001063,-0.00000412,0.00000037,-0.00000687,-0.00000042,0.00000074,
 -0.00000691,-0.00000081,0.00000133,0.00000582,-0.00001623,-0.00000087,
 0.00000618,-0.00000134,0.00000003,0.00000599,0.00000972,0.00000534,0.0
 0001023,-0.00000563,-0.00000418,0.00001488,0.00000063,-0.00000058,0.00
 001425,0.00000186,-0.00000019,-0.00000108,0.00000109,-0.00000203,0.000
 01067,-0.00000326,-0.00000007,0.00000427,-0.00000977,0.00000238,0.0000
 0087,0.00001507,-0.00000357,0.00000918,0.00000476,-0.00000041,0.000002
 13,0.00000851,-0.00000072,0.00000695,0.00000861,0.00000173,0.00000500,
 0.00000028,-0.00000129,0.00000544,-0.00000292,0.00000065,0.00000478,-0
 .00000011,0.00000073,0.00001068,-0.00000820,-0.00000018,0.00000414,0.0
 0000465,0.00000141,0.00000794,0.00000665,0.00000022,0.00001119,0.00000
 411,0.00000088,0.00000210,0.00000781,-0.00000156,0.00000100,0.00000036
 ,-0.00000093,0.00001672,0.00000531,-0.00001158,-0.00001763,0.00000002,
 -0.00000003,-0.00002009,-0.00000015,0.00001479,0.00000514\\\@
 The archive entry for this job was punched.


 ALTHOUGH J.J. COULD DIAGNOSE THE FAULTS OF AN
 APPARATUS WITH UNCANNY ACCURACY, IT WAS JUST AS
 WELL NOT TO LET HIM HANDLE IT.
   -- GEORGE THOMPSON, ABOUT HIS FATHER
 Job cpu time:       2 days  9 hours 30 minutes 51.3 seconds.
 Elapsed time:       0 days  1 hours 12 minutes 25.9 seconds.
 File lengths (MBytes):  RWF=   1824 Int=      0 D2E=      0 Chk=     68 Scr=      1
 Normal termination of Gaussian 16 at Fri Mar  8 16:10:39 2024.
