 Entering Gaussian System, Link 0=/cm/shared/apps//g16/g16
 Input=YIr.gjf
 Output=YIr.log
 Initial command:
 /cm/shared/apps//g16/l1.exe "/local/mvanvleet/pbs.14044.josephine/Gau-289600.inp" -scrdir="/local/mvanvleet/pbs.14044.josephine/"
 Entering Link 1 = /cm/shared/apps//g16/l1.exe PID=    289602.
  
 Copyright (c) 1988-2019, Gaussian, Inc.  All Rights Reserved.
  
 This is part of the Gaussian(R) 16 program.  It is based on
 the Gaussian(R) 09 system (copyright 2009, Gaussian, Inc.),
 the Gaussian(R) 03 system (copyright 2003, Gaussian, Inc.),
 the Gaussian(R) 98 system (copyright 1998, Gaussian, Inc.),
 the Gaussian(R) 94 system (copyright 1995, Gaussian, Inc.),
 the Gaussian 92(TM) system (copyright 1992, Gaussian, Inc.),
 the Gaussian 90(TM) system (copyright 1990, Gaussian, Inc.),
 the Gaussian 88(TM) system (copyright 1988, Gaussian, Inc.),
 the Gaussian 86(TM) system (copyright 1986, Carnegie Mellon
 University), and the Gaussian 82(TM) system (copyright 1983,
 Carnegie Mellon University). Gaussian is a federally registered
 trademark of Gaussian, Inc.
  
 This software contains proprietary and confidential information,
 including trade secrets, belonging to Gaussian, Inc.
  
 This software is provided under written license and may be
 used, copied, transmitted, or stored only in accord with that
 written license.
  
 The following legend is applicable only to US Government
 contracts under FAR:
  
                    RESTRICTED RIGHTS LEGEND
  
 Use, reproduction and disclosure by the US Government is
 subject to restrictions as set forth in subparagraphs (a)
 and (c) of the Commercial Computer Software - Restricted
 Rights clause in FAR 52.227-19.
  
 Gaussian, Inc.
 340 Quinnipiac St., Bldg. 40, Wallingford CT 06492
  
  
 ---------------------------------------------------------------
 Warning -- This program may not be used in any manner that
 competes with the business of Gaussian, Inc. or will provide
 assistance to any competitor of Gaussian, Inc.  The licensee
 of this program is prohibited from giving any competitor of
 Gaussian, Inc. access to this program.  By using this program,
 the user acknowledges that Gaussian, Inc. is engaged in the
 business of creating and licensing software in the field of
 computational chemistry and represents and warrants to the
 licensee that it is not a competitor of Gaussian, Inc. and that
 it will not use this program in any manner prohibited above.
 ---------------------------------------------------------------
  

 Cite this work as:
 Gaussian 16, Revision C.01,
 M. J. Frisch, G. W. Trucks, H. B. Schlegel, G. E. Scuseria, 
 M. A. Robb, J. R. Cheeseman, G. Scalmani, V. Barone, 
 G. A. Petersson, H. Nakatsuji, X. Li, M. Caricato, A. V. Marenich, 
 J. Bloino, B. G. Janesko, R. Gomperts, B. Mennucci, H. P. Hratchian, 
 J. V. Ortiz, A. F. Izmaylov, J. L. Sonnenberg, D. Williams-Young, 
 F. Ding, F. Lipparini, F. Egidi, J. Goings, B. Peng, A. Petrone, 
 T. Henderson, D. Ranasinghe, V. G. Zakrzewski, J. Gao, N. Rega, 
 G. Zheng, W. Liang, M. Hada, M. Ehara, K. Toyota, R. Fukuda, 
 J. Hasegawa, M. Ishida, T. Nakajima, Y. Honda, O. Kitao, H. Nakai, 
 T. Vreven, K. Throssell, J. A. Montgomery, Jr., J. E. Peralta, 
 F. Ogliaro, M. J. Bearpark, J. J. Heyd, E. N. Brothers, K. N. Kudin, 
 V. N. Staroverov, T. A. Keith, R. Kobayashi, J. Normand, 
 K. Raghavachari, A. P. Rendell, J. C. Burant, S. S. Iyengar, 
 J. Tomasi, M. Cossi, J. M. Millam, M. Klene, C. Adamo, R. Cammi, 
 J. W. Ochterski, R. L. Martin, K. Morokuma, O. Farkas, 
 J. B. Foresman, and D. J. Fox, Gaussian, Inc., Wallingford CT, 2019.
 
 ******************************************
 Gaussian 16:  ES64L-G16RevC.01  3-Jul-2019
                 7-Mar-2024 
 ******************************************
 %nprocshared=8
 Will use up to    8 processors via shared memory.
 %chk=YIr.chk
 %mem=1GB
 ----------------------------------------------------------
 # wb97xd def2TZVPP SCRF=(solvent=dichloromethane) opt freq
 ----------------------------------------------------------
 1/18=20,19=15,26=3,38=1/1,3;
 2/9=110,12=2,17=6,18=5,40=1/2;
 3/5=44,7=202,11=2,25=1,30=1,70=2201,71=1,72=9,74=-58/1,2,3;
 4//1;
 5/5=2,38=5,53=9/2;
 6/7=2,8=2,9=2,10=2,28=1/1;
 7//1,2,3,16;
 1/18=20,19=15,26=3/3(2);
 2/9=110/2;
 99//99;
 2/9=110/2;
 3/5=44,7=202,11=2,25=1,30=1,70=2205,71=1,72=9,74=-58/1,2,3;
 4/5=5,16=3,69=1/1;
 5/5=2,38=5,53=9/2;
 7//1,2,3,16;
 1/18=20,19=15,26=3/3(-5);
 2/9=110/2;
 6/7=2,8=2,9=2,10=2,19=2,28=1/1;
 99/9=1/99;
 ---
 YIr
 ---
 Symbolic Z-matrix:
 Charge =  0 Multiplicity = 1
 C                    -1.72725  -0.11031   1.22785 
 C                    -1.72725  -0.11031  -1.22785 
 C                    -3.12093  -0.01146   1.22334 
 C                    -3.12093  -0.01146  -1.22334 
 C                    -3.81315   0.07235   0. 
 H                    -3.6828   -0.01863   2.16614 
 H                    -3.6828   -0.01863  -2.16614 
 C                    -0.82677  -0.431     2.39514 
 H                    -0.74499  -1.52951   2.50483 
 H                    -1.16119  -0.01443   3.37027 
 C                    -0.82677  -0.431    -2.39514 
 H                    -0.74499  -1.52951  -2.50483 
 H                    -1.16119  -0.01443  -3.37027 
 N                     0.57248   0.05845   2.09632 
 N                     0.57248   0.05845  -2.09632 
 C                     1.53247  -0.68397   2.93933 
 H                     2.54249  -0.27704   2.76678 
 H                     1.27437  -0.57494   4.01614 
 H                     1.51253  -1.74573   2.6516 
 C                     0.63241   1.49839   2.46434 
 H                     0.47149   1.61143   3.55964 
 H                     1.61566   1.90599   2.18585 
 H                    -0.15105   2.03585   1.90965 
 C                     1.53247  -0.68397  -2.93933 
 H                     1.27437  -0.57494  -4.01614 
 H                     2.54249  -0.27704  -2.76678 
 H                     1.51253  -1.74573  -2.6516 
 C                     0.63241   1.49839  -2.46434 
 H                     1.61566   1.90599  -2.18585 
 H                     0.47149   1.61143  -3.55964 
 H                    -0.15105   2.03585  -1.90965 
 Ir                    0.84028  -0.08824   0. 
 C                    -1.02779  -0.09155   0. 
 H                    -4.90262   0.16558   0. 
 

 GradGradGradGradGradGradGradGradGradGradGradGradGradGradGradGradGradGrad
 Berny optimization.
 Initialization pass.
                           ----------------------------
                           !    Initial Parameters    !
                           ! (Angstroms and Degrees)  !
 --------------------------                            --------------------------
 ! Name  Definition              Value          Derivative Info.                !
 --------------------------------------------------------------------------------
 ! R1    R(1,3)                  1.3972         estimate D2E/DX2                !
 ! R2    R(1,8)                  1.5087         estimate D2E/DX2                !
 ! R3    R(1,33)                 1.4132         estimate D2E/DX2                !
 ! R4    R(2,4)                  1.3972         estimate D2E/DX2                !
 ! R5    R(2,11)                 1.5087         estimate D2E/DX2                !
 ! R6    R(2,33)                 1.4132         estimate D2E/DX2                !
 ! R7    R(3,5)                  1.4081         estimate D2E/DX2                !
 ! R8    R(3,6)                  1.0976         estimate D2E/DX2                !
 ! R9    R(4,5)                  1.4081         estimate D2E/DX2                !
 ! R10   R(4,7)                  1.0976         estimate D2E/DX2                !
 ! R11   R(5,34)                 1.0935         estimate D2E/DX2                !
 ! R12   R(8,9)                  1.107          estimate D2E/DX2                !
 ! R13   R(8,10)                 1.1119         estimate D2E/DX2                !
 ! R14   R(8,14)                 1.5122         estimate D2E/DX2                !
 ! R15   R(11,12)                1.107          estimate D2E/DX2                !
 ! R16   R(11,13)                1.1119         estimate D2E/DX2                !
 ! R17   R(11,15)                1.5122         estimate D2E/DX2                !
 ! R18   R(14,16)                1.4776         estimate D2E/DX2                !
 ! R19   R(14,20)                1.4874         estimate D2E/DX2                !
 ! R20   R(14,32)                2.1184         estimate D2E/DX2                !
 ! R21   R(15,24)                1.4776         estimate D2E/DX2                !
 ! R22   R(15,28)                1.4874         estimate D2E/DX2                !
 ! R23   R(15,32)                2.1184         estimate D2E/DX2                !
 ! R24   R(16,17)                1.1025         estimate D2E/DX2                !
 ! R25   R(16,18)                1.1127         estimate D2E/DX2                !
 ! R26   R(16,19)                1.1002         estimate D2E/DX2                !
 ! R27   R(20,21)                1.1128         estimate D2E/DX2                !
 ! R28   R(20,22)                1.1002         estimate D2E/DX2                !
 ! R29   R(20,23)                1.1002         estimate D2E/DX2                !
 ! R30   R(24,25)                1.1127         estimate D2E/DX2                !
 ! R31   R(24,26)                1.1025         estimate D2E/DX2                !
 ! R32   R(24,27)                1.1002         estimate D2E/DX2                !
 ! R33   R(28,29)                1.1002         estimate D2E/DX2                !
 ! R34   R(28,30)                1.1128         estimate D2E/DX2                !
 ! R35   R(28,31)                1.1002         estimate D2E/DX2                !
 ! R36   R(32,33)                1.8681         estimate D2E/DX2                !
 ! A1    A(3,1,8)              127.7982         estimate D2E/DX2                !
 ! A2    A(3,1,33)             119.3374         estimate D2E/DX2                !
 ! A3    A(8,1,33)             112.3103         estimate D2E/DX2                !
 ! A4    A(4,2,11)             127.7982         estimate D2E/DX2                !
 ! A5    A(4,2,33)             119.3374         estimate D2E/DX2                !
 ! A6    A(11,2,33)            112.3103         estimate D2E/DX2                !
 ! A7    A(1,3,5)              119.8267         estimate D2E/DX2                !
 ! A8    A(1,3,6)              120.4914         estimate D2E/DX2                !
 ! A9    A(5,3,6)              119.6707         estimate D2E/DX2                !
 ! A10   A(2,4,5)              119.8267         estimate D2E/DX2                !
 ! A11   A(2,4,7)              120.4914         estimate D2E/DX2                !
 ! A12   A(5,4,7)              119.6707         estimate D2E/DX2                !
 ! A13   A(3,5,4)              120.6357         estimate D2E/DX2                !
 ! A14   A(3,5,34)             119.662          estimate D2E/DX2                !
 ! A15   A(4,5,34)             119.662          estimate D2E/DX2                !
 ! A16   A(1,8,9)              109.3709         estimate D2E/DX2                !
 ! A17   A(1,8,10)             114.7961         estimate D2E/DX2                !
 ! A18   A(1,8,14)             109.3041         estimate D2E/DX2                !
 ! A19   A(9,8,10)             107.8848         estimate D2E/DX2                !
 ! A20   A(9,8,14)             105.8076         estimate D2E/DX2                !
 ! A21   A(10,8,14)            109.2899         estimate D2E/DX2                !
 ! A22   A(2,11,12)            109.3709         estimate D2E/DX2                !
 ! A23   A(2,11,13)            114.7961         estimate D2E/DX2                !
 ! A24   A(2,11,15)            109.3041         estimate D2E/DX2                !
 ! A25   A(12,11,13)           107.8848         estimate D2E/DX2                !
 ! A26   A(12,11,15)           105.8076         estimate D2E/DX2                !
 ! A27   A(13,11,15)           109.2899         estimate D2E/DX2                !
 ! A28   A(8,14,16)            109.0135         estimate D2E/DX2                !
 ! A29   A(8,14,20)            107.5611         estimate D2E/DX2                !
 ! A30   A(8,14,32)            106.864          estimate D2E/DX2                !
 ! A31   A(16,14,20)           108.6061         estimate D2E/DX2                !
 ! A32   A(16,14,32)           116.5919         estimate D2E/DX2                !
 ! A33   A(20,14,32)           107.865          estimate D2E/DX2                !
 ! A34   A(11,15,24)           109.0135         estimate D2E/DX2                !
 ! A35   A(11,15,28)           107.5611         estimate D2E/DX2                !
 ! A36   A(11,15,32)           106.864          estimate D2E/DX2                !
 ! A37   A(24,15,28)           108.6061         estimate D2E/DX2                !
 ! A38   A(24,15,32)           116.5919         estimate D2E/DX2                !
 ! A39   A(28,15,32)           107.865          estimate D2E/DX2                !
 ! A40   A(14,16,17)           108.6897         estimate D2E/DX2                !
 ! A41   A(14,16,18)           110.6213         estimate D2E/DX2                !
 ! A42   A(14,16,19)           108.8985         estimate D2E/DX2                !
 ! A43   A(17,16,18)           109.1356         estimate D2E/DX2                !
 ! A44   A(17,16,19)           109.3819         estimate D2E/DX2                !
 ! A45   A(18,16,19)           110.0871         estimate D2E/DX2                !
 ! A46   A(14,20,21)           109.6356         estimate D2E/DX2                !
 ! A47   A(14,20,22)           109.3916         estimate D2E/DX2                !
 ! A48   A(14,20,23)           108.6322         estimate D2E/DX2                !
 ! A49   A(21,20,22)           109.9219         estimate D2E/DX2                !
 ! A50   A(21,20,23)           110.0995         estimate D2E/DX2                !
 ! A51   A(22,20,23)           109.1362         estimate D2E/DX2                !
 ! A52   A(15,24,25)           110.6213         estimate D2E/DX2                !
 ! A53   A(15,24,26)           108.6897         estimate D2E/DX2                !
 ! A54   A(15,24,27)           108.8985         estimate D2E/DX2                !
 ! A55   A(25,24,26)           109.1356         estimate D2E/DX2                !
 ! A56   A(25,24,27)           110.0871         estimate D2E/DX2                !
 ! A57   A(26,24,27)           109.3819         estimate D2E/DX2                !
 ! A58   A(15,28,29)           109.3916         estimate D2E/DX2                !
 ! A59   A(15,28,30)           109.6356         estimate D2E/DX2                !
 ! A60   A(15,28,31)           108.6322         estimate D2E/DX2                !
 ! A61   A(29,28,30)           109.9219         estimate D2E/DX2                !
 ! A62   A(29,28,31)           109.1362         estimate D2E/DX2                !
 ! A63   A(30,28,31)           110.0995         estimate D2E/DX2                !
 ! A64   A(14,32,15)           163.4255         estimate D2E/DX2                !
 ! A65   A(14,32,33)            82.7447         estimate D2E/DX2                !
 ! A66   A(15,32,33)            82.7447         estimate D2E/DX2                !
 ! A67   A(1,33,2)             120.6452         estimate D2E/DX2                !
 ! A68   A(1,33,32)            119.6672         estimate D2E/DX2                !
 ! A69   A(2,33,32)            119.6672         estimate D2E/DX2                !
 ! D1    D(8,1,3,5)           -169.2155         estimate D2E/DX2                !
 ! D2    D(8,1,3,6)              9.5661         estimate D2E/DX2                !
 ! D3    D(33,1,3,5)             1.5491         estimate D2E/DX2                !
 ! D4    D(33,1,3,6)          -179.6693         estimate D2E/DX2                !
 ! D5    D(3,1,8,9)             85.4554         estimate D2E/DX2                !
 ! D6    D(3,1,8,10)           -35.9451         estimate D2E/DX2                !
 ! D7    D(3,1,8,14)          -159.1337         estimate D2E/DX2                !
 ! D8    D(33,1,8,9)           -85.8464         estimate D2E/DX2                !
 ! D9    D(33,1,8,10)          152.753          estimate D2E/DX2                !
 ! D10   D(33,1,8,14)           29.5645         estimate D2E/DX2                !
 ! D11   D(3,1,33,2)            -6.4195         estimate D2E/DX2                !
 ! D12   D(3,1,33,32)          175.2319         estimate D2E/DX2                !
 ! D13   D(8,1,33,2)           165.7018         estimate D2E/DX2                !
 ! D14   D(8,1,33,32)          -12.6469         estimate D2E/DX2                !
 ! D15   D(11,2,4,5)           169.2155         estimate D2E/DX2                !
 ! D16   D(11,2,4,7)            -9.5661         estimate D2E/DX2                !
 ! D17   D(33,2,4,5)            -1.5491         estimate D2E/DX2                !
 ! D18   D(33,2,4,7)           179.6693         estimate D2E/DX2                !
 ! D19   D(4,2,11,12)          -85.4554         estimate D2E/DX2                !
 ! D20   D(4,2,11,13)           35.9451         estimate D2E/DX2                !
 ! D21   D(4,2,11,15)          159.1337         estimate D2E/DX2                !
 ! D22   D(33,2,11,12)          85.8464         estimate D2E/DX2                !
 ! D23   D(33,2,11,13)        -152.753          estimate D2E/DX2                !
 ! D24   D(33,2,11,15)         -29.5645         estimate D2E/DX2                !
 ! D25   D(4,2,33,1)             6.4195         estimate D2E/DX2                !
 ! D26   D(4,2,33,32)         -175.2319         estimate D2E/DX2                !
 ! D27   D(11,2,33,1)         -165.7018         estimate D2E/DX2                !
 ! D28   D(11,2,33,32)          12.6469         estimate D2E/DX2                !
 ! D29   D(1,3,5,4)              3.2815         estimate D2E/DX2                !
 ! D30   D(1,3,5,34)          -179.0345         estimate D2E/DX2                !
 ! D31   D(6,3,5,4)           -175.5102         estimate D2E/DX2                !
 ! D32   D(6,3,5,34)             2.1738         estimate D2E/DX2                !
 ! D33   D(2,4,5,3)             -3.2815         estimate D2E/DX2                !
 ! D34   D(2,4,5,34)           179.0345         estimate D2E/DX2                !
 ! D35   D(7,4,5,3)            175.5102         estimate D2E/DX2                !
 ! D36   D(7,4,5,34)            -2.1738         estimate D2E/DX2                !
 ! D37   D(1,8,14,16)         -158.1607         estimate D2E/DX2                !
 ! D38   D(1,8,14,20)           84.257          estimate D2E/DX2                !
 ! D39   D(1,8,14,32)          -31.3481         estimate D2E/DX2                !
 ! D40   D(9,8,14,16)          -40.4879         estimate D2E/DX2                !
 ! D41   D(9,8,14,20)         -158.0702         estimate D2E/DX2                !
 ! D42   D(9,8,14,32)           86.3247         estimate D2E/DX2                !
 ! D43   D(10,8,14,16)          75.4406         estimate D2E/DX2                !
 ! D44   D(10,8,14,20)         -42.1418         estimate D2E/DX2                !
 ! D45   D(10,8,14,32)        -157.7469         estimate D2E/DX2                !
 ! D46   D(2,11,15,24)         158.1607         estimate D2E/DX2                !
 ! D47   D(2,11,15,28)         -84.257          estimate D2E/DX2                !
 ! D48   D(2,11,15,32)          31.3481         estimate D2E/DX2                !
 ! D49   D(12,11,15,24)         40.4879         estimate D2E/DX2                !
 ! D50   D(12,11,15,28)        158.0702         estimate D2E/DX2                !
 ! D51   D(12,11,15,32)        -86.3247         estimate D2E/DX2                !
 ! D52   D(13,11,15,24)        -75.4406         estimate D2E/DX2                !
 ! D53   D(13,11,15,28)         42.1418         estimate D2E/DX2                !
 ! D54   D(13,11,15,32)        157.7469         estimate D2E/DX2                !
 ! D55   D(8,14,16,17)        -176.2645         estimate D2E/DX2                !
 ! D56   D(8,14,16,18)         -56.4603         estimate D2E/DX2                !
 ! D57   D(8,14,16,19)          64.6504         estimate D2E/DX2                !
 ! D58   D(20,14,16,17)        -59.3447         estimate D2E/DX2                !
 ! D59   D(20,14,16,18)         60.4595         estimate D2E/DX2                !
 ! D60   D(20,14,16,19)       -178.4298         estimate D2E/DX2                !
 ! D61   D(32,14,16,17)         62.6953         estimate D2E/DX2                !
 ! D62   D(32,14,16,18)       -177.5005         estimate D2E/DX2                !
 ! D63   D(32,14,16,19)        -56.3898         estimate D2E/DX2                !
 ! D64   D(8,14,20,21)          63.7744         estimate D2E/DX2                !
 ! D65   D(8,14,20,22)        -175.6204         estimate D2E/DX2                !
 ! D66   D(8,14,20,23)         -56.5797         estimate D2E/DX2                !
 ! D67   D(16,14,20,21)        -54.0721         estimate D2E/DX2                !
 ! D68   D(16,14,20,22)         66.5331         estimate D2E/DX2                !
 ! D69   D(16,14,20,23)       -174.4262         estimate D2E/DX2                !
 ! D70   D(32,14,20,21)        178.7165         estimate D2E/DX2                !
 ! D71   D(32,14,20,22)        -60.6783         estimate D2E/DX2                !
 ! D72   D(32,14,20,23)         58.3624         estimate D2E/DX2                !
 ! D73   D(8,14,32,15)          49.5637         estimate D2E/DX2                !
 ! D74   D(8,14,32,33)          20.4954         estimate D2E/DX2                !
 ! D75   D(16,14,32,15)        171.7349         estimate D2E/DX2                !
 ! D76   D(16,14,32,33)        142.6665         estimate D2E/DX2                !
 ! D77   D(20,14,32,15)        -65.8378         estimate D2E/DX2                !
 ! D78   D(20,14,32,33)        -94.9062         estimate D2E/DX2                !
 ! D79   D(11,15,24,25)         56.4603         estimate D2E/DX2                !
 ! D80   D(11,15,24,26)        176.2645         estimate D2E/DX2                !
 ! D81   D(11,15,24,27)        -64.6504         estimate D2E/DX2                !
 ! D82   D(28,15,24,25)        -60.4595         estimate D2E/DX2                !
 ! D83   D(28,15,24,26)         59.3447         estimate D2E/DX2                !
 ! D84   D(28,15,24,27)        178.4298         estimate D2E/DX2                !
 ! D85   D(32,15,24,25)        177.5005         estimate D2E/DX2                !
 ! D86   D(32,15,24,26)        -62.6953         estimate D2E/DX2                !
 ! D87   D(32,15,24,27)         56.3898         estimate D2E/DX2                !
 ! D88   D(11,15,28,29)        175.6204         estimate D2E/DX2                !
 ! D89   D(11,15,28,30)        -63.7744         estimate D2E/DX2                !
 ! D90   D(11,15,28,31)         56.5797         estimate D2E/DX2                !
 ! D91   D(24,15,28,29)        -66.5331         estimate D2E/DX2                !
 ! D92   D(24,15,28,30)         54.0721         estimate D2E/DX2                !
 ! D93   D(24,15,28,31)        174.4262         estimate D2E/DX2                !
 ! D94   D(32,15,28,29)         60.6783         estimate D2E/DX2                !
 ! D95   D(32,15,28,30)       -178.7165         estimate D2E/DX2                !
 ! D96   D(32,15,28,31)        -58.3624         estimate D2E/DX2                !
 ! D97   D(11,15,32,14)        -49.5637         estimate D2E/DX2                !
 ! D98   D(11,15,32,33)        -20.4954         estimate D2E/DX2                !
 ! D99   D(24,15,32,14)       -171.7349         estimate D2E/DX2                !
 ! D100  D(24,15,32,33)       -142.6665         estimate D2E/DX2                !
 ! D101  D(28,15,32,14)         65.8378         estimate D2E/DX2                !
 ! D102  D(28,15,32,33)         94.9062         estimate D2E/DX2                !
 ! D103  D(14,32,33,1)          -4.8332         estimate D2E/DX2                !
 ! D104  D(14,32,33,2)         176.8019         estimate D2E/DX2                !
 ! D105  D(15,32,33,1)        -176.8019         estimate D2E/DX2                !
 ! D106  D(15,32,33,2)           4.8332         estimate D2E/DX2                !
 --------------------------------------------------------------------------------
 Trust Radius=3.00D-01 FncErr=1.00D-07 GrdErr=1.00D-06 EigMax=2.50D+02 EigMin=1.00D-04
 Number of steps in this run=    204 maximum allowed number of steps=    204.
 GradGradGradGradGradGradGradGradGradGradGradGradGradGradGradGradGradGrad

                          Input orientation:                          
 ---------------------------------------------------------------------
 Center     Atomic      Atomic             Coordinates (Angstroms)
 Number     Number       Type             X           Y           Z
 ---------------------------------------------------------------------
      1          6           0       -1.727250   -0.110310    1.227850
      2          6           0       -1.727250   -0.110310   -1.227850
      3          6           0       -3.120930   -0.011460    1.223340
      4          6           0       -3.120930   -0.011460   -1.223340
      5          6           0       -3.813150    0.072350    0.000000
      6          1           0       -3.682800   -0.018630    2.166140
      7          1           0       -3.682800   -0.018630   -2.166140
      8          6           0       -0.826770   -0.431000    2.395140
      9          1           0       -0.744990   -1.529510    2.504830
     10          1           0       -1.161190   -0.014430    3.370270
     11          6           0       -0.826770   -0.431000   -2.395140
     12          1           0       -0.744990   -1.529510   -2.504830
     13          1           0       -1.161190   -0.014430   -3.370270
     14          7           0        0.572480    0.058450    2.096320
     15          7           0        0.572480    0.058450   -2.096320
     16          6           0        1.532470   -0.683970    2.939330
     17          1           0        2.542490   -0.277040    2.766780
     18          1           0        1.274370   -0.574940    4.016140
     19          1           0        1.512530   -1.745730    2.651600
     20          6           0        0.632410    1.498390    2.464340
     21          1           0        0.471490    1.611430    3.559640
     22          1           0        1.615660    1.905990    2.185850
     23          1           0       -0.151050    2.035850    1.909650
     24          6           0        1.532470   -0.683970   -2.939330
     25          1           0        1.274370   -0.574940   -4.016140
     26          1           0        2.542490   -0.277040   -2.766780
     27          1           0        1.512530   -1.745730   -2.651600
     28          6           0        0.632410    1.498390   -2.464340
     29          1           0        1.615660    1.905990   -2.185850
     30          1           0        0.471490    1.611430   -3.559640
     31          1           0       -0.151050    2.035850   -1.909650
     32         77           0        0.840280   -0.088240    0.000000
     33          6           0       -1.027790   -0.091550    0.000000
     34          1           0       -4.902620    0.165580    0.000000
 ---------------------------------------------------------------------
                    Distance matrix (angstroms):
                    1          2          3          4          5
     1  C    0.000000
     2  C    2.455700   0.000000
     3  C    1.397188   2.821427   0.000000
     4  C    2.821427   1.397188   2.446680   0.000000
     5  C    2.427336   2.427336   1.408103   1.408103   0.000000
     6  H    2.170937   3.918131   1.097552   3.435742   2.171965
     7  H    3.918131   2.170937   3.435742   1.097552   2.171965
     8  C    1.508732   3.746967   2.610038   4.304948   3.861156
     9  H    2.147008   4.112404   3.097060   4.674272   4.272439
    10  H    2.218013   4.633824   2.906871   4.994181   4.289422
    11  C    3.746967   1.508732   4.304948   2.610038   3.861156
    12  H    4.112404   2.147008   4.674272   3.097060   4.272439
    13  H    4.633824   2.218013   4.994181   2.906871   4.289422
    14  N    2.464037   4.045657   3.795821   4.966519   4.860916
    15  N    4.045657   2.464037   4.966519   3.795821   4.860916
    16  C    3.726127   5.321677   5.005100   6.279667   6.147140
    17  H    4.541672   5.849406   5.875974   6.932959   6.940555
    18  H    4.123126   6.060118   5.237929   6.862093   6.513925
    19  H    3.898440   5.312335   5.149424   6.284250   6.220873
    20  C    3.112044   4.667781   4.231701   5.474138   5.279163
    21  H    3.638144   5.542464   4.582308   6.198076   5.779095
    22  H    4.019736   5.185929   5.199839   6.142839   6.132875
    23  H    2.748683   4.115132   3.671878   4.777792   4.573081
    24  C    5.321677   3.726127   6.279667   5.005100   6.147140
    25  H    6.060118   4.123126   6.862093   5.237929   6.513925
    26  H    5.849406   4.541672   6.932959   5.875974   6.940555
    27  H    5.312335   3.898440   6.284250   5.149424   6.220873
    28  C    4.667781   3.112044   5.474138   4.231701   5.279163
    29  H    5.185929   4.019736   6.142839   5.199839   6.132875
    30  H    5.542464   3.638144   6.198076   4.582308   5.779095
    31  H    4.115132   2.748683   4.777792   3.671878   4.573081
    32  Ir   2.846105   2.846105   4.146522   4.146522   4.656200
    33  C    1.413227   1.413227   2.425739   2.425739   2.790178
    34  H    3.415656   3.415656   2.168484   2.168484   1.093452
                    6          7          8          9         10
     6  H    0.000000
     7  H    4.332280   0.000000
     8  C    2.894719   5.397428   0.000000
     9  H    3.320873   5.721140   1.106998   0.000000
    10  H    2.794363   6.083615   1.111866   1.793788   0.000000
    11  C    5.397428   2.894719   4.790280   5.022262   5.790105
    12  H    5.721140   3.320873   5.022262   5.009660   6.081570
    13  H    6.083615   2.794363   5.790105   6.081570   6.740540
    14  N    4.256551   6.023447   1.512202   2.103384   2.152643
    15  N    6.023447   4.256551   4.729765   5.042611   5.735375
    16  C    5.314089   7.328543   2.434368   2.467904   2.808878
    17  H    6.259535   7.946994   3.393189   3.527722   3.761703
    18  H    5.320293   7.943778   2.657659   2.696864   2.581331
    19  H    5.496362   7.292801   2.695665   2.272595   3.265374
    20  C    4.583810   6.508743   2.420029   3.326717   2.515221
    21  H    4.675154   7.259461   2.685714   3.529582   2.311910
    22  H    5.637218   7.121633   3.386855   4.180559   3.577955
    23  H    4.093890   5.771153   2.603391   3.663167   2.712460
    24  C    7.328543   5.314089   5.838371   5.961597   6.893123
    25  H    7.943778   5.320293   6.748335   6.892900   7.797767
    26  H    7.946994   6.259535   6.166120   6.337671   7.172837
    27  H    7.292801   5.496362   5.715805   5.633109   6.812422
    28  C    6.508743   4.583810   5.428287   5.979804   6.288744
    29  H    7.121633   5.637218   5.693194   6.275174   6.501490
    30  H    7.259461   4.675154   6.427784   6.937083   7.302925
    31  H    5.771153   4.093890   5.007311   5.705453   5.753398
    32  Ir   5.015502   5.015502   2.938237   3.296136   3.920466
    33  C    3.427325   3.427325   2.427412   2.902047   3.373791
    34  H    2.492801   2.492801   4.764993   5.141341   5.038792
                   11         12         13         14         15
    11  C    0.000000
    12  H    1.106998   0.000000
    13  H    1.111866   1.793788   0.000000
    14  N    4.729765   5.042611   5.735375   0.000000
    15  N    1.512202   2.103384   2.152643   4.192640   0.000000
    16  C    5.838371   5.961597   6.893123   1.477645   5.179820
    17  H    6.166120   6.337671   7.172837   2.107845   5.257683
    18  H    6.748335   6.892900   7.797767   2.139986   6.185143
    19  H    5.715805   5.633109   6.812422   2.108814   5.165414
    20  C    5.428287   5.979804   6.288744   1.487433   4.782953
    21  H    6.427784   6.937083   7.302925   2.136177   5.866160
    22  H    5.693194   6.275174   6.501490   2.123592   4.778976
    23  H    5.007311   5.705453   5.753398   2.113871   4.525638
    24  C    2.434368   2.467904   2.808878   5.179820   1.477645
    25  H    2.657659   2.696864   2.581331   6.185143   2.139986
    26  H    3.393189   3.527722   3.761703   5.257683   2.107845
    27  H    2.695665   2.272595   3.265374   5.165414   2.108814
    28  C    2.420029   3.326717   2.515221   4.782953   1.487433
    29  H    3.386855   4.180559   3.577955   4.778976   2.123592
    30  H    2.685714   3.529582   2.311910   5.866160   2.136177
    31  H    2.603391   3.663167   2.712460   4.525638   2.113871
    32  Ir   2.938237   3.296136   3.920466   2.118441   2.118441
    33  C    2.427412   2.902047   3.373791   2.641576   2.641576
    34  H    4.764993   5.141341   5.038792   5.863681   5.863681
                   16         17         18         19         20
    16  C    0.000000
    17  H    1.102500   0.000000
    18  H    1.112665   1.804930   0.000000
    19  H    1.100237   1.797536   1.813681   0.000000
    20  C    2.407991   2.625267   2.668125   3.366599   0.000000
    21  H    2.603714   2.912728   2.373441   3.630265   1.112814
    22  H    2.698619   2.441744   3.101847   3.682746   1.100216
    23  H    3.360342   3.652299   3.644907   4.197420   1.100161
    24  C    5.878660   5.809081   6.961111   5.690890   5.896817
    25  H    6.961111   6.906872   8.032280   6.773937   6.834284
    26  H    5.809081   5.533560   6.906872   5.707601   5.845098
    27  H    5.690890   5.707601   6.773937   5.303200   6.121419
    28  C    5.896817   5.845098   6.834284   6.121419   4.928680
    29  H    5.743020   5.491191   6.688510   6.061899   4.770449
    30  H    6.973604   6.919462   7.925735   7.136791   6.027189
    31  H    5.808982   5.871424   6.630463   6.154092   4.475987
    32  Ir   3.077935   3.253957   4.068746   3.198465   2.938295
    33  C    3.942785   4.520661   4.654351   4.027471   3.370036
    34  H    7.125432   7.954913   7.404928   7.199878   6.203701
                   21         22         23         24         25
    21  H    0.000000
    22  H    1.811957   0.000000
    23  H    1.813879   1.792879   0.000000
    24  C    6.973604   5.743020   5.808982   0.000000
    25  H    7.925735   6.688510   6.630463   1.112665   0.000000
    26  H    6.919462   5.491191   5.871424   1.102500   1.804930
    27  H    7.136791   6.061899   6.154092   1.100237   1.813681
    28  C    6.027189   4.770449   4.475987   2.407991   2.668125
    29  H    5.865709   4.371700   4.462202   2.698619   3.101847
    30  H    7.119280   5.865709   5.520944   2.603714   2.373441
    31  H    5.520944   4.462202   3.819300   3.360342   3.644907
    32  Ir   3.961808   3.058776   3.023451   3.077935   4.068746
    33  C    4.221258   3.969375   2.990195   3.942785   4.654351
    34  H    6.606253   7.091893   5.451797   7.125432   7.404928
                   26         27         28         29         30
    26  H    0.000000
    27  H    1.797536   0.000000
    28  C    2.625267   3.366599   0.000000
    29  H    2.441744   3.682746   1.100216   0.000000
    30  H    2.912728   3.630265   1.112814   1.811957   0.000000
    31  H    3.652299   4.197420   1.100161   1.792879   1.813879
    32  Ir   3.253957   3.198465   2.938295   3.058776   3.961808
    33  C    4.520661   4.027471   3.370036   3.969375   4.221258
    34  H    7.954913   7.199878   6.203701   7.091893   6.606253
                   31         32         33         34
    31  H    0.000000
    32  Ir   3.023451   0.000000
    33  C    2.990195   1.868073   0.000000
    34  H    5.451797   5.748506   3.883352   0.000000
 Stoichiometry    C12H19IrN2
 Framework group  CS[SG(C2HIr),X(C10H18N2)]
 Deg. of freedom    50
 Full point group                 CS      NOp   2
 Largest Abelian subgroup         CS      NOp   2
 Largest concise Abelian subgroup CS      NOp   2
                         Standard orientation:                         
 ---------------------------------------------------------------------
 Center     Atomic      Atomic             Coordinates (Angstroms)
 Number     Number       Type             X           Y           Z
 ---------------------------------------------------------------------
      1          6           0       -1.727251   -0.110312    1.227850
      2          6           0       -1.727251   -0.110312   -1.227850
      3          6           0       -3.120931   -0.011464    1.223340
      4          6           0       -3.120931   -0.011464   -1.223340
      5          6           0       -3.813151    0.072345    0.000000
      6          1           0       -3.682801   -0.018635    2.166140
      7          1           0       -3.682801   -0.018635   -2.166140
      8          6           0       -0.826771   -0.431001    2.395140
      9          1           0       -0.744989   -1.529511    2.504830
     10          1           0       -1.161191   -0.014431    3.370270
     11          6           0       -0.826771   -0.431001   -2.395140
     12          1           0       -0.744989   -1.529511   -2.504830
     13          1           0       -1.161191   -0.014431   -3.370270
     14          7           0        0.572479    0.058451    2.096320
     15          7           0        0.572479    0.058451   -2.096320
     16          6           0        1.532470   -0.683968    2.939330
     17          1           0        2.542489   -0.277037    2.766780
     18          1           0        1.274370   -0.574938    4.016140
     19          1           0        1.512531   -1.745728    2.651600
     20          6           0        0.632407    1.498391    2.464340
     21          1           0        0.471487    1.611431    3.559640
     22          1           0        1.615656    1.905992    2.185850
     23          1           0       -0.151054    2.035850    1.909650
     24          6           0        1.532470   -0.683968   -2.939330
     25          1           0        1.274370   -0.574938   -4.016140
     26          1           0        2.542489   -0.277037   -2.766780
     27          1           0        1.512531   -1.745728   -2.651600
     28          6           0        0.632407    1.498391   -2.464340
     29          1           0        1.615656    1.905992   -2.185850
     30          1           0        0.471487    1.611431   -3.559640
     31          1           0       -0.151054    2.035850   -1.909650
     32         77           0        0.840279   -0.088239   -0.000000
     33          6           0       -1.027791   -0.091551    0.000000
     34          1           0       -4.902621    0.165574    0.000000
 ---------------------------------------------------------------------
 Rotational constants (GHZ):           0.5593792           0.5377968           0.3091137
 Standard basis: def2TZVPP (5D, 7F)
 There are   459 symmetry adapted cartesian basis functions of A'  symmetry.
 There are   401 symmetry adapted cartesian basis functions of A"  symmetry.
 There are   400 symmetry adapted basis functions of A'  symmetry.
 There are   356 symmetry adapted basis functions of A"  symmetry.
   756 basis functions,  1137 primitive gaussians,   860 cartesian basis functions
    61 alpha electrons       61 beta electrons
       nuclear repulsion energy      1210.9359501319 Hartrees.
 NAtoms=   34 NActive=   34 NUniq=   19 SFac= 3.20D+00 NAtFMM=   60 NAOKFM=F Big=F
 Integral buffers will be    131072 words long.
 Raffenetti 2 integral format.
 Two-electron integral symmetry is turned on.
 Nuclear repulsion after empirical dispersion term =     1210.9008748105 Hartrees.
 ------------------------------------------------------------------------------
 Polarizable Continuum Model (PCM)
 =================================
 Model                : PCM.
 Atomic radii         : UFF (Universal Force Field).
 Polarization charges : Total charges.
 Charge compensation  : None.
 Solution method      : On-the-fly selection.
 Cavity type          : Scaled VdW (van der Waals Surface) (Alpha=1.100).
 Cavity algorithm     : GePol (No added spheres)
                        Default sphere list used, NSphG=   34.
                        Lebedev-Laikov grids with approx.  5.0 points / Ang**2.
                        Smoothing algorithm: York/Karplus (Gamma=1.0000).
                        Polarization charges: spherical gaussians, with
                                              point-specific exponents (IZeta= 3).
                        Self-potential: point-specific (ISelfS= 7).
                        Self-field    : sphere-specific E.n sum rule (ISelfD= 2).
 1st derivatives      : Analytical E(r).r(x)/FMM algorithm (CHGder, D1EAlg=3).
                        Cavity 1st derivative terms included.
 Solvent              : Dichloromethane, Eps=   8.930000 Eps(inf)=   2.028346
 ------------------------------------------------------------------------------
 One-electron integrals computed using PRISM.
 PrsmSu:  requested number of processors reduced to:   5 ShMem   1 Linda.
   2 Symmetry operations used in ECPInt.
 ECPInt:  NShTT=   40470 NPrTT=  104576 LenC2=   37078 LenP2D=   74365.
 LDataN:  DoStor=T MaxTD1= 9 Len=  602
 NBasis=   756 RedAO= T EigKep=  6.60D-06  NBF=   400   356
 NBsUse=   756 1.00D-06 EigRej= -1.00D+00 NBFU=   400   356
 Defaulting to unpruned grid for atomic number  77.
 ExpMin= 5.00D-02 ExpMax= 1.97D+04 ExpMxC= 6.73D+02 IAcc=3 IRadAn=         5 AccDes= 0.00D+00
 Harris functional with IExCor= 4639 and IRadAn=       5 diagonalized for initial guess.
 HarFok:  IExCor= 4639 AccDes= 0.00D+00 IRadAn=         5 IDoV= 1 UseB2=F ITyADJ=14
 ICtDFT=  3500011 ScaDFX=  1.000000  1.000000  1.000000  1.000000
 Defaulting to unpruned grid for atomic number  77.
 FoFCou: FMM=F IPFlag=           0 FMFlag=      100000 FMFlg1=           0
         NFxFlg=           0 DoJE=T BraDBF=F KetDBF=T FulRan=T
         wScrn=  0.000000 ICntrl=       500 IOpCl=  0 I1Cent=   200000004 NGrid=           0
         NMat0=    1 NMatS0=      1 NMatT0=    0 NMatD0=    1 NMtDS0=    0 NMtDT0=    0
 Petite list used in FoFCou.
 Initial guess orbital symmetries:
       Occupied  (A") (A') (A") (A') (A") (A') (A') (A") (A') (A")
                 (A') (A') (A") (A') (A') (A') (A") (A') (A') (A")
                 (A') (A") (A') (A") (A') (A") (A') (A') (A") (A')
                 (A") (A') (A") (A') (A") (A') (A') (A") (A") (A')
                 (A') (A") (A") (A') (A') (A") (A') (A") (A') (A")
                 (A') (A") (A') (A') (A') (A") (A") (A') (A') (A")
                 (A")
       Virtual   (A") (A') (A') (A') (A') (A") (A') (A') (A") (A")
                 (A') (A') (A") (A') (A") (A') (A") (A') (A') (A")
                 (A") (A') (A') (A') (A') (A") (A") (A') (A") (A")
                 (A') (A') (A") (A") (A') (A') (A') (A') (A") (A")
                 (A") (A') (A') (A') (A') (A") (A') (A") (A") (A')
                 (A") (A') (A") (A") (A') (A') (A') (A") (A") (A')
                 (A') (A") (A') (A') (A') (A") (A") (A') (A") (A')
                 (A") (A') (A') (A') (A") (A") (A') (A') (A") (A')
                 (A") (A") (A') (A") (A') (A') (A") (A') (A") (A')
                 (A") (A') (A") (A') (A") (A") (A') (A') (A") (A')
                 (A") (A') (A") (A') (A') (A") (A") (A') (A') (A")
                 (A") (A") (A') (A') (A') (A') (A") (A") (A') (A")
                 (A') (A") (A') (A') (A") (A") (A') (A") (A') (A")
                 (A') (A") (A') (A') (A") (A') (A') (A") (A") (A')
                 (A') (A") (A') (A") (A') (A") (A") (A') (A') (A")
                 (A') (A") (A") (A') (A') (A') (A') (A") (A') (A")
                 (A") (A') (A") (A") (A') (A") (A") (A') (A') (A')
                 (A") (A') (A') (A") (A') (A") (A") (A') (A') (A")
                 (A") (A') (A") (A') (A') (A") (A') (A") (A') (A')
                 (A") (A") (A') (A") (A') (A") (A') (A") (A") (A')
                 (A") (A') (A") (A') (A') (A') (A") (A") (A') (A")
                 (A') (A") (A') (A") (A') (A') (A") (A") (A') (A')
                 (A") (A') (A') (A') (A") (A') (A") (A") (A") (A')
                 (A') (A") (A') (A") (A') (A') (A") (A') (A") (A")
                 (A') (A') (A') (A") (A") (A") (A') (A") (A') (A")
                 (A') (A') (A') (A") (A") (A') (A") (A') (A") (A')
                 (A') (A") (A') (A') (A") (A") (A") (A') (A') (A")
                 (A') (A') (A") (A") (A') (A") (A') (A") (A") (A')
                 (A') (A") (A") (A') (A') (A') (A') (A") (A") (A')
                 (A") (A') (A") (A") (A') (A") (A') (A') (A') (A")
                 (A") (A') (A') (A") (A") (A') (A") (A') (A') (A")
                 (A') (A") (A') (A") (A') (A') (A") (A") (A') (A')
                 (A") (A") (A') (A') (A") (A") (A') (A") (A') (A')
                 (A") (A') (A') (A") (A") (A') (A") (A') (A') (A")
                 (A") (A') (A') (A") (A') (A") (A") (A') (A") (A')
                 (A') (A") (A') (A") (A') (A') (A") (A") (A') (A")
                 (A') (A") (A') (A") (A') (A') (A") (A') (A') (A")
                 (A") (A") (A') (A') (A") (A") (A') (A") (A') (A")
                 (A') (A') (A") (A') (A") (A') (A') (A") (A") (A')
                 (A') (A") (A') (A") (A") (A') (A") (A') (A') (A")
                 (A') (A') (A") (A') (A') (A") (A") (A") (A') (A')
                 (A") (A") (A') (A") (A') (A") (A") (A') (A') (A")
                 (A') (A") (A') (A") (A') (A') (A") (A") (A') (A')
                 (A") (A") (A') (A") (A') (A') (A') (A") (A") (A")
                 (A') (A") (A') (A') (A") (A') (A") (A") (A') (A")
                 (A') (A") (A') (A') (A') (A") (A") (A') (A") (A')
                 (A") (A') (A') (A") (A") (A') (A') (A") (A') (A")
                 (A') (A") (A') (A") (A") (A') (A') (A") (A") (A')
                 (A") (A') (A") (A') (A') (A") (A') (A") (A") (A')
                 (A') (A") (A') (A") (A') (A") (A') (A') (A") (A')
                 (A") (A") (A') (A") (A') (A") (A") (A') (A") (A')
                 (A") (A') (A') (A") (A') (A") (A') (A") (A') (A")
                 (A') (A') (A") (A') (A") (A") (A') (A") (A') (A")
                 (A') (A') (A") (A") (A') (A") (A') (A') (A") (A")
                 (A') (A") (A') (A') (A") (A') (A') (A") (A') (A")
                 (A") (A') (A') (A") (A") (A') (A") (A') (A") (A')
                 (A") (A') (A') (A") (A') (A") (A') (A") (A') (A')
                 (A") (A') (A") (A') (A") (A') (A") (A') (A") (A")
                 (A') (A") (A') (A') (A") (A") (A') (A") (A') (A")
                 (A') (A") (A') (A") (A') (A') (A") (A') (A") (A')
                 (A") (A") (A') (A") (A") (A') (A') (A") (A") (A')
                 (A') (A") (A') (A") (A') (A') (A") (A') (A") (A')
                 (A') (A') (A") (A') (A") (A") (A') (A") (A') (A")
                 (A") (A') (A') (A") (A') (A") (A") (A') (A") (A')
                 (A') (A") (A') (A") (A') (A") (A') (A") (A') (A")
                 (A") (A') (A") (A') (A") (A') (A") (A') (A') (A")
                 (A") (A') (A") (A") (A') (A") (A') (A') (A') (A")
                 (A') (A') (A") (A') (A") (A") (A') (A') (A") (A')
                 (A") (A') (A") (A') (A") (A") (A') (A') (A') (A")
                 (A') (A") (A') (A') (A')
 The electronic state of the initial guess is 1-A'.
 Requested convergence on RMS density matrix=1.00D-08 within 128 cycles.
 Requested convergence on MAX density matrix=1.00D-06.
 Requested convergence on             energy=1.00D-06.
 No special actions if energy rises.
 Defaulting to unpruned grid for atomic number  77.
 Defaulting to unpruned grid for atomic number  77.
 Defaulting to unpruned grid for atomic number  77.
 Defaulting to unpruned grid for atomic number  77.
 Defaulting to unpruned grid for atomic number  77.
 Defaulting to unpruned grid for atomic number  77.
 Defaulting to unpruned grid for atomic number  77.
 Defaulting to unpruned grid for atomic number  77.
 Inv3:  Mode=1 IEnd=    16119372.
 Iteration    1 A*A^-1 deviation from unit magnitude is 3.22D-15 for   1458.
 Iteration    1 A*A^-1 deviation from orthogonality  is 1.78D-15 for   2228   2138.
 Iteration    1 A^-1*A deviation from unit magnitude is 3.22D-15 for   1458.
 Iteration    1 A^-1*A deviation from orthogonality  is 2.75D-15 for   1630    763.
 Error on total polarization charges =  0.02180
 SCF Done:  E(RwB97XD) =  -682.648516642     A.U. after   17 cycles
            NFock= 17  Conv=0.63D-08     -V/T= 2.1186

 **********************************************************************

            Population analysis using the SCF Density.

 **********************************************************************

 Orbital symmetries:
       Occupied  (A") (A') (A") (A') (A") (A') (A") (A') (A') (A")
                 (A') (A") (A') (A') (A') (A') (A") (A') (A') (A")
                 (A') (A") (A') (A") (A') (A") (A') (A') (A") (A')
                 (A") (A') (A") (A') (A") (A') (A") (A') (A") (A')
                 (A') (A") (A') (A") (A') (A") (A') (A") (A") (A')
                 (A') (A') (A") (A') (A") (A') (A") (A") (A") (A')
                 (A')
       Virtual   (A') (A') (A") (A') (A') (A") (A') (A') (A') (A")
                 (A") (A') (A') (A") (A") (A') (A") (A') (A") (A')
                 (A") (A') (A') (A') (A') (A") (A") (A') (A") (A")
                 (A') (A') (A") (A') (A") (A') (A') (A") (A') (A")
                 (A') (A") (A') (A') (A') (A") (A') (A") (A") (A')
                 (A") (A") (A') (A") (A') (A") (A') (A') (A') (A")
                 (A") (A') (A') (A') (A") (A') (A") (A") (A') (A')
                 (A') (A") (A') (A") (A') (A') (A") (A') (A") (A")
                 (A') (A") (A') (A') (A") (A") (A') (A') (A') (A")
                 (A') (A") (A") (A') (A") (A') (A") (A") (A') (A')
                 (A") (A') (A") (A') (A') (A") (A") (A') (A') (A")
                 (A") (A') (A") (A') (A') (A") (A') (A") (A') (A")
                 (A') (A") (A') (A') (A") (A") (A') (A") (A') (A")
                 (A') (A") (A') (A') (A") (A') (A") (A') (A') (A")
                 (A') (A") (A') (A") (A') (A") (A") (A') (A") (A')
                 (A') (A") (A") (A') (A') (A') (A") (A') (A") (A')
                 (A") (A') (A") (A") (A") (A') (A") (A') (A') (A')
                 (A") (A') (A") (A') (A") (A') (A") (A') (A') (A")
                 (A') (A") (A") (A') (A') (A") (A") (A') (A') (A")
                 (A") (A') (A') (A") (A') (A") (A') (A") (A') (A")
                 (A") (A') (A") (A') (A') (A") (A') (A") (A") (A')
                 (A") (A') (A') (A") (A') (A") (A') (A") (A') (A')
                 (A") (A') (A') (A") (A') (A") (A') (A") (A") (A')
                 (A') (A") (A') (A") (A') (A') (A") (A') (A") (A")
                 (A') (A') (A") (A') (A") (A") (A') (A') (A") (A')
                 (A") (A') (A') (A") (A") (A') (A") (A') (A") (A')
                 (A') (A") (A') (A') (A") (A") (A') (A") (A') (A")
                 (A') (A") (A') (A") (A') (A") (A') (A") (A') (A")
                 (A') (A") (A') (A") (A') (A') (A") (A') (A") (A')
                 (A") (A') (A") (A') (A") (A") (A') (A') (A') (A")
                 (A") (A') (A') (A") (A") (A') (A") (A') (A") (A')
                 (A') (A') (A") (A") (A') (A") (A') (A") (A') (A')
                 (A") (A') (A") (A") (A') (A") (A') (A") (A') (A')
                 (A") (A') (A") (A') (A') (A") (A") (A') (A") (A')
                 (A") (A') (A') (A") (A") (A') (A") (A') (A") (A')
                 (A') (A") (A') (A") (A') (A") (A') (A") (A') (A")
                 (A') (A") (A') (A") (A') (A") (A') (A') (A") (A')
                 (A") (A") (A') (A") (A') (A") (A') (A") (A') (A')
                 (A") (A') (A") (A') (A") (A') (A') (A") (A') (A")
                 (A') (A") (A') (A") (A') (A") (A') (A") (A') (A")
                 (A') (A') (A") (A') (A') (A") (A") (A") (A') (A')
                 (A") (A') (A") (A') (A") (A") (A") (A') (A") (A')
                 (A') (A") (A') (A") (A') (A') (A") (A") (A') (A')
                 (A") (A") (A") (A') (A') (A') (A') (A") (A") (A')
                 (A") (A") (A') (A') (A') (A") (A") (A") (A") (A')
                 (A') (A") (A') (A') (A') (A") (A") (A") (A') (A")
                 (A') (A') (A') (A") (A") (A') (A') (A") (A') (A")
                 (A") (A') (A') (A") (A') (A") (A') (A") (A") (A')
                 (A") (A") (A') (A') (A') (A") (A') (A") (A") (A')
                 (A') (A") (A') (A") (A') (A") (A') (A') (A") (A')
                 (A") (A") (A') (A") (A') (A") (A") (A') (A") (A')
                 (A") (A') (A') (A") (A') (A") (A") (A') (A") (A')
                 (A') (A") (A') (A') (A") (A') (A") (A") (A') (A")
                 (A') (A") (A') (A") (A') (A') (A") (A") (A') (A")
                 (A") (A') (A') (A') (A") (A') (A') (A") (A') (A")
                 (A") (A') (A") (A') (A') (A") (A") (A') (A") (A')
                 (A") (A') (A') (A") (A') (A") (A') (A") (A') (A')
                 (A") (A') (A") (A') (A") (A') (A") (A') (A") (A")
                 (A') (A') (A") (A') (A") (A") (A') (A") (A') (A")
                 (A') (A") (A') (A") (A') (A') (A") (A') (A") (A')
                 (A") (A") (A") (A') (A") (A') (A') (A") (A') (A")
                 (A') (A") (A') (A") (A') (A") (A') (A') (A") (A')
                 (A') (A") (A') (A') (A") (A") (A") (A') (A') (A")
                 (A") (A') (A') (A") (A') (A") (A') (A") (A') (A")
                 (A') (A") (A') (A') (A") (A") (A') (A") (A') (A")
                 (A') (A") (A") (A') (A") (A') (A") (A') (A") (A')
                 (A") (A') (A") (A") (A") (A') (A') (A') (A') (A")
                 (A') (A') (A") (A') (A") (A") (A') (A') (A") (A')
                 (A") (A') (A") (A') (A") (A") (A') (A') (A') (A")
                 (A') (A") (A') (A') (A')
 The electronic state is 1-A'.
 Alpha  occ. eigenvalues --  -14.48627 -14.48626 -10.31754 -10.31754 -10.31202
 Alpha  occ. eigenvalues --  -10.31202 -10.30896 -10.30896 -10.27745 -10.27744
 Alpha  occ. eigenvalues --  -10.27244 -10.27243 -10.26832 -10.26246  -3.70101
 Alpha  occ. eigenvalues --   -2.04373  -2.03861  -2.01515  -1.04719  -1.04279
 Alpha  occ. eigenvalues --   -0.93755  -0.86630  -0.84269  -0.80934  -0.80905
 Alpha  occ. eigenvalues --   -0.78215  -0.77655  -0.71289  -0.70224  -0.66016
 Alpha  occ. eigenvalues --   -0.65806  -0.59663  -0.57697  -0.57146  -0.56851
 Alpha  occ. eigenvalues --   -0.56167  -0.54843  -0.54684  -0.52284  -0.49862
 Alpha  occ. eigenvalues --   -0.49661  -0.49199  -0.48030  -0.47389  -0.46487
 Alpha  occ. eigenvalues --   -0.46105  -0.45528  -0.45320  -0.45008  -0.43896
 Alpha  occ. eigenvalues --   -0.42146  -0.41562  -0.40161  -0.37199  -0.36151
 Alpha  occ. eigenvalues --   -0.33282  -0.30818  -0.25195  -0.23825  -0.22836
 Alpha  occ. eigenvalues --   -0.21970
 Alpha virt. eigenvalues --    0.05698   0.05979   0.06563   0.10988   0.11136
 Alpha virt. eigenvalues --    0.11646   0.12917   0.14363   0.15790   0.15815
 Alpha virt. eigenvalues --    0.16069   0.16501   0.16819   0.17074   0.17357
 Alpha virt. eigenvalues --    0.17872   0.17923   0.18743   0.20045   0.20293
 Alpha virt. eigenvalues --    0.21092   0.21269   0.21459   0.22211   0.22459
 Alpha virt. eigenvalues --    0.22985   0.23800   0.24161   0.24398   0.24872
 Alpha virt. eigenvalues --    0.25753   0.25823   0.26652   0.27588   0.28432
 Alpha virt. eigenvalues --    0.28821   0.30354   0.30979   0.31407   0.33038
 Alpha virt. eigenvalues --    0.33405   0.33572   0.33899   0.34316   0.36036
 Alpha virt. eigenvalues --    0.36079   0.36890   0.37457   0.37957   0.37999
 Alpha virt. eigenvalues --    0.39192   0.39669   0.39754   0.40425   0.41175
 Alpha virt. eigenvalues --    0.41901   0.41964   0.42308   0.44387   0.45227
 Alpha virt. eigenvalues --    0.45370   0.45485   0.45897   0.46126   0.47002
 Alpha virt. eigenvalues --    0.47089   0.47987   0.48622   0.48828   0.49558
 Alpha virt. eigenvalues --    0.50028   0.50147   0.50743   0.50991   0.50993
 Alpha virt. eigenvalues --    0.51364   0.51546   0.52033   0.52197   0.52351
 Alpha virt. eigenvalues --    0.52850   0.53486   0.54011   0.54473   0.54607
 Alpha virt. eigenvalues --    0.55138   0.55815   0.57299   0.57778   0.57855
 Alpha virt. eigenvalues --    0.58341   0.58518   0.59358   0.60129   0.60136
 Alpha virt. eigenvalues --    0.62385   0.62930   0.62996   0.63501   0.64933
 Alpha virt. eigenvalues --    0.65431   0.65901   0.67278   0.68171   0.69660
 Alpha virt. eigenvalues --    0.70126   0.70691   0.72390   0.73159   0.73757
 Alpha virt. eigenvalues --    0.74172   0.75296   0.75523   0.75938   0.77801
 Alpha virt. eigenvalues --    0.79014   0.79619   0.80130   0.80939   0.82118
 Alpha virt. eigenvalues --    0.82551   0.83808   0.84390   0.85540   0.86049
 Alpha virt. eigenvalues --    0.86994   0.88972   0.89105   0.90405   0.91633
 Alpha virt. eigenvalues --    0.92952   0.92969   0.93438   0.94256   0.94372
 Alpha virt. eigenvalues --    0.95260   0.96249   0.96949   0.97694   0.97723
 Alpha virt. eigenvalues --    0.99524   1.00277   1.01004   1.02034   1.02498
 Alpha virt. eigenvalues --    1.02968   1.03357   1.03735   1.04076   1.04188
 Alpha virt. eigenvalues --    1.04836   1.06337   1.07212   1.07932   1.08527
 Alpha virt. eigenvalues --    1.09162   1.09599   1.10334   1.10404   1.10440
 Alpha virt. eigenvalues --    1.10993   1.12637   1.12981   1.13637   1.15027
 Alpha virt. eigenvalues --    1.15883   1.16634   1.16902   1.18121   1.18770
 Alpha virt. eigenvalues --    1.19152   1.20520   1.20951   1.20984   1.23049
 Alpha virt. eigenvalues --    1.23453   1.24161   1.24688   1.26105   1.26656
 Alpha virt. eigenvalues --    1.26851   1.27420   1.28366   1.29336   1.29948
 Alpha virt. eigenvalues --    1.30188   1.30916   1.31401   1.32200   1.33357
 Alpha virt. eigenvalues --    1.34043   1.34127   1.35252   1.36499   1.37313
 Alpha virt. eigenvalues --    1.37559   1.38123   1.38637   1.39746   1.39837
 Alpha virt. eigenvalues --    1.40555   1.41702   1.42366   1.43216   1.43302
 Alpha virt. eigenvalues --    1.45028   1.45109   1.45920   1.46352   1.46612
 Alpha virt. eigenvalues --    1.47975   1.48515   1.49064   1.49262   1.50335
 Alpha virt. eigenvalues --    1.50482   1.50886   1.51363   1.52333   1.53003
 Alpha virt. eigenvalues --    1.53144   1.54909   1.55594   1.55667   1.56445
 Alpha virt. eigenvalues --    1.57324   1.57772   1.59222   1.59462   1.59920
 Alpha virt. eigenvalues --    1.61157   1.62124   1.62234   1.63120   1.64113
 Alpha virt. eigenvalues --    1.66112   1.67760   1.68453   1.68573   1.69252
 Alpha virt. eigenvalues --    1.69974   1.71103   1.71760   1.72395   1.73029
 Alpha virt. eigenvalues --    1.73312   1.73987   1.76327   1.76387   1.78000
 Alpha virt. eigenvalues --    1.78998   1.80004   1.80937   1.81407   1.82893
 Alpha virt. eigenvalues --    1.83462   1.84231   1.85164   1.85517   1.87481
 Alpha virt. eigenvalues --    1.88194   1.89077   1.90372   1.92451   1.92659
 Alpha virt. eigenvalues --    1.94500   1.95624   1.95693   1.97295   1.97475
 Alpha virt. eigenvalues --    1.99313   2.00829   2.02124   2.04449   2.06452
 Alpha virt. eigenvalues --    2.08192   2.08949   2.11720   2.16506   2.16840
 Alpha virt. eigenvalues --    2.18049   2.18090   2.19342   2.20563   2.21786
 Alpha virt. eigenvalues --    2.24330   2.25278   2.25353   2.25899   2.25985
 Alpha virt. eigenvalues --    2.28557   2.30595   2.31407   2.34825   2.34923
 Alpha virt. eigenvalues --    2.37232   2.38118   2.39044   2.41344   2.42283
 Alpha virt. eigenvalues --    2.43773   2.45892   2.50262   2.50804   2.53805
 Alpha virt. eigenvalues --    2.55104   2.57369   2.60464   2.61204   2.61502
 Alpha virt. eigenvalues --    2.63004   2.64680   2.64934   2.65944   2.66560
 Alpha virt. eigenvalues --    2.68508   2.69055   2.69493   2.71830   2.72223
 Alpha virt. eigenvalues --    2.72838   2.74210   2.74426   2.76039   2.76690
 Alpha virt. eigenvalues --    2.77358   2.77646   2.79054   2.80055   2.82127
 Alpha virt. eigenvalues --    2.83657   2.84845   2.85395   2.85743   2.87412
 Alpha virt. eigenvalues --    2.87444   2.88080   2.89134   2.89279   2.89687
 Alpha virt. eigenvalues --    2.91409   2.91438   2.91943   2.92240   2.93041
 Alpha virt. eigenvalues --    2.93723   2.95326   2.95627   2.96378   2.97789
 Alpha virt. eigenvalues --    2.98497   2.98596   2.99015   2.99475   3.00957
 Alpha virt. eigenvalues --    3.01556   3.02154   3.03302   3.05095   3.05108
 Alpha virt. eigenvalues --    3.05847   3.06507   3.07378   3.08380   3.09271
 Alpha virt. eigenvalues --    3.10343   3.10348   3.10390   3.11781   3.11896
 Alpha virt. eigenvalues --    3.12437   3.13452   3.14145   3.15518   3.16119
 Alpha virt. eigenvalues --    3.16612   3.17101   3.18498   3.19049   3.19356
 Alpha virt. eigenvalues --    3.19386   3.20710   3.20918   3.22669   3.22878
 Alpha virt. eigenvalues --    3.23059   3.24144   3.24675   3.26644   3.27060
 Alpha virt. eigenvalues --    3.27831   3.28341   3.29007   3.29428   3.30520
 Alpha virt. eigenvalues --    3.31373   3.32001   3.32063   3.32871   3.33507
 Alpha virt. eigenvalues --    3.33715   3.34497   3.36099   3.36510   3.37936
 Alpha virt. eigenvalues --    3.38045   3.38328   3.38628   3.38835   3.40546
 Alpha virt. eigenvalues --    3.41128   3.42170   3.42230   3.43215   3.43533
 Alpha virt. eigenvalues --    3.44631   3.45397   3.46547   3.46858   3.47282
 Alpha virt. eigenvalues --    3.48235   3.49552   3.50084   3.50269   3.51271
 Alpha virt. eigenvalues --    3.51875   3.52482   3.52847   3.53049   3.55276
 Alpha virt. eigenvalues --    3.56265   3.56673   3.57146   3.57323   3.58388
 Alpha virt. eigenvalues --    3.59229   3.59587   3.60227   3.60659   3.61417
 Alpha virt. eigenvalues --    3.61984   3.63290   3.63515   3.64198   3.65157
 Alpha virt. eigenvalues --    3.65511   3.66246   3.67152   3.67477   3.68012
 Alpha virt. eigenvalues --    3.68681   3.68983   3.69697   3.70439   3.71226
 Alpha virt. eigenvalues --    3.72496   3.73240   3.73952   3.74384   3.75341
 Alpha virt. eigenvalues --    3.75470   3.76150   3.78158   3.78896   3.79533
 Alpha virt. eigenvalues --    3.80539   3.81471   3.81823   3.82201   3.83326
 Alpha virt. eigenvalues --    3.83835   3.83851   3.84640   3.85797   3.86820
 Alpha virt. eigenvalues --    3.86872   3.89756   3.90076   3.90292   3.91646
 Alpha virt. eigenvalues --    3.92459   3.94707   3.94858   3.95973   3.96429
 Alpha virt. eigenvalues --    3.97474   3.98402   3.98958   3.99607   4.00334
 Alpha virt. eigenvalues --    4.01043   4.01887   4.02822   4.03158   4.05468
 Alpha virt. eigenvalues --    4.06787   4.07756   4.08884   4.09747   4.09830
 Alpha virt. eigenvalues --    4.10453   4.13122   4.13312   4.13440   4.14185
 Alpha virt. eigenvalues --    4.15604   4.16193   4.16730   4.17135   4.17566
 Alpha virt. eigenvalues --    4.18557   4.19171   4.19772   4.21301   4.21596
 Alpha virt. eigenvalues --    4.22710   4.23527   4.23578   4.24342   4.24875
 Alpha virt. eigenvalues --    4.25361   4.25565   4.26109   4.27364   4.28071
 Alpha virt. eigenvalues --    4.29318   4.29360   4.29734   4.31310   4.31903
 Alpha virt. eigenvalues --    4.32443   4.33215   4.33374   4.33606   4.34256
 Alpha virt. eigenvalues --    4.34783   4.35197   4.36783   4.36875   4.37241
 Alpha virt. eigenvalues --    4.38497   4.38913   4.39616   4.40011   4.40351
 Alpha virt. eigenvalues --    4.41717   4.42639   4.43839   4.45157   4.45962
 Alpha virt. eigenvalues --    4.48077   4.48573   4.50616   4.51034   4.53201
 Alpha virt. eigenvalues --    4.53676   4.56320   4.57190   4.58665   4.60465
 Alpha virt. eigenvalues --    4.61724   4.62955   4.66457   4.68319   4.69602
 Alpha virt. eigenvalues --    4.71052   4.72164   4.72415   4.75697   4.76026
 Alpha virt. eigenvalues --    4.76726   4.76900   4.79129   4.79349   4.79397
 Alpha virt. eigenvalues --    4.81150   4.82847   4.84221   4.84373   4.86388
 Alpha virt. eigenvalues --    4.87932   4.90249   4.90793   4.92789   4.93150
 Alpha virt. eigenvalues --    4.94226   4.94653   4.96795   4.99418   5.00650
 Alpha virt. eigenvalues --    5.01481   5.02531   5.04518   5.07142   5.08228
 Alpha virt. eigenvalues --    5.09471   5.09478   5.10054   5.12422   5.13507
 Alpha virt. eigenvalues --    5.14095   5.16560   5.17857   5.18075   5.19683
 Alpha virt. eigenvalues --    5.20800   5.21879   5.22553   5.24048   5.24127
 Alpha virt. eigenvalues --    5.25668   5.27036   5.27534   5.28073   5.29182
 Alpha virt. eigenvalues --    5.30593   5.30781   5.32739   5.33494   5.34510
 Alpha virt. eigenvalues --    5.35622   5.36452   5.36710   5.37211   5.37359
 Alpha virt. eigenvalues --    5.38239   5.39406   5.39407   5.41060   5.42703
 Alpha virt. eigenvalues --    5.44159   5.46171   5.46697   5.48879   5.50481
 Alpha virt. eigenvalues --    5.52085   5.53545   5.53570   5.54999   5.55026
 Alpha virt. eigenvalues --    5.58223   5.59955   5.63559   5.63994   5.65050
 Alpha virt. eigenvalues --    5.65358   5.66344   5.68077   5.68447   5.68456
 Alpha virt. eigenvalues --    5.70830   5.72567   5.73876   5.74559   5.75611
 Alpha virt. eigenvalues --    5.76265   5.78088   5.78213   5.80249   5.80305
 Alpha virt. eigenvalues --    5.82068   5.84997   5.87215   5.90946   5.92659
 Alpha virt. eigenvalues --    5.94730   5.98353   6.04390   6.08873   6.09277
 Alpha virt. eigenvalues --    6.10550   6.14660   6.16474   6.32537   6.32733
 Alpha virt. eigenvalues --    6.52514  22.60364  23.20278  23.21666  23.24442
 Alpha virt. eigenvalues --   23.31622  23.44557  23.54326  23.69531  23.76446
 Alpha virt. eigenvalues --   23.80592  23.82399  23.95434  32.89201  32.92953
 Alpha virt. eigenvalues --   33.66134  41.11653  42.26360  59.67504 363.42219
          Condensed to atoms (all electrons):
               1          2          3          4          5          6
     1  C    5.468105  -0.065868   0.460288  -0.055277  -0.070126  -0.041699
     2  C   -0.065868   5.468105  -0.055277   0.460288  -0.070126  -0.001385
     3  C    0.460288  -0.055277   5.034095  -0.005075   0.486337   0.433377
     4  C   -0.055277   0.460288  -0.005075   5.034095   0.486337   0.007024
     5  C   -0.070126  -0.070126   0.486337   0.486337   4.986478  -0.036937
     6  H   -0.041699  -0.001385   0.433377   0.007024  -0.036937   0.521974
     7  H   -0.001385  -0.041699   0.007024   0.433377  -0.036937  -0.000235
     8  C    0.303600   0.017437  -0.076834  -0.006174   0.012525  -0.004234
     9  H   -0.037497  -0.000167  -0.001622   0.000159   0.000274   0.000184
    10  H   -0.061951  -0.000697  -0.000374   0.000311  -0.000346   0.001840
    11  C    0.017437   0.303600  -0.006174  -0.076834   0.012525   0.000086
    12  H   -0.000167  -0.037497   0.000159  -0.001622   0.000274  -0.000002
    13  H   -0.000697  -0.061951   0.000311  -0.000374  -0.000346  -0.000002
    14  N   -0.089903   0.012031   0.001008   0.000001  -0.000450   0.000050
    15  N    0.012031  -0.089903   0.000001   0.001008  -0.000450   0.000001
    16  C    0.010995   0.000113  -0.000833   0.000021   0.000017  -0.000033
    17  H   -0.000721   0.000022   0.000006  -0.000003   0.000002  -0.000000
    18  H    0.001385  -0.000014   0.000046  -0.000000  -0.000005   0.000019
    19  H   -0.000733  -0.000155  -0.000055   0.000013  -0.000002  -0.000004
    20  C    0.004825  -0.000815   0.001354  -0.000019  -0.000016  -0.000005
    21  H   -0.005245   0.000115  -0.000134   0.000022  -0.000038   0.000014
    22  H    0.001287  -0.000169  -0.000099  -0.000014   0.000008  -0.000001
    23  H    0.015651  -0.000089   0.002168  -0.000228   0.000136   0.000054
    24  C    0.000113   0.010995   0.000021  -0.000833   0.000017   0.000001
    25  H   -0.000014   0.001385  -0.000000   0.000046  -0.000005  -0.000000
    26  H    0.000022  -0.000721  -0.000003   0.000006   0.000002  -0.000000
    27  H   -0.000155  -0.000733   0.000013  -0.000055  -0.000002   0.000000
    28  C   -0.000815   0.004825  -0.000019   0.001354  -0.000016   0.000001
    29  H   -0.000169   0.001287  -0.000014  -0.000099   0.000008  -0.000000
    30  H    0.000115  -0.005245   0.000022  -0.000134  -0.000038  -0.000000
    31  H   -0.000089   0.015651  -0.000228   0.002168   0.000136   0.000002
    32  Ir  -0.115152  -0.115152   0.013137   0.013137  -0.001448  -0.000631
    33  C    0.218473   0.218473   0.008216   0.008216  -0.071856   0.011744
    34  H    0.008790   0.008790  -0.045346  -0.045346   0.448399  -0.004349
               7          8          9         10         11         12
     1  C   -0.001385   0.303600  -0.037497  -0.061951   0.017437  -0.000167
     2  C   -0.041699   0.017437  -0.000167  -0.000697   0.303600  -0.037497
     3  C    0.007024  -0.076834  -0.001622  -0.000374  -0.006174   0.000159
     4  C    0.433377  -0.006174   0.000159   0.000311  -0.076834  -0.001622
     5  C   -0.036937   0.012525   0.000274  -0.000346   0.012525   0.000274
     6  H   -0.000235  -0.004234   0.000184   0.001840   0.000086  -0.000002
     7  H    0.521974   0.000086  -0.000002  -0.000002  -0.004234   0.000184
     8  C    0.000086   4.940118   0.434053   0.432512   0.001324   0.000092
     9  H   -0.000002   0.434053   0.575578  -0.023063   0.000092   0.000010
    10  H   -0.000002   0.432512  -0.023063   0.564649   0.000003  -0.000002
    11  C   -0.004234   0.001324   0.000092   0.000003   4.940118   0.434053
    12  H    0.000184   0.000092   0.000010  -0.000002   0.434053   0.575578
    13  H    0.001840   0.000003  -0.000002  -0.000001   0.432512  -0.023063
    14  N    0.000001   0.281881  -0.041153  -0.025564   0.000122   0.000065
    15  N    0.000050   0.000122   0.000065  -0.000041   0.281881  -0.041153
    16  C    0.000001  -0.039040  -0.005468  -0.008445  -0.000163  -0.000003
    17  H   -0.000000   0.011085   0.000613  -0.000661   0.000006   0.000001
    18  H   -0.000000  -0.012756  -0.003402   0.006607   0.000002  -0.000000
    19  H    0.000000  -0.008175   0.003100  -0.000184  -0.000037  -0.000001
    20  C    0.000001  -0.037020   0.007105  -0.013441  -0.000054  -0.000008
    21  H   -0.000000  -0.012936  -0.000296   0.007142  -0.000007   0.000000
    22  H   -0.000000   0.008728  -0.000219  -0.000107   0.000020   0.000001
    23  H    0.000002  -0.009701   0.000506  -0.003550   0.000158  -0.000002
    24  C   -0.000033  -0.000163  -0.000003   0.000002  -0.039040  -0.005468
    25  H    0.000019   0.000002  -0.000000  -0.000000  -0.012756  -0.003402
    26  H   -0.000000   0.000006   0.000001   0.000000   0.011085   0.000613
    27  H   -0.000004  -0.000037  -0.000001   0.000000  -0.008175   0.003100
    28  C   -0.000005  -0.000054  -0.000008  -0.000002  -0.037020   0.007105
    29  H   -0.000001   0.000020   0.000001   0.000001   0.008728  -0.000219
    30  H    0.000014  -0.000007   0.000000  -0.000000  -0.012936  -0.000296
    31  H    0.000054   0.000158  -0.000002  -0.000002  -0.009701   0.000506
    32  Ir  -0.000631  -0.058178  -0.004484   0.010632  -0.058178  -0.004484
    33  C    0.011744  -0.103546  -0.006771   0.015108  -0.103546  -0.006771
    34  H   -0.004349  -0.000266   0.000004  -0.000012  -0.000266   0.000004
              13         14         15         16         17         18
     1  C   -0.000697  -0.089903   0.012031   0.010995  -0.000721   0.001385
     2  C   -0.061951   0.012031  -0.089903   0.000113   0.000022  -0.000014
     3  C    0.000311   0.001008   0.000001  -0.000833   0.000006   0.000046
     4  C   -0.000374   0.000001   0.001008   0.000021  -0.000003  -0.000000
     5  C   -0.000346  -0.000450  -0.000450   0.000017   0.000002  -0.000005
     6  H   -0.000002   0.000050   0.000001  -0.000033  -0.000000   0.000019
     7  H    0.001840   0.000001   0.000050   0.000001  -0.000000  -0.000000
     8  C    0.000003   0.281881   0.000122  -0.039040   0.011085  -0.012756
     9  H   -0.000002  -0.041153   0.000065  -0.005468   0.000613  -0.003402
    10  H   -0.000001  -0.025564  -0.000041  -0.008445  -0.000661   0.006607
    11  C    0.432512   0.000122   0.281881  -0.000163   0.000006   0.000002
    12  H   -0.023063   0.000065  -0.041153  -0.000003   0.000001  -0.000000
    13  H    0.564649  -0.000041  -0.025564   0.000002   0.000000  -0.000000
    14  N   -0.000041   6.361032  -0.006804   0.249201  -0.032934  -0.018605
    15  N   -0.025564  -0.006804   6.361032   0.000630   0.000043  -0.000017
    16  C    0.000002   0.249201   0.000630   4.851425   0.418248   0.401986
    17  H    0.000000  -0.032934   0.000043   0.418248   0.561308  -0.022218
    18  H   -0.000000  -0.018605  -0.000017   0.401986  -0.022218   0.559667
    19  H    0.000000  -0.037718   0.000044   0.428586  -0.019504  -0.021895
    20  C   -0.000002   0.260992   0.000405  -0.042982  -0.008742  -0.011335
    21  H   -0.000000  -0.023507  -0.000035  -0.010542  -0.001766   0.007817
    22  H    0.000001  -0.032061   0.000153  -0.007510   0.003502  -0.001367
    23  H   -0.000002  -0.033693   0.000210   0.008360   0.000289  -0.000585
    24  C   -0.008445   0.000630   0.249201  -0.000132  -0.000022   0.000004
    25  H    0.006607  -0.000017  -0.018605   0.000004  -0.000000  -0.000000
    26  H   -0.000661   0.000043  -0.032934  -0.000022  -0.000003  -0.000000
    27  H   -0.000184   0.000044  -0.037718  -0.000017  -0.000000   0.000000
    28  C   -0.013441   0.000405   0.260992  -0.000015   0.000004   0.000002
    29  H   -0.000107   0.000153  -0.032061  -0.000020  -0.000003   0.000000
    30  H    0.007142  -0.000035  -0.023507   0.000001  -0.000000   0.000000
    31  H   -0.003550   0.000210  -0.033693  -0.000015   0.000002   0.000000
    32  Ir   0.010632   0.166010   0.166010  -0.073286  -0.010859   0.014503
    33  C    0.015108   0.016859   0.016859  -0.004546   0.000113   0.000669
    34  H   -0.000012   0.000007   0.000007  -0.000001   0.000000   0.000000
              19         20         21         22         23         24
     1  C   -0.000733   0.004825  -0.005245   0.001287   0.015651   0.000113
     2  C   -0.000155  -0.000815   0.000115  -0.000169  -0.000089   0.010995
     3  C   -0.000055   0.001354  -0.000134  -0.000099   0.002168   0.000021
     4  C    0.000013  -0.000019   0.000022  -0.000014  -0.000228  -0.000833
     5  C   -0.000002  -0.000016  -0.000038   0.000008   0.000136   0.000017
     6  H   -0.000004  -0.000005   0.000014  -0.000001   0.000054   0.000001
     7  H    0.000000   0.000001  -0.000000  -0.000000   0.000002  -0.000033
     8  C   -0.008175  -0.037020  -0.012936   0.008728  -0.009701  -0.000163
     9  H    0.003100   0.007105  -0.000296  -0.000219   0.000506  -0.000003
    10  H   -0.000184  -0.013441   0.007142  -0.000107  -0.003550   0.000002
    11  C   -0.000037  -0.000054  -0.000007   0.000020   0.000158  -0.039040
    12  H   -0.000001  -0.000008   0.000000   0.000001  -0.000002  -0.005468
    13  H    0.000000  -0.000002  -0.000000   0.000001  -0.000002  -0.008445
    14  N   -0.037718   0.260992  -0.023507  -0.032061  -0.033693   0.000630
    15  N    0.000044   0.000405  -0.000035   0.000153   0.000210   0.249201
    16  C    0.428586  -0.042982  -0.010542  -0.007510   0.008360  -0.000132
    17  H   -0.019504  -0.008742  -0.001766   0.003502   0.000289  -0.000022
    18  H   -0.021895  -0.011335   0.007817  -0.001367  -0.000585   0.000004
    19  H    0.547605   0.008447  -0.000292   0.000035  -0.000218  -0.000017
    20  C    0.008447   4.863549   0.402898   0.419405   0.428514  -0.000015
    21  H   -0.000292   0.402898   0.568616  -0.020687  -0.022450   0.000001
    22  H    0.000035   0.419405  -0.020687   0.549308  -0.018308  -0.000020
    23  H   -0.000218   0.428514  -0.022450  -0.018308   0.533797  -0.000015
    24  C   -0.000017  -0.000015   0.000001  -0.000020  -0.000015   4.851425
    25  H    0.000000   0.000002   0.000000   0.000000   0.000000   0.401986
    26  H   -0.000000   0.000004  -0.000000  -0.000003   0.000002   0.418248
    27  H   -0.000009  -0.000012   0.000000   0.000001  -0.000001   0.428586
    28  C   -0.000012  -0.000115   0.000016   0.000043   0.000074  -0.042982
    29  H    0.000001   0.000043  -0.000003   0.000042   0.000015  -0.007510
    30  H    0.000000   0.000016  -0.000000  -0.000003  -0.000009  -0.010542
    31  H   -0.000001   0.000074  -0.000009   0.000015   0.000177   0.008360
    32  Ir  -0.000524  -0.066254   0.016214  -0.004030  -0.018965  -0.073286
    33  C   -0.001118  -0.006701   0.002495  -0.001285  -0.005870  -0.004546
    34  H   -0.000000  -0.000001  -0.000000   0.000000  -0.000002  -0.000001
              25         26         27         28         29         30
     1  C   -0.000014   0.000022  -0.000155  -0.000815  -0.000169   0.000115
     2  C    0.001385  -0.000721  -0.000733   0.004825   0.001287  -0.005245
     3  C   -0.000000  -0.000003   0.000013  -0.000019  -0.000014   0.000022
     4  C    0.000046   0.000006  -0.000055   0.001354  -0.000099  -0.000134
     5  C   -0.000005   0.000002  -0.000002  -0.000016   0.000008  -0.000038
     6  H   -0.000000  -0.000000   0.000000   0.000001  -0.000000  -0.000000
     7  H    0.000019  -0.000000  -0.000004  -0.000005  -0.000001   0.000014
     8  C    0.000002   0.000006  -0.000037  -0.000054   0.000020  -0.000007
     9  H   -0.000000   0.000001  -0.000001  -0.000008   0.000001   0.000000
    10  H   -0.000000   0.000000   0.000000  -0.000002   0.000001  -0.000000
    11  C   -0.012756   0.011085  -0.008175  -0.037020   0.008728  -0.012936
    12  H   -0.003402   0.000613   0.003100   0.007105  -0.000219  -0.000296
    13  H    0.006607  -0.000661  -0.000184  -0.013441  -0.000107   0.007142
    14  N   -0.000017   0.000043   0.000044   0.000405   0.000153  -0.000035
    15  N   -0.018605  -0.032934  -0.037718   0.260992  -0.032061  -0.023507
    16  C    0.000004  -0.000022  -0.000017  -0.000015  -0.000020   0.000001
    17  H   -0.000000  -0.000003  -0.000000   0.000004  -0.000003  -0.000000
    18  H   -0.000000  -0.000000   0.000000   0.000002   0.000000   0.000000
    19  H    0.000000  -0.000000  -0.000009  -0.000012   0.000001   0.000000
    20  C    0.000002   0.000004  -0.000012  -0.000115   0.000043   0.000016
    21  H    0.000000  -0.000000   0.000000   0.000016  -0.000003  -0.000000
    22  H    0.000000  -0.000003   0.000001   0.000043   0.000042  -0.000003
    23  H    0.000000   0.000002  -0.000001   0.000074   0.000015  -0.000009
    24  C    0.401986   0.418248   0.428586  -0.042982  -0.007510  -0.010542
    25  H    0.559667  -0.022218  -0.021895  -0.011335  -0.001367   0.007817
    26  H   -0.022218   0.561308  -0.019504  -0.008742   0.003502  -0.001766
    27  H   -0.021895  -0.019504   0.547605   0.008447   0.000035  -0.000292
    28  C   -0.011335  -0.008742   0.008447   4.863549   0.419405   0.402898
    29  H   -0.001367   0.003502   0.000035   0.419405   0.549308  -0.020687
    30  H    0.007817  -0.001766  -0.000292   0.402898  -0.020687   0.568616
    31  H   -0.000585   0.000289  -0.000218   0.428514  -0.018308  -0.022450
    32  Ir   0.014503  -0.010859  -0.000524  -0.066254  -0.004030   0.016214
    33  C    0.000669   0.000113  -0.001118  -0.006701  -0.001285   0.002495
    34  H    0.000000   0.000000  -0.000000  -0.000001   0.000000  -0.000000
              31         32         33         34
     1  C   -0.000089  -0.115152   0.218473   0.008790
     2  C    0.015651  -0.115152   0.218473   0.008790
     3  C   -0.000228   0.013137   0.008216  -0.045346
     4  C    0.002168   0.013137   0.008216  -0.045346
     5  C    0.000136  -0.001448  -0.071856   0.448399
     6  H    0.000002  -0.000631   0.011744  -0.004349
     7  H    0.000054  -0.000631   0.011744  -0.004349
     8  C    0.000158  -0.058178  -0.103546  -0.000266
     9  H   -0.000002  -0.004484  -0.006771   0.000004
    10  H   -0.000002   0.010632   0.015108  -0.000012
[...]
 00004866,-0.00004383,-0.00001962,-0.00005285,0.00024516,-0.03218738,-0
 .01597976,-0.00532455,-0.00002345,0.00000284,0.00001988,0.00000719,-0.
 00000033,0.00000333,0.00001002,-0.00000684,0.00000829,0.00000392,-0.00
 000516,0.00000625,-0.00000466,-0.00002105,-0.00004696,0.00000569,-0.00
 000915,-0.00000143,-0.00000041,0.00001590,0.00000003,0.00000495,0.0000
 0290,-0.00000004,-0.00223886,0.00116689,0.00015460,0.00019260,-0.00010
 221,-0.00004763,0.00076855,-0.00052673,-0.00014304,0.00013525,0.000284
 72,0.00024178,-0.07663421,-0.07774702,-0.02126900,0.09288662,0.0910442
 5,-0.00014999,0.00001484,0.00008873,-0.00028854,-0.00034767,0.00010643
 ,0.00008012,0.00001855,0.00003320,-0.00001271,0.00006302,-0.00003754,-
 0.00004634,0.00001891,-0.00004551,-0.00000683,-0.00000239,0.00000335,-
 0.00000635,-0.00000161,-0.00000378,0.00000947,0.00000186,-0.00000117,0
 .00000672,-0.00000892,-0.00000321,-0.00001488,0.00000198,0.00000978,-0
 .00110639,0.00174376,0.00017507,0.00061886,0.00025427,0.00044155,0.000
 36923,-0.00011007,0.00041747,-0.00014185,-0.00010403,-0.00000986,0.011
 10440,0.00525243,0.00103302,-0.00000354,0.00000899,-0.00000864,-0.0000
 0162,-0.00000092,-0.00000637,-0.00000015,0.00000726,0.00001472,-0.0000
 0016,0.00000776,-0.00000168,0.00002024,-0.00001617,-0.00003514,-0.0000
 0235,-0.00000023,0.00001032,0.00000359,-0.00000003,-0.00002479,0.00000
 115,0.00000065,-0.00000036,-0.00011529,-0.00042495,-0.00022767,-0.0001
 9303,0.00013522,-0.00001931,0.00004956,-0.00032108,0.00017495,0.000126
 06,0.00003313,-0.00008687,-0.06268660,-0.02410527,-0.06391413,0.065349
 29,0.02096730,0.06463990,0.00024110,-0.00006568,-0.00015083,-0.0003758
 6,-0.00004114,0.00028774,-0.00015492,-0.00002146,-0.00009766,0.0001500
 0,-0.00001441,-0.00008607,0.00004255,0.00001077,0.00014972,0.00001141,
 0.00001254,-0.00000714,-0.00000945,-0.00001507,0.00000195,-0.00001570,
 0.00000139,0.00004643,-0.00000560,0.00000466,0.00000461,0.00000445,-0.
 00000439,-0.00001333,0.00108547,-0.00056191,0.00216433,0.00002312,0.00
 011677,-0.00003141,-0.00032619,-0.00024824,-0.00022748,-0.00015194,-0.
 00005394,-0.00007057,-0.00027775,0.00003006,0.00218979,0.00001838,-0.0
 0003864,0.00000904,-0.00000134,-0.00000660,-0.00000417,-0.00000353,0.0
 0001308,-0.00001241,0.00000730,0.00001104,0.00000636,-0.00001070,0.000
 04002,-0.00003374,0.00001123,-0.00001726,-0.00001441,0.,0.00000569,0.0
 0000235,0.00000495,-0.00000242,0.00000009,0.00010371,0.00031324,-0.001
 11182,0.00004738,0.00025713,0.00007294,-0.00008277,-0.00011286,-0.0001
 1965,-0.00008407,-0.00006470,0.00017560,-0.05734309,0.00166883,-0.0358
 4685,-0.00200531,0.00186138,-0.02806768,0.05331858,-0.00015398,-0.0000
 1821,0.00010727,-0.00025661,0.00011964,-0.00018421,0.00013318,-0.00002
 040,0.00005154,-0.00015197,0.00001253,0.00007380,-0.00003805,0.0000051
 3,-0.00014020,-0.00000273,-0.00000672,0.00000514,-0.00001367,0.0000096
 5,0.00000192,0.00017803,0.00007524,-0.00001657,-0.00001639,-0.00001038
 ,0.00000339,-0.00003006,-0.00000438,0.00001668,0.00313936,0.00056506,0
 .00197053,0.00011535,0.00021978,-0.00015898,-0.00062199,0.00025194,-0.
 00063555,0.00004964,0.00089527,0.00061999,0.00387960,-0.01436152,0.036
 67763,-0.00011822,0.00012345,-0.00009334,0.00001056,0.00000132,0.00000
 322,0.00001102,-0.00002545,0.00004370,0.00000184,-0.00002554,-0.000015
 11,-0.00005340,-0.00014554,0.00028058,-0.00001726,0.00010747,0.0000992
 2,-0.00000247,-0.00000915,0.00000023,-0.00000109,-0.00000126,0.0000019
 3,-0.00107484,0.00171147,0.00357778,-0.00012131,-0.00000984,-0.0011121
 1,0.00008168,-0.00008952,-0.00026387,-0.00015116,0.00024867,-0.0004287
 8,0.00099261,-0.05082483,0.00681381,-0.00015480,0.00129642,-0.01029980
 ,-0.00121948,0.05997996,0.00033404,-0.00001699,-0.00009629,0.00023601,
 -0.00001762,0.00027060,-0.00014348,-0.00002314,-0.00008559,-0.00010080
 ,-0.00001310,-0.00001838,0.00019602,-0.00002428,0.00003588,0.00003608,
 0.00000051,-0.00002569,0.00004396,0.00000450,0.00002903,-0.00017296,-0
 .00004754,0.00010350,-0.00001746,0.00002071,0.00002017,0.00004439,-0.0
 0001011,-0.00005067,-0.00114647,-0.00106423,0.00045429,0.00024622,-0.0
 0012950,0.00038202,0.00091864,0.00028764,0.00035516,-0.00016268,-0.000
 50625,-0.00038727,-0.00146325,0.00700966,-0.01295820,0.00015849,-0.000
 12692,0.00005796,-0.00001635,-0.00000300,0.00000808,-0.00001161,0.0000
 0351,-0.00009739,0.00000404,-0.00001451,0.00005307,0.00004607,0.000195
 87,-0.00017854,0.00001441,-0.00009922,-0.00007732,-0.00001472,0.000001
 43,0.00001032,0.00000848,-0.00000810,0.00001727,0.00084837,-0.00142572
 ,0.00176115,-0.00068232,0.00072125,0.00052749,-0.00006750,0.00005706,-
 0.00015796,0.00000092,-0.00007415,0.00042817,-0.03496972,0.01150920,-0
 .29085565,0.00009907,-0.00027350,-0.00576427,0.03952901,-0.01997581,0.
 31914072,-0.00009281,0.00001577,0.00003830,0.00005349,-0.00008512,0.00
 015165,0.00011532,0.00000987,-0.00000183,-0.00002599,0.00011543,-0.000
 07242,-0.00006694,-0.00002505,-0.00006480,0.00000058,0.00001498,-0.000
 00099,-0.00000590,-0.00000750,-0.00000301,0.00001391,-0.00001886,-0.00
 003443,0.00000869,-0.00000841,-0.00001882,-0.00000557,0.00000476,-0.00
 000254,0.00020508,-0.00085470,-0.00063937,0.00010246,0.00014747,0.0000
 1996,0.00010108,-0.00008272,-0.00005893,0.00000576,-0.00007488,-0.0000
 8118,0.00230981,-0.00267814,-0.00204788,-0.00000386,-0.00002466,0.0000
 1498,0.00000122,-0.00000014,-0.00000135,-0.00000071,0.00001844,0.00001
 138,0.00000047,0.00001808,-0.00000930,-0.00000615,0.00001452,-0.000029
 57,0.00000495,-0.00000109,-0.00000848,-0.00000154,0.00000495,-0.000001
 15,0.00000502,0.00000759,-0.00001854,0.00041753,-0.00047715,-0.0004199
 9,-0.00006657,0.00000450,0.00013894,0.00046522,-0.00008784,0.00000645,
 0.00041682,-0.00002948,0.00026170,-0.18480933,0.10400379,0.09412530,-0
 .01735924,0.01534195,0.01428092,0.00478852,-0.00424347,-0.00376343,0.1
 9299016,-0.00028187,-0.00000713,0.00019089,-0.00039625,0.00008787,0.00
 020694,0.00026957,-0.00002578,0.00008259,-0.00034034,0.00002715,0.0001
 6458,-0.00002503,-0.00000613,-0.00029173,0.00000571,0.00000239,-0.0000
 0747,0.00000216,0.00000528,0.00000999,0.00003918,0.00002601,0.00001651
 ,-0.00001056,-0.00000238,-0.00000480,-0.00001783,-0.00000695,-0.000005
 47,0.00160032,0.00065025,-0.00043840,0.00013752,0.00020918,-0.00006213
 ,-0.00023521,-0.00008637,-0.00022109,-0.00002305,-0.00001221,0.0002561
 8,0.02448847,-0.02284162,-0.01535900,-0.00002436,0.00001895,0.00000115
 ,0.00000143,0.00000484,0.00000527,0.00001183,-0.00002103,0.00000010,0.
 00000180,-0.00002086,0.00000715,-0.00000794,-0.00003230,-0.00002850,-0
 .00000242,-0.00000126,0.00000810,-0.00000155,0.00000290,-0.00000065,0.
 00000759,0.00000763,-0.00000086,-0.00223570,-0.00568624,0.00309323,-0.
 00013114,0.00007008,-0.00006755,0.00007290,0.00026798,0.00015645,0.001
 29512,-0.00119769,-0.00105038,0.09544903,-0.12287838,-0.06796316,-0.00
 752376,0.00730457,0.00607876,-0.00203225,0.00218807,0.00079496,-0.1101
 4660,0.14233702,-0.00006035,-0.00003093,0.00003443,0.00000145,0.000220
 97,0.00010782,0.00003153,-0.00000183,-0.00000468,0.00001108,-0.0000322
 3,-0.00004909,-0.00004137,0.00001777,0.00001420,-0.00000524,-0.0000030
 9,0.00000054,-0.00002013,-0.00001069,-0.00000973,0.00002336,0.00000245
 ,-0.00001036,0.00000022,-0.00000079,0.00000484,-0.00000299,0.00000545,
 0.00000520,0.00012630,-0.00035010,0.00041020,-0.00011749,0.00006120,-0
 .00014520,0.00008524,-0.00003305,-0.00041786,0.00005166,-0.00002773,0.
 00011380,-0.00898229,0.00669425,0.00478813,-0.00001837,0.00001318,0.00
 001294,-0.00000025,0.00000152,0.00000115,0.00000697,-0.00000601,0.0000
 1670,-0.00000158,-0.00000627,0.00000682,-0.00000962,-0.00000116,-0.000
 01113,-0.00000009,-0.00000193,0.00001727,-0.00000244,0.00000004,-0.000
 00036,0.00001854,0.00000086,-0.00000845,0.00032715,0.00094322,0.000034
 85,-0.00008554,0.00037308,0.00050225,0.00016627,0.00006620,-0.00015557
 ,-0.00001701,0.00044637,0.00047186,0.09677369,-0.07451103,-0.11550554,
 -0.00632047,0.00517777,0.00383872,0.02120839,-0.01563046,-0.01288604,-
 0.10240975,0.07517017,0.11999967,-0.03502001,-0.00068169,0.02502438,-0
 .03502012,-0.00068167,-0.02502438,0.00785190,0.00013331,0.00218987,0.0
 0785174,0.00013324,-0.00219000,-0.00917101,0.00047050,-0.00000042,-0.0
 0050461,0.00007121,0.00057718,-0.00050454,0.00007125,-0.00057719,-0.00
 934672,-0.00145437,0.01097602,0.00157113,-0.00000251,0.00104578,-0.002
 04043,-0.00064501,0.00033625,-0.00934665,-0.00145445,-0.01097604,0.001
 57111,-0.00000253,-0.00104578,-0.00204051,-0.00064495,-0.00033633,-0.0
 4640729,-0.00012247,-0.00353655,-0.04640717,-0.00012255,0.00353778,0.0
 0435976,-0.00190033,-0.00868904,0.00071195,-0.00009392,-0.00065574,-0.
 00062325,0.00142099,-0.00339456,-0.00017024,-0.00014772,0.00000036,0.0
 0045121,0.00163226,0.00047074,0.00138132,-0.00055032,-0.00078002,0.000
 75189,0.00037117,-0.00052635,0.00017891,-0.00020763,0.00102434,0.00435
 983,-0.00190050,0.00868890,-0.00062325,0.00142100,0.00339452,0.0007120
 4,-0.00009390,0.00065577,-0.00017023,-0.00014766,-0.00000038,0.0004511
 3,0.00163242,-0.00047093,0.00075192,0.00037117,0.00052637,0.00138135,-
 0.00055035,0.00078006,0.00017889,-0.00020763,-0.00102429,0.38012460,-0
 .00074972,0.00858605,0.00080647,-0.00074956,0.00858604,-0.00080649,0.0
 0005688,0.00254093,0.00019895,0.00005719,0.00254106,-0.00019873,0.0001
 4591,-0.00045812,-0.00000040,-0.00005813,-0.00045473,0.00003499,-0.000
 05825,-0.00045481,-0.00003496,-0.00133668,-0.00033921,0.00400940,0.000
 63995,0.00025051,0.00024317,-0.00153617,0.00016678,0.00038332,-0.00133
 684,-0.00033906,-0.00400935,0.00063998,0.00025054,-0.00024318,-0.00153
 601,0.00016664,-0.00038313,-0.00037484,-0.04437518,0.00075127,-0.00037
 497,-0.04437505,-0.00075324,-0.00223459,0.00064382,0.00885396,0.000253
 44,0.00023677,-0.00013374,0.00149549,-0.00017253,0.00189157,-0.0004224
 7,0.00034025,0.00067155,0.00397639,-0.00170128,-0.01534154,-0.00012852
 ,-0.00247507,-0.00309544,0.00021024,-0.00038007,-0.00132853,-0.0005333
 5,-0.00008539,-0.00139863,-0.00223475,0.00064418,-0.00885368,0.0014954
 8,-0.00017254,-0.00189147,0.00025330,0.00023674,0.00013370,-0.00042249
 ,0.00034011,-0.00067150,0.00397659,-0.00170162,0.01534188,0.00021019,-
 0.00038008,0.00132849,-0.00012860,-0.00247501,0.00309531,-0.00053336,-
 0.00008537,0.00139853,0.01138600,0.09504464,0.01877340,0.00055271,0.00
 021706,-0.01877405,-0.00055314,0.00021692,-0.00078686,-0.00002562,-0.0
 0538822,0.00078693,0.00002624,-0.00538810,-0.00000024,-0.00000024,0.00
 234905,0.00088653,-0.00013779,0.00010508,-0.00088679,0.00013781,0.0001
 0492,0.01582647,0.00369496,-0.00921345,-0.00059247,-0.00079062,0.00023
 302,-0.00072782,0.00021151,0.00063497,-0.01582661,-0.00369487,-0.00921
 361,0.00059251,0.00079062,0.00023295,0.00072792,-0.00021165,0.00063522
 ,0.01020304,-0.00094141,-0.04228086,-0.01020313,0.00094126,-0.04228060
 ,-0.00351466,0.00526586,-0.01036473,0.00012358,-0.00065421,0.00000844,
 0.00028657,-0.00119780,0.00128211,0.00073217,-0.00098425,-0.00023134,0
 .00107067,-0.01118222,-0.01000626,-0.00039474,0.00120965,0.00007669,0.
 00063618,0.00016324,-0.00087861,-0.00046674,0.00075897,-0.00123969,0.0
 0351468,-0.00526582,-0.01036483,-0.00028652,0.00119778,0.00128210,-0.0
 0012364,0.00065421,0.00000844,-0.00073221,0.00098429,-0.00023130,-0.00
 107052,0.01118221,-0.01000617,-0.00063623,-0.00016325,-0.00087866,0.00
 039475,-0.00120959,0.00007670,0.00046674,-0.00075898,-0.00123978,-0.00
 000413,0.00000112,0.18830136,-0.14286612,-0.00179114,0.08378213,-0.142
 86603,-0.00179120,-0.08378216,-0.03432548,0.00002713,0.03121043,-0.034
 32520,0.00002723,-0.03121024,0.01119964,-0.00181635,0.00000052,-0.0052
 9164,0.00100023,-0.00123652,-0.00529175,0.00100017,0.00123652,0.018586
 97,0.00405395,-0.01249944,-0.00324860,0.00080249,-0.00255326,-0.003516
 59,0.00026726,-0.00284335,0.01858684,0.00405408,0.01249949,-0.00324857
 ,0.00080252,0.00255325,-0.00351646,0.00026717,0.00284349,-0.00230715,-
 0.00028888,-0.00218903,-0.00230725,-0.00028879,0.00218752,-0.00120363,
 0.00011585,0.00062043,-0.00041649,0.00011756,-0.00047470,0.00025338,-0
 .00010928,0.00109010,0.00021066,0.00011735,-0.00039473,-0.00007477,-0.
 00094282,-0.00019800,-0.00039782,0.00040499,0.00083907,-0.00032724,-0.
 00055253,-0.00029883,0.00024942,0.00024809,-0.00028815,-0.00120376,0.0
 0011613,-0.00062025,0.00025339,-0.00010929,-0.00109002,-0.00041660,0.0
 0011752,0.00047468,0.00021066,0.00011726,0.00039478,-0.00007462,-0.000
 94309,0.00019829,-0.00032729,-0.00055253,0.00029880,-0.00039789,0.0004
 0504,-0.00083916,0.00024944,0.00024809,0.00028808,-0.21698286,-0.01001
 281,0.00000515,0.55411884,0.00037959,-0.06484131,0.00512504,0.00037948
 ,-0.06484130,-0.00512501,0.00184135,0.01009161,-0.00058525,0.00184106,
 0.01009149,0.00058506,0.00049911,-0.00729806,0.00000038,0.00049742,0.0
 0769961,0.00010141,0.00049753,0.00769968,-0.00010144,-0.00274684,0.003
 57677,0.00580411,0.00020154,0.00032215,-0.00013898,0.00062955,0.000270
 45,-0.00027556,-0.00274670,0.00357663,-0.00580416,0.00020151,0.0003221
 1,0.00013899,0.00062940,0.00027058,0.00027539,-0.00016681,0.00129442,0
 .00016532,-0.00016670,0.00129432,-0.00016363,0.00053334,-0.00026669,0.
 00002181,-0.00005616,-0.00021934,0.00005332,-0.00013133,0.00017259,0.0
 0017928,0.00018803,0.00034273,-0.00001157,-0.00068008,-0.00105751,-0.0
 0038456,0.00030087,0.00021767,-0.00014794,0.00043002,0.00032423,0.0001
 8445,-0.00033194,-0.00029753,-0.00004802,0.00053348,-0.00026701,-0.000
 02205,-0.00013133,0.00017261,-0.00017937,-0.00005603,-0.00021932,-0.00
 005329,0.00018804,0.00034284,0.00001153,-0.00068027,-0.00105720,0.0003
 8425,0.00043007,0.00032423,-0.00018441,0.00030094,0.00021762,0.0001480
 6,-0.00033193,-0.00029755,0.00004810,-0.00749403,-0.01991267,-0.000000
 73,0.00525286,0.11354495,0.06096575,0.01150591,-0.26140424,-0.06096531
 ,-0.01150558,-0.26140416,0.07482440,-0.00117035,0.03562071,-0.07482446
 ,0.00116990,0.03562059,0.00000004,0.00000020,-0.07240157,-0.00109877,-
 0.00118031,0.00156749,0.00109895,0.00118029,0.00156761,0.00660249,0.00
 098500,-0.03744811,0.00036297,-0.00027998,-0.00102435,-0.00304324,0.00
 032288,-0.00378112,-0.00660236,-0.00098504,-0.03744802,-0.00036301,0.0
 0027998,-0.00102431,0.00304317,-0.00032279,-0.00378129,-0.00638487,-0.
 00076890,-0.00360461,0.00638492,0.00076899,-0.00360491,0.00057591,-0.0
 0057406,-0.00037455,0.00039773,-0.00008648,0.00026383,0.00044564,0.000
 26378,-0.00062605,-0.00002160,-0.00011220,-0.00000461,-0.00039715,0.00
 005755,0.00009748,0.00034857,0.00018394,-0.00008962,0.00011725,0.00019
 841,0.00008784,-0.00018454,-0.00002522,0.00006550,-0.00057596,0.000574
 03,-0.00037449,-0.00044567,-0.00026376,-0.00062604,-0.00039767,0.00008
 648,0.00026384,0.00002162,0.00011217,-0.00000464,0.00039703,-0.0000574
 9,0.00009739,-0.00011721,-0.00019841,0.00008787,-0.00034856,-0.0001839
 8,-0.00008959,0.00018455,0.00002522,0.00006554,0.00000232,-0.00000006,
 -0.03651824,-0.00000295,-0.00000014,0.65146837,0.00042851,0.00048039,-
 0.00301548,0.00042851,0.00048038,0.00301547,-0.01116218,0.00058380,0.0
 0340123,-0.01116216,0.00058380,-0.00340123,-0.33948985,0.01743905,-0.0
 0000001,0.00083505,-0.00027739,-0.00036901,0.00083504,-0.00027740,0.00
 036901,-0.00028066,-0.00004617,0.00055522,-0.00008178,0.00004033,-0.00
 007552,-0.00001639,-0.00003192,-0.00005619,-0.00028067,-0.00004616,-0.
 00055521,-0.00008178,0.00004033,0.00007552,-0.00001638,-0.00003193,0.0
 0005620,-0.00019003,0.00009253,-0.00024183,-0.00019003,0.00009254,0.00
 024175,-0.00003495,-0.00012590,0.00007484,-0.00004488,0.00001548,-0.00
 001567,0.00000910,0.00000142,-0.00002775,0.00000574,-0.00000145,0.0000
 0247,-0.00002982,0.00009447,0.00002995,0.00000661,-0.00000460,-0.00002
 763,-0.00001598,-0.00001824,0.00000053,0.00001019,0.00001275,0.0000006
 4,-0.00003496,-0.00012588,-0.00007483,0.00000910,0.00000141,0.00002775
 ,-0.00004489,0.00001548,0.00001567,0.00000574,-0.00000146,-0.00000247,
 -0.00002981,0.00009446,-0.00002993,-0.00001598,-0.00001824,-0.00000054
 ,0.00000661,-0.00000459,0.00002763,0.00001019,0.00001275,-0.00000065,-
 0.00026285,-0.00003512,0.00000006,0.00101585,-0.00003482,-0.00000001,0
 .35985979,0.00015459,0.00608428,0.00051158,0.00015459,0.00608428,-0.00
 051158,0.00106601,0.00159161,-0.00006970,0.00106601,0.00159161,0.00006
 970,0.01711883,-0.03139706,0.00000002,-0.00024971,-0.00416007,-0.00019
 625,-0.00024971,-0.00416007,0.00019625,-0.00012347,0.00084301,-0.00000
 914,-0.00002067,0.00001494,-0.00010432,0.00005681,-0.00003646,0.000022
 85,-0.00012347,0.00084301,0.00000914,-0.00002067,0.00001494,0.00010432
 ,0.00005681,-0.00003646,-0.00002285,0.00024402,-0.00004512,0.00009385,
 0.00024402,-0.00004512,-0.00009385,0.00000742,0.00002378,-0.00000693,0
 .00000233,-0.00000990,0.00000006,0.00000232,-0.00000196,0.00001427,-0.
 00000512,0.00000379,0.00000158,0.00000592,-0.00001258,-0.00002371,0.00
 000148,-0.00000091,-0.00000399,-0.00000421,0.00001116,0.00000968,-0.00
 001099,-0.00000089,-0.00000612,0.00000742,0.00002378,0.00000693,0.0000
 0232,-0.00000196,-0.00001427,0.00000233,-0.00000990,-0.00000006,-0.000
 00512,0.00000379,-0.00000158,0.00000592,-0.00001258,0.00002371,-0.0000
 0421,0.00001116,-0.00000968,0.00000148,-0.00000091,0.00000399,-0.00001
 099,-0.00000089,0.00000612,-0.00000988,-0.00023762,0.00000006,-0.00036
 231,-0.00159346,-0.00000005,-0.01900009,0.02461880,-0.00226719,0.00055
 708,-0.00458750,0.00226719,-0.00055708,-0.00458750,-0.02832341,0.00143
 498,0.00419424,0.02832341,-0.00143498,0.00419424,0.,0.,-0.05904522,0.0
 0060589,-0.00015381,0.00107960,-0.00060589,0.00015381,0.00107960,-0.00
 079241,-0.00014887,0.00065208,-0.00003681,0.00005329,-0.00005159,-0.00
 000325,-0.00003878,-0.00002266,0.00079241,0.00014887,0.00065208,0.0000
 3681,-0.00005329,-0.00005159,0.00000325,0.00003878,-0.00002266,-0.0003
 4018,0.00013726,-0.00028070,0.00034018,-0.00013726,-0.00028069,-0.0000
 9251,-0.00011936,0.00006807,-0.00005664,0.00001914,-0.00002437,0.00000
 829,0.00000033,-0.00000162,0.00000929,0.00000274,-0.00000239,-0.000025
 62,0.00006882,0.00003272,-0.00000067,0.,-0.00000273,-0.00001686,-0.000
 02451,-0.00000615,0.00001308,0.00000806,-0.00000317,0.00009251,0.00011
 936,0.00006807,-0.00000829,-0.00000033,-0.00000162,0.00005664,-0.00001
 914,-0.00002437,-0.00000929,-0.00000274,-0.00000239,0.00002562,-0.0000
 6883,0.00003272,0.00001686,0.00002451,-0.00000615,0.00000067,0.,-0.000
 00273,-0.00001308,-0.00000806,-0.00000317,0.,0.,-0.00004037,0.,0.,-0.0
 0123961,0.,0.,0.05823756\\0.00005306,-0.00000226,0.00000816,0.00005306
 ,-0.00000226,-0.00000816,-0.00003576,-0.00000173,-0.00000088,-0.000035
 76,-0.00000173,0.00000088,-0.00000015,0.00002466,0.,-0.00000547,0.0000
 0559,0.00000727,-0.00000547,0.00000559,-0.00000727,0.00002167,0.000021
 23,-0.00003822,-0.00000960,-0.00000783,0.00000858,-0.00001502,0.000006
 41,0.00000536,0.00002167,0.00002123,0.00003822,-0.00000960,-0.00000783
 ,-0.00000858,-0.00001502,0.00000641,-0.00000536,-0.00003696,-0.0000142
 6,0.00010585,-0.00003696,-0.00001426,-0.00010585,0.00000047,0.00001053
 ,-0.00003387,0.00000563,-0.00000772,-0.00000183,-0.00000330,-0.0000018
 8,0.00001218,-0.00000451,-0.00001174,-0.00000310,0.00001547,-0.0000252
 4,-0.00005637,0.00000049,-0.00000178,0.00001986,0.00001454,0.00000339,
 0.00000476,-0.00000187,-0.00000062,0.00000161,0.00000047,0.00001053,0.
 00003387,-0.00000330,-0.00000188,-0.00001218,0.00000563,-0.00000772,0.
 00000183,-0.00000451,-0.00001174,0.00000310,0.00001547,-0.00002524,0.0
 0005637,0.00001454,0.00000339,-0.00000476,0.00000049,-0.00000178,-0.00
 001986,-0.00000187,-0.00000062,-0.00000161,0.00006401,0.00002528,0.,-0
 .00004749,-0.00001007,0.,-0.00001407,0.00001597,0.\\\@
 The archive entry for this job was punched.


 Statistics are no substitute for judgment.
                            -- Henry Clay
 Job cpu time:       1 days  3 hours 16 minutes  1.4 seconds.
 Elapsed time:       0 days  3 hours 35 minutes  3.1 seconds.
 File lengths (MBytes):  RWF=   1282 Int=      0 D2E=      0 Chk=     56 Scr=      1
 Normal termination of Gaussian 16 at Thu Mar  7 19:38:15 2024.
