 Entering Gaussian System, Link 0=/cm/shared/apps//g16/g16
 Input=YIrMeH_sigma.gjf
 Output=YIrMeH_sigma.log
 Initial command:
 /cm/shared/apps//g16/l1.exe "/local/mvanvleet/pbs.14057.josephine/Gau-2359605.inp" -scrdir="/local/mvanvleet/pbs.14057.josephine/"
 Entering Link 1 = /cm/shared/apps//g16/l1.exe PID=   2359609.
  
 Copyright (c) 1988-2019, Gaussian, Inc.  All Rights Reserved.
  
 This is part of the Gaussian(R) 16 program.  It is based on
 the Gaussian(R) 09 system (copyright 2009, Gaussian, Inc.),
 the Gaussian(R) 03 system (copyright 2003, Gaussian, Inc.),
 the Gaussian(R) 98 system (copyright 1998, Gaussian, Inc.),
 the Gaussian(R) 94 system (copyright 1995, Gaussian, Inc.),
 the Gaussian 92(TM) system (copyright 1992, Gaussian, Inc.),
 the Gaussian 90(TM) system (copyright 1990, Gaussian, Inc.),
 the Gaussian 88(TM) system (copyright 1988, Gaussian, Inc.),
 the Gaussian 86(TM) system (copyright 1986, Carnegie Mellon
 University), and the Gaussian 82(TM) system (copyright 1983,
 Carnegie Mellon University). Gaussian is a federally registered
 trademark of Gaussian, Inc.
  
 This software contains proprietary and confidential information,
 including trade secrets, belonging to Gaussian, Inc.
  
 This software is provided under written license and may be
 used, copied, transmitted, or stored only in accord with that
 written license.
  
 The following legend is applicable only to US Government
 contracts under FAR:
  
                    RESTRICTED RIGHTS LEGEND
  
 Use, reproduction and disclosure by the US Government is
 subject to restrictions as set forth in subparagraphs (a)
 and (c) of the Commercial Computer Software - Restricted
 Rights clause in FAR 52.227-19.
  
 Gaussian, Inc.
 340 Quinnipiac St., Bldg. 40, Wallingford CT 06492
  
  
 ---------------------------------------------------------------
 Warning -- This program may not be used in any manner that
 competes with the business of Gaussian, Inc. or will provide
 assistance to any competitor of Gaussian, Inc.  The licensee
 of this program is prohibited from giving any competitor of
 Gaussian, Inc. access to this program.  By using this program,
 the user acknowledges that Gaussian, Inc. is engaged in the
 business of creating and licensing software in the field of
 computational chemistry and represents and warrants to the
 licensee that it is not a competitor of Gaussian, Inc. and that
 it will not use this program in any manner prohibited above.
 ---------------------------------------------------------------
  

 Cite this work as:
 Gaussian 16, Revision C.01,
 M. J. Frisch, G. W. Trucks, H. B. Schlegel, G. E. Scuseria, 
 M. A. Robb, J. R. Cheeseman, G. Scalmani, V. Barone, 
 G. A. Petersson, H. Nakatsuji, X. Li, M. Caricato, A. V. Marenich, 
 J. Bloino, B. G. Janesko, R. Gomperts, B. Mennucci, H. P. Hratchian, 
 J. V. Ortiz, A. F. Izmaylov, J. L. Sonnenberg, D. Williams-Young, 
 F. Ding, F. Lipparini, F. Egidi, J. Goings, B. Peng, A. Petrone, 
 T. Henderson, D. Ranasinghe, V. G. Zakrzewski, J. Gao, N. Rega, 
 G. Zheng, W. Liang, M. Hada, M. Ehara, K. Toyota, R. Fukuda, 
 J. Hasegawa, M. Ishida, T. Nakajima, Y. Honda, O. Kitao, H. Nakai, 
 T. Vreven, K. Throssell, J. A. Montgomery, Jr., J. E. Peralta, 
 F. Ogliaro, M. J. Bearpark, J. J. Heyd, E. N. Brothers, K. N. Kudin, 
 V. N. Staroverov, T. A. Keith, R. Kobayashi, J. Normand, 
 K. Raghavachari, A. P. Rendell, J. C. Burant, S. S. Iyengar, 
 J. Tomasi, M. Cossi, J. M. Millam, M. Klene, C. Adamo, R. Cammi, 
 J. W. Ochterski, R. L. Martin, K. Morokuma, O. Farkas, 
 J. B. Foresman, and D. J. Fox, Gaussian, Inc., Wallingford CT, 2019.
 
 ******************************************
 Gaussian 16:  ES64L-G16RevC.01  3-Jul-2019
                 7-Mar-2024 
 ******************************************
 %nprocshared=8
 Will use up to    8 processors via shared memory.
 %chk=YIrMeH_sigma.chk
 %mem=1GB
 ----------------------------------------------------------
 # wb97xd def2TZVPP SCRF=(solvent=dichloromethane) opt freq
 ----------------------------------------------------------
 1/18=20,19=15,26=3,38=1/1,3;
 2/9=110,12=2,17=6,18=5,40=1/2;
 3/5=44,7=202,11=2,25=1,30=1,70=2201,71=1,72=9,74=-58/1,2,3;
 4//1;
 5/5=2,38=5,53=9/2;
 6/7=2,8=2,9=2,10=2,28=1/1;
 7//1,2,3,16;
 1/18=20,19=15,26=3/3(2);
 2/9=110/2;
 99//99;
 2/9=110/2;
 3/5=44,7=202,11=2,25=1,30=1,70=2205,71=1,72=9,74=-58/1,2,3;
 4/5=5,16=3,69=1/1;
 5/5=2,38=5,53=9/2;
 7//1,2,3,16;
 1/18=20,19=15,26=3/3(-5);
 2/9=110/2;
 6/7=2,8=2,9=2,10=2,19=2,28=1/1;
 99/9=1/99;
 ------------
 YIrMeH_sigma
 ------------
 Symbolic Z-matrix:
 Charge =  0 Multiplicity = 1
 C                     1.92769   1.22544  -0.10931 
 C                     1.92756  -1.22562  -0.1093 
 C                     3.31982   1.22358   0.00865 
 C                     3.31969  -1.22392   0.00866 
 C                     4.01098  -0.0002    0.09885 
 H                     3.88273   2.16587   0.01445 
 H                     3.8825   -2.16627   0.01447 
 C                     1.02902   2.39554  -0.42665 
 H                     0.95482   2.51337  -1.52501 
 H                     1.35789   3.36901  -0.0016 
 C                     1.02877  -2.39564  -0.42663 
 H                     0.95457  -2.51347  -1.525 
 H                     1.35754  -3.36914  -0.00158 
 N                    -0.37781   2.09628   0.04779 
 N                    -0.37803  -2.09623   0.04779 
 C                    -3.45419   0.00011   0.06033 
 H                    -2.80973   0.00018   0.96544 
 H                    -4.08376   0.90131   0.06707 
 H                    -4.0837   -0.90112   0.06717 
 C                    -1.33054   2.93225  -0.71182 
 H                    -2.34301   2.77062  -0.3056 
 H                    -1.06883   4.00952  -0.61953 
 H                    -1.30802   2.62694  -1.76893 
 C                    -0.46249   2.47126   1.48355 
 H                    -0.30797   3.5676    1.59621 
 H                    -1.45444   2.19251   1.8732 
 H                     0.31209   1.92052   2.03771 
 C                    -1.33084  -2.9321   -0.71184 
 H                    -1.06922  -4.00939  -0.61957 
 H                    -2.34329  -2.7704   -0.30562 
 H                    -1.3083   -2.62677  -1.76894 
 C                    -0.46278  -2.47121   1.48354 
 H                    -1.4547   -2.19236   1.87318 
 H                    -0.30838  -3.56757   1.59621 
 H                     0.31186  -1.92056   2.03772 
 H                    -2.83639   0.00007  -0.86828 
 Ir                   -0.65605   0.00004  -0.09026 
 H                     5.09921  -0.00026   0.20702 
 C                     1.22279  -0.00006  -0.10788 
 
 Add virtual bond connecting atoms Ir37       and H17        Dist= 4.53D+00.
 Add virtual bond connecting atoms Ir37       and H36        Dist= 4.37D+00.

 GradGradGradGradGradGradGradGradGradGradGradGradGradGradGradGradGradGrad
 Berny optimization.
 Initialization pass.
                           ----------------------------
                           !    Initial Parameters    !
                           ! (Angstroms and Degrees)  !
 --------------------------                            --------------------------
 ! Name  Definition              Value          Derivative Info.                !
 --------------------------------------------------------------------------------
 ! R1    R(1,3)                  1.3971         estimate D2E/DX2                !
 ! R2    R(1,8)                  1.5091         estimate D2E/DX2                !
 ! R3    R(1,39)                 1.4138         estimate D2E/DX2                !
 ! R4    R(2,4)                  1.3971         estimate D2E/DX2                !
 ! R5    R(2,11)                 1.5091         estimate D2E/DX2                !
 ! R6    R(2,39)                 1.4138         estimate D2E/DX2                !
 ! R7    R(3,5)                  1.4084         estimate D2E/DX2                !
 ! R8    R(3,6)                  1.0976         estimate D2E/DX2                !
 ! R9    R(4,5)                  1.4084         estimate D2E/DX2                !
 ! R10   R(4,7)                  1.0976         estimate D2E/DX2                !
 ! R11   R(5,38)                 1.0936         estimate D2E/DX2                !
 ! R12   R(8,9)                  1.1072         estimate D2E/DX2                !
 ! R13   R(8,10)                 1.112          estimate D2E/DX2                !
 ! R14   R(8,14)                 1.5145         estimate D2E/DX2                !
 ! R15   R(11,12)                1.1072         estimate D2E/DX2                !
 ! R16   R(11,13)                1.112          estimate D2E/DX2                !
 ! R17   R(11,15)                1.5145         estimate D2E/DX2                !
 ! R18   R(14,20)                1.4777         estimate D2E/DX2                !
 ! R19   R(14,24)                1.4863         estimate D2E/DX2                !
 ! R20   R(14,37)                2.1191         estimate D2E/DX2                !
 ! R21   R(15,28)                1.4777         estimate D2E/DX2                !
 ! R22   R(15,32)                1.4863         estimate D2E/DX2                !
 ! R23   R(15,37)                2.1191         estimate D2E/DX2                !
 ! R24   R(16,17)                1.1111         estimate D2E/DX2                !
 ! R25   R(16,18)                1.0993         estimate D2E/DX2                !
 ! R26   R(16,19)                1.0993         estimate D2E/DX2                !
 ! R27   R(16,36)                1.1153         estimate D2E/DX2                !
 ! R28   R(17,37)                2.3985         estimate D2E/DX2                !
 ! R29   R(20,21)                1.1028         estimate D2E/DX2                !
 ! R30   R(20,22)                1.1124         estimate D2E/DX2                !
 ! R31   R(20,23)                1.1005         estimate D2E/DX2                !
 ! R32   R(24,25)                1.1129         estimate D2E/DX2                !
 ! R33   R(24,26)                1.1016         estimate D2E/DX2                !
 ! R34   R(24,27)                1.1002         estimate D2E/DX2                !
 ! R35   R(28,29)                1.1124         estimate D2E/DX2                !
 ! R36   R(28,30)                1.1028         estimate D2E/DX2                !
 ! R37   R(28,31)                1.1005         estimate D2E/DX2                !
 ! R38   R(32,33)                1.1016         estimate D2E/DX2                !
 ! R39   R(32,34)                1.1129         estimate D2E/DX2                !
 ! R40   R(32,35)                1.1002         estimate D2E/DX2                !
 ! R41   R(36,37)                2.315          estimate D2E/DX2                !
 ! R42   R(37,39)                1.8789         estimate D2E/DX2                !
 ! A1    A(3,1,8)              127.7453         estimate D2E/DX2                !
 ! A2    A(3,1,39)             119.7078         estimate D2E/DX2                !
 ! A3    A(8,1,39)             112.0492         estimate D2E/DX2                !
 ! A4    A(4,2,11)             127.7443         estimate D2E/DX2                !
 ! A5    A(4,2,39)             119.7086         estimate D2E/DX2                !
 ! A6    A(11,2,39)            112.0493         estimate D2E/DX2                !
 ! A7    A(1,3,5)              119.7071         estimate D2E/DX2                !
 ! A8    A(1,3,6)              120.6844         estimate D2E/DX2                !
 ! A9    A(5,3,6)              119.6001         estimate D2E/DX2                !
 ! A10   A(2,4,5)              119.7064         estimate D2E/DX2                !
 ! A11   A(2,4,7)              120.6849         estimate D2E/DX2                !
 ! A12   A(5,4,7)              119.6003         estimate D2E/DX2                !
 ! A13   A(3,5,4)              120.6657         estimate D2E/DX2                !
 ! A14   A(3,5,38)             119.652          estimate D2E/DX2                !
 ! A15   A(4,5,38)             119.6515         estimate D2E/DX2                !
 ! A16   A(1,8,9)              109.3318         estimate D2E/DX2                !
 ! A17   A(1,8,10)             114.9787         estimate D2E/DX2                !
 ! A18   A(1,8,14)             109.5159         estimate D2E/DX2                !
 ! A19   A(9,8,10)             107.8103         estimate D2E/DX2                !
 ! A20   A(9,8,14)             105.6373         estimate D2E/DX2                !
 ! A21   A(10,8,14)            109.1451         estimate D2E/DX2                !
 ! A22   A(2,11,12)            109.3312         estimate D2E/DX2                !
 ! A23   A(2,11,13)            114.9791         estimate D2E/DX2                !
 ! A24   A(2,11,15)            109.5159         estimate D2E/DX2                !
 ! A25   A(12,11,13)           107.8098         estimate D2E/DX2                !
 ! A26   A(12,11,15)           105.6373         estimate D2E/DX2                !
 ! A27   A(13,11,15)           109.1457         estimate D2E/DX2                !
 ! A28   A(8,14,20)            109.031          estimate D2E/DX2                !
 ! A29   A(8,14,24)            107.7985         estimate D2E/DX2                !
 ! A30   A(8,14,37)            107.2783         estimate D2E/DX2                !
 ! A31   A(20,14,24)           108.488          estimate D2E/DX2                !
 ! A32   A(20,14,37)           116.1982         estimate D2E/DX2                !
 ! A33   A(24,14,37)           107.7587         estimate D2E/DX2                !
 ! A34   A(11,15,28)           109.0308         estimate D2E/DX2                !
 ! A35   A(11,15,32)           107.7988         estimate D2E/DX2                !
 ! A36   A(11,15,37)           107.2785         estimate D2E/DX2                !
 ! A37   A(28,15,32)           108.4876         estimate D2E/DX2                !
 ! A38   A(28,15,37)           116.1981         estimate D2E/DX2                !
 ! A39   A(32,15,37)           107.7589         estimate D2E/DX2                !
 ! A40   A(17,16,18)           109.0938         estimate D2E/DX2                !
 ! A41   A(17,16,19)           109.0939         estimate D2E/DX2                !
 ! A42   A(17,16,36)           110.9126         estimate D2E/DX2                !
 ! A43   A(18,16,19)           110.1247         estimate D2E/DX2                !
 ! A44   A(18,16,36)           108.8048         estimate D2E/DX2                !
 ! A45   A(19,16,36)           108.8041         estimate D2E/DX2                !
 ! A46   A(16,17,37)            99.3384         estimate D2E/DX2                !
 ! A47   A(14,20,21)           108.6422         estimate D2E/DX2                !
 ! A48   A(14,20,22)           110.7026         estimate D2E/DX2                !
 ! A49   A(14,20,23)           108.8826         estimate D2E/DX2                !
 ! A50   A(21,20,22)           109.108          estimate D2E/DX2                !
 ! A51   A(21,20,23)           109.3862         estimate D2E/DX2                !
 ! A52   A(22,20,23)           110.0915         estimate D2E/DX2                !
 ! A53   A(14,24,25)           109.78           estimate D2E/DX2                !
 ! A54   A(14,24,26)           109.2169         estimate D2E/DX2                !
 ! A55   A(14,24,27)           108.6726         estimate D2E/DX2                !
 ! A56   A(25,24,26)           109.7855         estimate D2E/DX2                !
 ! A57   A(25,24,27)           110.1454         estimate D2E/DX2                !
 ! A58   A(26,24,27)           109.2166         estimate D2E/DX2                !
 ! A59   A(15,28,29)           110.7021         estimate D2E/DX2                !
 ! A60   A(15,28,30)           108.6427         estimate D2E/DX2                !
 ! A61   A(15,28,31)           108.8828         estimate D2E/DX2                !
 ! A62   A(29,28,30)           109.1077         estimate D2E/DX2                !
 ! A63   A(29,28,31)           110.0917         estimate D2E/DX2                !
 ! A64   A(30,28,31)           109.3859         estimate D2E/DX2                !
 ! A65   A(15,32,33)           109.2174         estimate D2E/DX2                !
 ! A66   A(15,32,34)           109.7808         estimate D2E/DX2                !
 ! A67   A(15,32,35)           108.6724         estimate D2E/DX2                !
 ! A68   A(33,32,34)           109.785          estimate D2E/DX2                !
 ! A69   A(33,32,35)           109.2168         estimate D2E/DX2                !
 ! A70   A(34,32,35)           110.1446         estimate D2E/DX2                !
 ! A71   A(16,36,37)           103.9975         estimate D2E/DX2                !
 ! A72   A(14,37,15)           163.1487         estimate D2E/DX2                !
 ! A73   A(14,37,17)            95.1156         estimate D2E/DX2                !
 ! A74   A(14,37,36)            98.3687         estimate D2E/DX2                !
 ! A75   A(14,37,39)            82.494          estimate D2E/DX2                !
 ! A76   A(15,37,17)            95.1169         estimate D2E/DX2                !
 ! A77   A(15,37,36)            98.3646         estimate D2E/DX2                !
 ! A78   A(15,37,39)            82.4939         estimate D2E/DX2                !
 ! A79   A(17,37,36)            45.7515         estimate D2E/DX2                !
 ! A80   A(17,37,39)           154.4239         estimate D2E/DX2                !
 ! A81   A(36,37,39)           159.8245         estimate D2E/DX2                !
 ! A82   A(1,39,2)             120.1912         estimate D2E/DX2                !
 ! A83   A(1,39,37)            119.9034         estimate D2E/DX2                !
 ! A84   A(2,39,37)            119.9037         estimate D2E/DX2                !
 ! D1    D(8,1,3,5)           -169.858          estimate D2E/DX2                !
 ! D2    D(8,1,3,6)              9.0839         estimate D2E/DX2                !
 ! D3    D(39,1,3,5)             1.368          estimate D2E/DX2                !
 ! D4    D(39,1,3,6)          -179.6902         estimate D2E/DX2                !
 ! D5    D(3,1,8,9)             86.0065         estimate D2E/DX2                !
 ! D6    D(3,1,8,10)           -35.3942         estimate D2E/DX2                !
 ! D7    D(3,1,8,14)          -158.6905         estimate D2E/DX2                !
 ! D8    D(39,1,8,9)           -85.7753         estimate D2E/DX2                !
 ! D9    D(39,1,8,10)          152.824          estimate D2E/DX2                !
 ! D10   D(39,1,8,14)           29.5277         estimate D2E/DX2                !
 ! D11   D(3,1,39,2)            -5.7119         estimate D2E/DX2                !
 ! D12   D(3,1,39,37)          173.8019         estimate D2E/DX2                !
 ! D13   D(8,1,39,2)           166.8107         estimate D2E/DX2                !
 ! D14   D(8,1,39,37)          -13.6755         estimate D2E/DX2                !
 ! D15   D(11,2,4,5)           169.8582         estimate D2E/DX2                !
 ! D16   D(11,2,4,7)            -9.0838         estimate D2E/DX2                !
 ! D17   D(39,2,4,5)            -1.3681         estimate D2E/DX2                !
 ! D18   D(39,2,4,7)           179.69           estimate D2E/DX2                !
 ! D19   D(4,2,11,12)          -86.0064         estimate D2E/DX2                !
 ! D20   D(4,2,11,13)           35.3936         estimate D2E/DX2                !
 ! D21   D(4,2,11,15)          158.691          estimate D2E/DX2                !
 ! D22   D(39,2,11,12)          85.7757         estimate D2E/DX2                !
 ! D23   D(39,2,11,13)        -152.8243         estimate D2E/DX2                !
 ! D24   D(39,2,11,15)         -29.5269         estimate D2E/DX2                !
 ! D25   D(4,2,39,1)             5.712          estimate D2E/DX2                !
 ! D26   D(4,2,39,37)         -173.8018         estimate D2E/DX2                !
 ! D27   D(11,2,39,1)         -166.8107         estimate D2E/DX2                !
 ! D28   D(11,2,39,37)          13.6755         estimate D2E/DX2                !
 ! D29   D(1,3,5,4)              2.9834         estimate D2E/DX2                !
 ! D30   D(1,3,5,38)          -179.0393         estimate D2E/DX2                !
 ! D31   D(6,3,5,4)           -175.97           estimate D2E/DX2                !
 ! D32   D(6,3,5,38)             2.0073         estimate D2E/DX2                !
 ! D33   D(2,4,5,3)             -2.9833         estimate D2E/DX2                !
 ! D34   D(2,4,5,38)           179.0393         estimate D2E/DX2                !
 ! D35   D(7,4,5,3)            175.9702         estimate D2E/DX2                !
 ! D36   D(7,4,5,38)            -2.0071         estimate D2E/DX2                !
 ! D37   D(1,8,14,20)         -157.2557         estimate D2E/DX2                !
 ! D38   D(1,8,14,24)           85.161          estimate D2E/DX2                !
 ! D39   D(1,8,14,37)          -30.6458         estimate D2E/DX2                !
 ! D40   D(9,8,14,20)          -39.6152         estimate D2E/DX2                !
 ! D41   D(9,8,14,24)         -157.1985         estimate D2E/DX2                !
 ! D42   D(9,8,14,37)           86.9947         estimate D2E/DX2                !
 ! D43   D(10,8,14,20)          76.0678         estimate D2E/DX2                !
 ! D44   D(10,8,14,24)         -41.5155         estimate D2E/DX2                !
 ! D45   D(10,8,14,37)        -157.3223         estimate D2E/DX2                !
 ! D46   D(2,11,15,28)         157.2545         estimate D2E/DX2                !
 ! D47   D(2,11,15,32)         -85.1626         estimate D2E/DX2                !
 ! D48   D(2,11,15,37)          30.6447         estimate D2E/DX2                !
 ! D49   D(12,11,15,28)         39.6147         estimate D2E/DX2                !
 ! D50   D(12,11,15,32)        157.1976         estimate D2E/DX2                !
 ! D51   D(12,11,15,37)        -86.9952         estimate D2E/DX2                !
 ! D52   D(13,11,15,28)        -76.0681         estimate D2E/DX2                !
 ! D53   D(13,11,15,32)         41.5148         estimate D2E/DX2                !
 ! D54   D(13,11,15,37)        157.3221         estimate D2E/DX2                !
 ! D55   D(8,14,20,21)        -175.4243         estimate D2E/DX2                !
 ! D56   D(8,14,20,22)         -55.6347         estimate D2E/DX2                !
 ! D57   D(8,14,20,23)          65.5222         estimate D2E/DX2                !
 ! D58   D(24,14,20,21)        -58.2776         estimate D2E/DX2                !
 ! D59   D(24,14,20,22)         61.5121         estimate D2E/DX2                !
 ! D60   D(24,14,20,23)       -177.3311         estimate D2E/DX2                !
 ! D61   D(37,14,20,21)         63.2521         estimate D2E/DX2                !
 ! D62   D(37,14,20,22)       -176.9582         estimate D2E/DX2                !
 ! D63   D(37,14,20,23)        -55.8014         estimate D2E/DX2                !
 ! D64   D(8,14,24,25)          63.8155         estimate D2E/DX2                !
 ! D65   D(8,14,24,26)        -175.7665         estimate D2E/DX2                !
 ! D66   D(8,14,24,27)         -56.7064         estimate D2E/DX2                !
 ! D67   D(20,14,24,25)        -54.1182         estimate D2E/DX2                !
 ! D68   D(20,14,24,26)         66.2998         estimate D2E/DX2                !
 ! D69   D(20,14,24,27)       -174.6401         estimate D2E/DX2                !
 ! D70   D(37,14,24,25)        179.3065         estimate D2E/DX2                !
 ! D71   D(37,14,24,26)        -60.2755         estimate D2E/DX2                !
 ! D72   D(37,14,24,27)         58.7845         estimate D2E/DX2                !
 ! D73   D(8,14,37,15)          46.581          estimate D2E/DX2                !
 ! D74   D(8,14,37,17)         173.7703         estimate D2E/DX2                !
 ! D75   D(8,14,37,36)        -140.2515         estimate D2E/DX2                !
 ! D76   D(8,14,37,39)          19.3942         estimate D2E/DX2                !
 ! D77   D(20,14,37,15)        168.832          estimate D2E/DX2                !
 ! D78   D(20,14,37,17)        -63.9787         estimate D2E/DX2                !
 ! D79   D(20,14,37,36)        -18.0005         estimate D2E/DX2                !
 ! D80   D(20,14,37,39)        141.6453         estimate D2E/DX2                !
 ! D81   D(24,14,37,15)        -69.2522         estimate D2E/DX2                !
 ! D82   D(24,14,37,17)         57.9372         estimate D2E/DX2                !
 ! D83   D(24,14,37,36)        103.9153         estimate D2E/DX2                !
 ! D84   D(24,14,37,39)        -96.4389         estimate D2E/DX2                !
 ! D85   D(11,15,28,29)         55.6329         estimate D2E/DX2                !
 ! D86   D(11,15,28,30)        175.4222         estimate D2E/DX2                !
 ! D87   D(11,15,28,31)        -65.5241         estimate D2E/DX2                !
 ! D88   D(32,15,28,29)        -61.5139         estimate D2E/DX2                !
 ! D89   D(32,15,28,30)         58.2754         estimate D2E/DX2                !
 ! D90   D(32,15,28,31)        177.3291         estimate D2E/DX2                !
 ! D91   D(37,15,28,29)        176.9565         estimate D2E/DX2                !
 ! D92   D(37,15,28,30)        -63.2542         estimate D2E/DX2                !
 ! D93   D(37,15,28,31)         55.7995         estimate D2E/DX2                !
 ! D94   D(11,15,32,33)        175.7667         estimate D2E/DX2                !
 ! D95   D(11,15,32,34)        -63.8152         estimate D2E/DX2                !
 ! D96   D(11,15,32,35)         56.7061         estimate D2E/DX2                !
 ! D97   D(28,15,32,33)        -66.2999         estimate D2E/DX2                !
 ! D98   D(28,15,32,34)         54.1183         estimate D2E/DX2                !
 ! D99   D(28,15,32,35)        174.6396         estimate D2E/DX2                !
 ! D100  D(37,15,32,33)         60.2752         estimate D2E/DX2                !
 ! D101  D(37,15,32,34)       -179.3066         estimate D2E/DX2                !
 ! D102  D(37,15,32,35)        -58.7853         estimate D2E/DX2                !
 ! D103  D(11,15,37,14)        -46.5802         estimate D2E/DX2                !
 ! D104  D(11,15,37,17)       -173.7694         estimate D2E/DX2                !
 ! D105  D(11,15,37,36)        140.2522         estimate D2E/DX2                !
 ! D106  D(11,15,37,39)        -19.3935         estimate D2E/DX2                !
 ! D107  D(28,15,37,14)       -168.8311         estimate D2E/DX2                !
 ! D108  D(28,15,37,17)         63.9797         estimate D2E/DX2                !
 ! D109  D(28,15,37,36)         18.0013         estimate D2E/DX2                !
 ! D110  D(28,15,37,39)       -141.6444         estimate D2E/DX2                !
 ! D111  D(32,15,37,14)         69.2535         estimate D2E/DX2                !
 ! D112  D(32,15,37,17)        -57.9357         estimate D2E/DX2                !
 ! D113  D(32,15,37,36)       -103.9141         estimate D2E/DX2                !
 ! D114  D(32,15,37,39)         96.4402         estimate D2E/DX2                !
 ! D115  D(18,16,17,37)       -119.8339         estimate D2E/DX2                !
 ! D116  D(19,16,17,37)        119.8268         estimate D2E/DX2                !
 ! D117  D(36,16,17,37)         -0.0032         estimate D2E/DX2                !
 ! D118  D(17,16,36,37)          0.0033         estimate D2E/DX2                !
 ! D119  D(18,16,36,37)        120.0065         estimate D2E/DX2                !
 ! D120  D(19,16,36,37)       -119.9995         estimate D2E/DX2                !
 ! D121  D(16,17,37,14)         96.7089         estimate D2E/DX2                !
 ! D122  D(16,17,37,15)        -96.6978         estimate D2E/DX2                !
 ! D123  D(16,17,37,36)          0.002          estimate D2E/DX2                !
 ! D124  D(16,17,37,39)       -179.9957         estimate D2E/DX2                !
 ! D125  D(16,36,37,14)        -89.0003         estimate D2E/DX2                !
 ! D126  D(16,36,37,15)         89.0021         estimate D2E/DX2                !
 ! D127  D(16,36,37,17)         -0.002          estimate D2E/DX2                !
 ! D128  D(16,36,37,39)        179.9951         estimate D2E/DX2                !
 ! D129  D(14,37,39,1)          -3.5965         estimate D2E/DX2                !
 ! D130  D(14,37,39,2)         175.9188         estimate D2E/DX2                !
 ! D131  D(15,37,39,1)        -175.9192         estimate D2E/DX2                !
 ! D132  D(15,37,39,2)           3.596          estimate D2E/DX2                !
 ! D133  D(17,37,39,1)         -89.7564         estimate D2E/DX2                !
 ! D134  D(17,37,39,2)          89.7588         estimate D2E/DX2                !
 ! D135  D(36,37,39,1)          90.2483         estimate D2E/DX2                !
 ! D136  D(36,37,39,2)         -90.2365         estimate D2E/DX2                !
 --------------------------------------------------------------------------------
 Trust Radius=3.00D-01 FncErr=1.00D-07 GrdErr=1.00D-06 EigMax=2.50D+02 EigMin=1.00D-04
 Number of steps in this run=    234 maximum allowed number of steps=    234.
 GradGradGradGradGradGradGradGradGradGradGradGradGradGradGradGradGradGrad

                          Input orientation:                          
 ---------------------------------------------------------------------
 Center     Atomic      Atomic             Coordinates (Angstroms)
 Number     Number       Type             X           Y           Z
 ---------------------------------------------------------------------
      1          6           0        1.927690    1.225440   -0.109310
      2          6           0        1.927560   -1.225620   -0.109300
      3          6           0        3.319820    1.223580    0.008650
      4          6           0        3.319690   -1.223920    0.008660
      5          6           0        4.010980   -0.000200    0.098850
      6          1           0        3.882730    2.165870    0.014450
      7          1           0        3.882500   -2.166270    0.014470
      8          6           0        1.029020    2.395540   -0.426650
      9          1           0        0.954820    2.513370   -1.525010
     10          1           0        1.357890    3.369010   -0.001600
     11          6           0        1.028770   -2.395640   -0.426630
     12          1           0        0.954570   -2.513470   -1.525000
     13          1           0        1.357540   -3.369140   -0.001580
     14          7           0       -0.377810    2.096280    0.047790
     15          7           0       -0.378030   -2.096230    0.047790
     16          6           0       -3.454190    0.000110    0.060330
     17          1           0       -2.809730    0.000180    0.965440
     18          1           0       -4.083760    0.901310    0.067070
     19          1           0       -4.083700   -0.901120    0.067170
     20          6           0       -1.330540    2.932250   -0.711820
     21          1           0       -2.343010    2.770620   -0.305600
     22          1           0       -1.068830    4.009520   -0.619530
     23          1           0       -1.308020    2.626940   -1.768930
     24          6           0       -0.462490    2.471260    1.483550
     25          1           0       -0.307970    3.567600    1.596210
     26          1           0       -1.454440    2.192510    1.873200
     27          1           0        0.312090    1.920520    2.037710
     28          6           0       -1.330840   -2.932100   -0.711840
     29          1           0       -1.069220   -4.009390   -0.619570
     30          1           0       -2.343290   -2.770400   -0.305620
     31          1           0       -1.308300   -2.626770   -1.768940
     32          6           0       -0.462780   -2.471210    1.483540
     33          1           0       -1.454700   -2.192360    1.873180
     34          1           0       -0.308380   -3.567570    1.596210
     35          1           0        0.311860   -1.920560    2.037720
     36          1           0       -2.836390    0.000070   -0.868280
     37         77           0       -0.656050    0.000040   -0.090260
     38          1           0        5.099210   -0.000260    0.207020
     39          6           0        1.222790   -0.000060   -0.107880
 ---------------------------------------------------------------------
                    Distance matrix (angstroms):
                    1          2          3          4          5
     1  C    0.000000
     2  C    2.451060   0.000000
     3  C    1.397120   2.819731   0.000000
     4  C    2.819742   1.397120   2.447500   0.000000
     5  C    2.426030   2.426030   1.408359   1.408370   0.000000
     6  H    2.172995   3.916658   1.097639   3.436237   2.171504
     7  H    3.916670   2.173001   3.436237   1.097639   2.171517
     8  C    1.509121   3.744447   2.609740   4.305480   3.861063
     9  H    2.146962   4.114669   3.099822   4.681035   4.277274
    10  H    2.220623   4.631063   2.907257   4.994374   4.289587
    11  C    3.744459   1.509128   4.305477   2.609736   3.861067
    12  H    4.114680   2.146968   4.681029   3.099814   4.277272
    13  H    4.631074   2.220632   4.994369   2.907251   4.289591
    14  N    2.469488   4.046533   3.799422   4.969584   4.864084
    15  N    4.046544   2.469491   4.969584   3.799420   4.864089
    16  C    5.522214   5.522175   6.883804   6.883776   7.465269
    17  H    5.009940   5.009947   6.323254   6.323262   6.875541
    18  H    6.022765   6.378942   7.410821   7.702667   8.144848
    19  H    6.378888   6.022598   7.702589   7.410655   8.144723
    20  C    3.727235   5.316590   5.006444   6.278334   6.147218
    21  H    4.545876   5.852028   5.878752   6.936950   6.943645
    22  H    4.121960   6.053543   5.236060   6.858763   6.511405
    23  H    3.897225   5.297695   5.152292   6.277312   6.219504
    24  C    3.130851   4.681499   4.247105   5.489494   5.295039
    25  H    3.659602   5.557096   4.601699   6.216019   5.798673
    26  H    4.037867   5.201139   5.216218   6.159612   6.150375
    27  H    2.775427   4.137341   3.694489   4.801063   4.596752
    28  C    5.316597   3.727237   6.278329   5.006439   6.147219
    29  H    6.053535   4.121946   6.858739   5.236034   6.511387
    30  H    5.852055   4.545882   6.936963   5.878751   6.943655
    31  H    5.297691   3.897232   6.277302   5.152295   6.219506
    32  C    4.681532   3.130872   5.489521   4.247126   5.295072
    33  H    5.201172   4.037883   6.159640   5.216235   6.150404
    34  H    5.557135   3.659634   6.216052   4.601728   5.798714
    35  H    4.137386   2.775450   4.801100   3.694514   4.596791
    36  H    4.977351   4.977307   6.337579   6.337547   6.915332
    37  Ir   2.859664   2.859658   4.161055   4.161054   4.670860
    38  H    3.414812   3.414810   2.168724   2.168728   1.093593
    39  C    1.413767   1.413754   2.430722   2.430721   2.795843
                    6          7          8          9         10
     6  H    0.000000
     7  H    4.332140   0.000000
     8  C    2.896719   5.398800   0.000000
     9  H    3.326161   5.730649   1.107151   0.000000
    10  H    2.796895   6.083851   1.111965   1.793143   0.000000
    11  C    5.398797   2.896714   4.791180   5.030933   5.789660
    12  H    5.730641   3.326152   5.030934   5.026840   6.089908
    13  H    6.083846   2.796887   5.789658   6.089905   6.738150
    14  N    4.261239   6.026664   1.514536   2.103228   2.152890
    15  N    6.026664   4.261236   4.730844   5.049614   5.734519
    16  C    7.650034   7.649989   5.106310   5.316874   5.874473
    17  H    7.098142   7.098154   4.734096   5.166266   5.445479
    18  H    8.066402   8.536634   5.349486   5.524558   5.975434
    19  H    8.536581   8.066209   6.103420   6.291301   6.917344
    20  C    5.319116   7.327905   2.436576   2.461627   2.814752
    21  H    6.263225   7.951874   3.394985   3.525453   3.761269
    22  H    5.321553   7.940907   2.653886   2.674606   2.584775
    23  H    5.507896   7.286760   2.704999   2.278780   3.283474
    24  C    4.597005   6.522562   2.424706   3.325955   2.515037
    25  H    4.693483   7.275933   2.693182   3.528180   2.316792
    26  H    5.651641   7.137000   3.390886   4.177956   3.578858
    27  H    4.111356   5.791647   2.610115   3.668453   2.711200
    28  C    7.327899   5.319110   5.833868   5.961429   6.887503
    29  H    7.940883   5.321525   6.742622   6.889337   7.791889
    30  H    7.951889   6.263217   6.170418   6.346863   7.175202
    31  H    7.286746   5.507905   5.699860   5.621588   6.795693
    32  C    6.522591   4.597022   5.436869   5.992245   6.295129
    33  H    7.137031   5.651654   5.701483   6.284694   6.508018
    34  H    7.275967   4.693508   6.437335   6.950937   7.310649
    35  H    5.791688   4.111373   5.021569   5.724175   5.764768
    36  H    7.114526   7.114475   4.568885   4.595786   5.449117
    37  Ir   5.030140   5.030140   2.948057   3.312135   3.926038
    38  H    2.491792   2.491798   4.765275   5.147255   5.039145
    39  C    3.432419   3.432418   2.424471   2.897826   3.373452
                   11         12         13         14         15
    11  C    0.000000
    12  H    1.107161   0.000000
    13  H    1.111962   1.793144   0.000000
    14  N    4.730844   5.049624   5.734518   0.000000
    15  N    1.514532   2.103231   2.152891   4.192510   0.000000
    16  C    5.106239   5.316815   5.874387   3.722660   3.722574
    17  H    4.734120   5.166303   5.445510   3.339154   3.339189
    18  H    6.103407   6.291278   6.917312   3.893891   4.766346
    19  H    5.349278   5.524386   5.975194   4.766383   3.893668
    20  C    5.833874   5.961447   6.887505   1.477683   5.173963
    21  H    6.170396   6.346856   7.175176   2.107517   5.260443
    22  H    6.742641   6.889370   7.791903   2.140867   6.180834
    23  H    5.699883   5.621622   6.795713   2.108877   5.145259
    24  C    5.436852   5.992242   6.295109   1.486334   4.788581
    25  H    6.437312   6.950926   7.310624   2.137116   5.872094
    26  H    5.701462   6.284691   6.507994   2.121441   4.783730
    27  H    5.021538   5.724155   5.764735   2.113442   4.535452
    28  C    2.436574   2.461621   2.814758   5.173965   1.477688
    29  H    2.653861   2.674567   2.584762   6.180827   2.140863
    30  H    3.394978   3.525448   3.761259   5.260474   2.107522
    31  H    2.705016   2.278799   3.283501   5.145243   2.108882
    32  C    2.424702   3.325955   2.515040   4.788587   1.486328
    33  H    3.390881   4.177957   3.578859   4.783741   2.121440
    34  H    2.693190   3.528190   2.316807   5.872105   2.137124
    35  H    2.610111   3.668459   2.711194   4.535468   2.113440
    36  H    4.568801   4.595709   5.449018   3.358258   3.358153
    37  Ir   2.948058   3.312146   3.926039   2.119127   2.119127
    38  H    4.765274   5.147248   5.039143   5.866735   5.866737
    39  C    2.424469   2.897827   3.373449   2.642119   2.642118
                   16         17         18         19         20
    16  C    0.000000
    17  H    1.111104   0.000000
    18  H    1.099348   1.800627   0.000000
    19  H    1.099339   1.800619   1.802430   0.000000
    20  C    3.701831   3.687579   3.508790   4.783455   0.000000
    21  H    3.007383   3.083619   2.581359   4.080519   1.102830
    22  H    4.714607   4.649481   4.384312   5.803049   1.112439
    23  H    3.853891   4.078208   3.748790   4.850038   1.100547
    24  C    4.133087   3.447348   4.193418   5.147061   2.405342
    25  H    4.998461   4.402631   4.868671   6.046781   2.603137
    26  H    3.477372   2.732609   3.441312   4.443568   2.691634
    27  H    4.667212   3.818799   4.923993   5.582799   3.358831
    28  C    3.701718   3.687635   4.783336   3.508557   5.864350
    29  H    4.714492   4.649547   5.802922   4.384067   6.947170
    30  H    3.007282   3.083711   4.080391   2.581125   5.806107
    31  H    3.853774   4.078234   4.849893   3.748601   5.658684
    32  C    4.132975   3.447372   5.147016   4.193131   5.896609
    33  H    3.477256   2.732642   4.443510   3.441019   5.741016
    34  H    4.998339   4.402665   6.046706   4.868363   6.972767
    35  H    4.667138   3.818815   5.582821   4.923746   5.814397
    36  H    1.115345   1.833914   1.800846   1.800831   3.299961
    37  Ir   2.802189   2.398508   3.547709   3.547627   3.072317
    38  H    8.554658   7.945221   9.228183   9.228052   7.126399
    39  C    4.680004   4.172917   5.385401   5.385294   3.934804
                   21         22         23         24         25
    21  H    0.000000
    22  H    1.804705   0.000000
    23  H    1.798105   1.813797   0.000000
    24  C    2.612859   2.675227   3.364191   0.000000
    25  H    2.897144   2.384052   3.634434   1.112893   0.000000
    26  H    2.423002   3.108685   3.670869   1.101587   1.811626
    27  H    3.641885   3.651272   4.196939   1.100174   1.814461
    28  C    5.806077   6.947176   5.658700   5.896615   6.972765
    29  H    6.905770   8.018910   6.739357   6.840326   7.930950
    30  H    5.541020   6.905802   5.687208   5.849234   6.923130
    31  H    5.687162   6.739350   5.253710   6.106062   7.120050
    32  C    5.849194   6.840326   6.106073   4.942470   6.041845
    33  H    5.492481   6.695208   6.042527   4.783894   5.879527
    34  H    6.923096   7.930957   7.120070   6.041847   7.135170
    35  H    5.877640   6.643277   6.147711   4.493863   5.540670
    36  H    2.869840   4.388831   3.169784   4.156114   5.019351
    37  Ir   3.250895   4.065273   3.184902   2.936200   3.961417
    38  H    7.957839   7.403124   7.201330   6.218557   6.625486
    39  C    4.520032   4.646508   4.008144   3.388250   4.239734
                   26         27         28         29         30
    26  H    0.000000
    27  H    1.794901   0.000000
    28  C    5.741022   5.814393   0.000000
    29  H    6.695212   6.643266   1.112435   0.000000
    30  H    5.492521   5.877667   1.102822   1.804693   0.000000
    31  H    6.042516   6.147690   1.100543   1.813794   1.798093
    32  C    4.783880   4.493865   2.405336   2.675227   2.612839
    33  H    4.384870   4.479330   2.691632   3.108697   2.422992
    34  H    5.879515   5.540671   2.603141   2.384064   2.897119
    35  H    4.479311   3.841080   3.358833   3.651271   3.641880
    36  H    3.772571   4.695299   3.299814   4.388680   2.869710
    37  Ir   3.049512   3.025524   3.072320   4.065268   3.250922
    38  H    7.108778   5.473330   7.126397   7.403101   7.957844
    39  C    3.987430   3.020192   3.934800   4.646489   4.520046
                   31         32         33         34         35
    31  H    0.000000
    32  C    3.364183   0.000000
    33  H    3.670856   1.101582   0.000000
    34  H    3.634443   1.112897   1.811619   0.000000
    35  H    4.196941   1.100181   1.794905   1.814462   0.000000
    36  H    3.169627   4.155996   3.772455   5.019223   4.695225
    37  Ir   3.184890   2.936201   3.049517   3.961426   3.025534
    38  H    7.201330   6.218587   7.108806   6.625525   5.473366
    39  C    4.008135   3.388266   3.987447   4.239756   3.020217
                   36         37         38         39
    36  H    0.000000
    37  Ir   2.314994   0.000000
    38  H    8.008122   5.762933   0.000000
    39  C    4.129788   1.878923   3.889189   0.000000
 Stoichiometry    C13H23IrN2
 Framework group  C1[X(C13H23IrN2)]
 Deg. of freedom   111
 Full point group                 C1      NOp   1
 Largest Abelian subgroup         C1      NOp   1
 Largest concise Abelian subgroup C1      NOp   1
                         Standard orientation:                         
 ---------------------------------------------------------------------
 Center     Atomic      Atomic             Coordinates (Angstroms)
 Number     Number       Type             X           Y           Z
 ---------------------------------------------------------------------
      1          6           0        1.927690    1.225443   -0.109311
      2          6           0        1.927564   -1.225617   -0.109301
      3          6           0        3.319820    1.223586    0.008649
      4          6           0        3.319694   -1.223914    0.008659
      5          6           0        4.010982   -0.000193    0.098849
      6          1           0        3.882728    2.165877    0.014449
      7          1           0        3.882506   -2.166263    0.014469
      8          6           0        1.029017    2.395541   -0.426651
      9          1           0        0.954817    2.513371   -1.525011
     10          1           0        1.357885    3.369012   -0.001601
     11          6           0        1.028777   -2.395639   -0.426631
     12          1           0        0.954577   -2.513469   -1.525001
     13          1           0        1.357549   -3.369138   -0.001581
     14          7           0       -0.377812    2.096278    0.047789
     15          7           0       -0.378024   -2.096232    0.047789
     16          6           0       -3.454188    0.000102    0.060329
     17          1           0       -2.809728    0.000173    0.965439
     18          1           0       -4.083760    0.901301    0.067069
     19          1           0       -4.083696   -0.901129    0.067169
     20          6           0       -1.330544    2.932246   -0.711821
     21          1           0       -2.343014    2.770614   -0.305601
     22          1           0       -1.068836    4.009517   -0.619531
     23          1           0       -1.308023    2.626936   -1.768931
     24          6           0       -0.462493    2.471258    1.483549
     25          1           0       -0.307975    3.567598    1.596209
     26          1           0       -1.454442    2.192506    1.873199
     27          1           0        0.312088    1.920519    2.037709
     28          6           0       -1.330832   -2.932104   -0.711841
     29          1           0       -1.069210   -4.009393   -0.619571
     30          1           0       -2.343282   -2.770406   -0.305621
     31          1           0       -1.308293   -2.626774   -1.768941
     32          6           0       -0.462773   -2.471212    1.483539
     33          1           0       -1.454694   -2.192364    1.873179
     34          1           0       -0.308371   -3.567572    1.596209
     35          1           0        0.311866   -1.920561    2.037719
     36          1           0       -2.836388    0.000063   -0.868281
     37         77           0       -0.656048    0.000038   -0.090261
     38          1           0        5.099212   -0.000251    0.207019
     39          6           0        1.222792   -0.000059   -0.107881
 ---------------------------------------------------------------------
 Rotational constants (GHZ):           0.5360879           0.4568292           0.2750373
 Standard basis: def2TZVPP (5D, 7F)
 There are   956 symmetry adapted cartesian basis functions of A   symmetry.
 There are   843 symmetry adapted basis functions of A   symmetry.
   843 basis functions,  1256 primitive gaussians,   956 cartesian basis functions
    66 alpha electrons       66 beta electrons
       nuclear repulsion energy      1373.1718496432 Hartrees.
 NAtoms=   39 NActive=   39 NUniq=   39 SFac= 1.00D+00 NAtFMM=   60 NAOKFM=F Big=F
 Integral buffers will be    131072 words long.
 Raffenetti 2 integral format.
 Two-electron integral symmetry is turned on.
 Nuclear repulsion after empirical dispersion term =     1373.1297836675 Hartrees.
 ------------------------------------------------------------------------------
 Polarizable Continuum Model (PCM)
 =================================
 Model                : PCM.
 Atomic radii         : UFF (Universal Force Field).
 Polarization charges : Total charges.
 Charge compensation  : None.
 Solution method      : On-the-fly selection.
 Cavity type          : Scaled VdW (van der Waals Surface) (Alpha=1.100).
 Cavity algorithm     : GePol (No added spheres)
                        Default sphere list used, NSphG=   39.
                        Lebedev-Laikov grids with approx.  5.0 points / Ang**2.
                        Smoothing algorithm: York/Karplus (Gamma=1.0000).
                        Polarization charges: spherical gaussians, with
                                              point-specific exponents (IZeta= 3).
                        Self-potential: point-specific (ISelfS= 7).
                        Self-field    : sphere-specific E.n sum rule (ISelfD= 2).
 1st derivatives      : Analytical E(r).r(x)/FMM algorithm (CHGder, D1EAlg=3).
                        Cavity 1st derivative terms included.
 Solvent              : Dichloromethane, Eps=   8.930000 Eps(inf)=   2.028346
 ------------------------------------------------------------------------------
 One-electron integrals computed using PRISM.
 PrsmSu:  requested number of processors reduced to:   5 ShMem   1 Linda.
   1 Symmetry operations used in ECPInt.
 ECPInt:  NShTT=   51040 NPrTT=  129700 LenC2=   46483 LenP2D=   90935.
 LDataN:  DoStor=T MaxTD1= 9 Len=  602
 NBasis=   843 RedAO= T EigKep=  6.41D-06  NBF=   843
 NBsUse=   843 1.00D-06 EigRej= -1.00D+00 NBFU=   843
 Defaulting to unpruned grid for atomic number  77.
 ExpMin= 5.00D-02 ExpMax= 1.97D+04 ExpMxC= 6.73D+02 IAcc=3 IRadAn=         5 AccDes= 0.00D+00
 Harris functional with IExCor= 4639 and IRadAn=       5 diagonalized for initial guess.
 HarFok:  IExCor= 4639 AccDes= 0.00D+00 IRadAn=         5 IDoV= 1 UseB2=F ITyADJ=14
 ICtDFT=  3500011 ScaDFX=  1.000000  1.000000  1.000000  1.000000
 Defaulting to unpruned grid for atomic number  77.
 FoFCou: FMM=F IPFlag=           0 FMFlag=      100000 FMFlg1=           0
         NFxFlg=           0 DoJE=T BraDBF=F KetDBF=T FulRan=T
         wScrn=  0.000000 ICntrl=       500 IOpCl=  0 I1Cent=   200000004 NGrid=           0
         NMat0=    1 NMatS0=      1 NMatT0=    0 NMatD0=    1 NMtDS0=    0 NMtDT0=    0
 Petite list used in FoFCou.
 Requested convergence on RMS density matrix=1.00D-08 within 128 cycles.
 Requested convergence on MAX density matrix=1.00D-06.
 Requested convergence on             energy=1.00D-06.
 No special actions if energy rises.
 Defaulting to unpruned grid for atomic number  77.
 Defaulting to unpruned grid for atomic number  77.
 Defaulting to unpruned grid for atomic number  77.
 Defaulting to unpruned grid for atomic number  77.
 Defaulting to unpruned grid for atomic number  77.
 Defaulting to unpruned grid for atomic number  77.
 Defaulting to unpruned grid for atomic number  77.
 Defaulting to unpruned grid for atomic number  77.
 Inv3:  Mode=1 IEnd=    19768467.
 Iteration    1 A*A^-1 deviation from unit magnitude is 2.89D-15 for   1091.
 Iteration    1 A*A^-1 deviation from orthogonality  is 3.00D-15 for   2379    906.
 Iteration    1 A^-1*A deviation from unit magnitude is 2.89D-15 for    374.
 Iteration    1 A^-1*A deviation from orthogonality  is 2.55D-15 for   2251   1093.
 Error on total polarization charges =  0.01829
 SCF Done:  E(RwB97XD) =  -723.177674898     A.U. after   17 cycles
            NFock= 17  Conv=0.34D-08     -V/T= 2.1118

 **********************************************************************

            Population analysis using the SCF Density.

 **********************************************************************

 Orbital symmetries:
       Occupied  (A) (A) (A) (A) (A) (A) (A) (A) (A) (A) (A) (A)
                 (A) (A) (A) (A) (A) (A) (A) (A) (A) (A) (A) (A)
                 (A) (A) (A) (A) (A) (A) (A) (A) (A) (A) (A) (A)
                 (A) (A) (A) (A) (A) (A) (A) (A) (A) (A) (A) (A)
                 (A) (A) (A) (A) (A) (A) (A) (A) (A) (A) (A) (A)
                 (A) (A) (A) (A) (A) (A)
       Virtual   (A) (A) (A) (A) (A) (A) (A) (A) (A) (A) (A) (A)
                 (A) (A) (A) (A) (A) (A) (A) (A) (A) (A) (A) (A)
                 (A) (A) (A) (A) (A) (A) (A) (A) (A) (A) (A) (A)
                 (A) (A) (A) (A) (A) (A) (A) (A) (A) (A) (A) (A)
                 (A) (A) (A) (A) (A) (A) (A) (A) (A) (A) (A) (A)
                 (A) (A) (A) (A) (A) (A) (A) (A) (A) (A) (A) (A)
                 (A) (A) (A) (A) (A) (A) (A) (A) (A) (A) (A) (A)
                 (A) (A) (A) (A) (A) (A) (A) (A) (A) (A) (A) (A)
                 (A) (A) (A) (A) (A) (A) (A) (A) (A) (A) (A) (A)
                 (A) (A) (A) (A) (A) (A) (A) (A) (A) (A) (A) (A)
                 (A) (A) (A) (A) (A) (A) (A) (A) (A) (A) (A) (A)
                 (A) (A) (A) (A) (A) (A) (A) (A) (A) (A) (A) (A)
                 (A) (A) (A) (A) (A) (A) (A) (A) (A) (A) (A) (A)
                 (A) (A) (A) (A) (A) (A) (A) (A) (A) (A) (A) (A)
                 (A) (A) (A) (A) (A) (A) (A) (A) (A) (A) (A) (A)
                 (A) (A) (A) (A) (A) (A) (A) (A) (A) (A) (A) (A)
                 (A) (A) (A) (A) (A) (A) (A) (A) (A) (A) (A) (A)
                 (A) (A) (A) (A) (A) (A) (A) (A) (A) (A) (A) (A)
                 (A) (A) (A) (A) (A) (A) (A) (A) (A) (A) (A) (A)
                 (A) (A) (A) (A) (A) (A) (A) (A) (A) (A) (A) (A)
                 (A) (A) (A) (A) (A) (A) (A) (A) (A) (A) (A) (A)
                 (A) (A) (A) (A) (A) (A) (A) (A) (A) (A) (A) (A)
                 (A) (A) (A) (A) (A) (A) (A) (A) (A) (A) (A) (A)
                 (A) (A) (A) (A) (A) (A) (A) (A) (A) (A) (A) (A)
                 (A) (A) (A) (A) (A) (A) (A) (A) (A) (A) (A) (A)
                 (A) (A) (A) (A) (A) (A) (A) (A) (A) (A) (A) (A)
                 (A) (A) (A) (A) (A) (A) (A) (A) (A) (A) (A) (A)
                 (A) (A) (A) (A) (A) (A) (A) (A) (A) (A) (A) (A)
                 (A) (A) (A) (A) (A) (A) (A) (A) (A) (A) (A) (A)
                 (A) (A) (A) (A) (A) (A) (A) (A) (A) (A) (A) (A)
                 (A) (A) (A) (A) (A) (A) (A) (A) (A) (A) (A) (A)
                 (A) (A) (A) (A) (A) (A) (A) (A) (A) (A) (A) (A)
                 (A) (A) (A) (A) (A) (A) (A) (A) (A) (A) (A) (A)
                 (A) (A) (A) (A) (A) (A) (A) (A) (A) (A) (A) (A)
                 (A) (A) (A) (A) (A) (A) (A) (A) (A) (A) (A) (A)
                 (A) (A) (A) (A) (A) (A) (A) (A) (A) (A) (A) (A)
                 (A) (A) (A) (A) (A) (A) (A) (A) (A) (A) (A) (A)
                 (A) (A) (A) (A) (A) (A) (A) (A) (A) (A) (A) (A)
                 (A) (A) (A) (A) (A) (A) (A) (A) (A) (A) (A) (A)
                 (A) (A) (A) (A) (A) (A) (A) (A) (A) (A) (A) (A)
                 (A) (A) (A) (A) (A) (A) (A) (A) (A) (A) (A) (A)
                 (A) (A) (A) (A) (A) (A) (A) (A) (A) (A) (A) (A)
                 (A) (A) (A) (A) (A) (A) (A) (A) (A) (A) (A) (A)
                 (A) (A) (A) (A) (A) (A) (A) (A) (A) (A) (A) (A)
                 (A) (A) (A) (A) (A) (A) (A) (A) (A) (A) (A) (A)
                 (A) (A) (A) (A) (A) (A) (A) (A) (A) (A) (A) (A)
                 (A) (A) (A) (A) (A) (A) (A) (A) (A) (A) (A) (A)
                 (A) (A) (A) (A) (A) (A) (A) (A) (A) (A) (A) (A)
                 (A) (A) (A) (A) (A) (A) (A) (A) (A) (A) (A) (A)
                 (A) (A) (A) (A) (A) (A) (A) (A) (A) (A) (A) (A)
                 (A) (A) (A) (A) (A) (A) (A) (A) (A) (A) (A) (A)
                 (A) (A) (A) (A) (A) (A) (A) (A) (A) (A) (A) (A)
                 (A) (A) (A) (A) (A) (A) (A) (A) (A) (A) (A) (A)
                 (A) (A) (A) (A) (A) (A) (A) (A) (A) (A) (A) (A)
                 (A) (A) (A) (A) (A) (A) (A) (A) (A) (A) (A) (A)
                 (A) (A) (A) (A) (A) (A) (A) (A) (A) (A) (A) (A)
                 (A) (A) (A) (A) (A) (A) (A) (A) (A) (A) (A) (A)
                 (A) (A) (A) (A) (A) (A) (A) (A) (A) (A) (A) (A)
                 (A) (A) (A) (A) (A) (A) (A) (A) (A) (A) (A) (A)
                 (A) (A) (A) (A) (A) (A) (A) (A) (A) (A) (A) (A)
                 (A) (A) (A) (A) (A) (A) (A) (A) (A) (A) (A) (A)
                 (A) (A) (A) (A) (A) (A) (A) (A) (A) (A) (A) (A)
                 (A) (A) (A) (A) (A) (A) (A) (A) (A) (A) (A) (A)
                 (A) (A) (A) (A) (A) (A) (A) (A) (A) (A) (A) (A)
                 (A) (A) (A) (A) (A) (A) (A) (A) (A)
 The electronic state is 1-A.
 Alpha  occ. eigenvalues --  -14.48767 -14.48767 -10.31841 -10.31841 -10.31207
 Alpha  occ. eigenvalues --  -10.31206 -10.30979 -10.30979 -10.28141 -10.27842
 Alpha  occ. eigenvalues --  -10.27841 -10.27412 -10.27412 -10.27046 -10.26137
 Alpha  occ. eigenvalues --   -3.70512  -2.04859  -2.04352  -2.01854  -1.04796
 Alpha  occ. eigenvalues --   -1.04353  -0.93840  -0.86714  -0.84376  -0.80980
 Alpha  occ. eigenvalues --   -0.80967  -0.80202  -0.78303  -0.77637  -0.71356
 Alpha  occ. eigenvalues --   -0.70293  -0.66129  -0.65855  -0.59779  -0.57773
 Alpha  occ. eigenvalues --   -0.57177  -0.56899  -0.56257  -0.54995  -0.54795
 Alpha  occ. eigenvalues --   -0.52388  -0.50530  -0.50053  -0.49572  -0.49180
 Alpha  occ. eigenvalues --   -0.48967  -0.48447  -0.47820  -0.47382  -0.46492
 Alpha  occ. eigenvalues --   -0.46110  -0.45538  -0.45338  -0.44985  -0.43850
 Alpha  occ. eigenvalues --   -0.42201  -0.41698  -0.40151  -0.36931  -0.36299
 Alpha  occ. eigenvalues --   -0.33290  -0.30915  -0.25878  -0.24235  -0.23185
 Alpha  occ. eigenvalues --   -0.22376
 Alpha virt. eigenvalues --    0.05432   0.06488   0.09091   0.11008   0.11240
 Alpha virt. eigenvalues --    0.11739   0.12601   0.14189   0.15282   0.15618
 Alpha virt. eigenvalues --    0.15679   0.15861   0.16482   0.16767   0.16932
 Alpha virt. eigenvalues --    0.16944   0.17855   0.17932   0.18902   0.19878
 Alpha virt. eigenvalues --    0.20197   0.20471   0.20736   0.21194   0.21310
 Alpha virt. eigenvalues --    0.21614   0.22668   0.23155   0.23560   0.23817
 Alpha virt. eigenvalues --    0.24568   0.24689   0.25098   0.25655   0.26500
 Alpha virt. eigenvalues --    0.26514   0.27192   0.27873   0.28435   0.30317
 Alpha virt. eigenvalues --    0.30418   0.30473   0.31729   0.32617   0.32797
 Alpha virt. eigenvalues --    0.33527   0.33622   0.34335   0.34670   0.35589
 Alpha virt. eigenvalues --    0.36226   0.36809   0.37404   0.37405   0.38682
 Alpha virt. eigenvalues --    0.39201   0.39999   0.40542   0.40696   0.41131
 Alpha virt. eigenvalues --    0.41387   0.41767   0.43298   0.43887   0.44654
 Alpha virt. eigenvalues --    0.45069   0.45432   0.45753   0.46829   0.46904
 Alpha virt. eigenvalues --    0.47291   0.47721   0.48077   0.48110   0.49128
 Alpha virt. eigenvalues --    0.49382   0.49585   0.49960   0.50045   0.50816
 Alpha virt. eigenvalues --    0.51048   0.51153   0.51327   0.51818   0.51900
 Alpha virt. eigenvalues --    0.52236   0.52875   0.52941   0.53145   0.53516
 Alpha virt. eigenvalues --    0.54254   0.55313   0.55635   0.56309   0.56901
 Alpha virt. eigenvalues --    0.57268   0.57536   0.58312   0.58511   0.59162
 Alpha virt. eigenvalues --    0.59559   0.60550   0.60864   0.61164   0.61856
 Alpha virt. eigenvalues --    0.62295   0.62366   0.62928   0.62963   0.63617
 Alpha virt. eigenvalues --    0.64910   0.66431   0.66512   0.68519   0.68967
 Alpha virt. eigenvalues --    0.69537   0.70341   0.71085   0.72277   0.72780
 Alpha virt. eigenvalues --    0.74653   0.74720   0.75058   0.76011   0.77068
 Alpha virt. eigenvalues --    0.77456   0.78752   0.78937   0.79233   0.80017
 Alpha virt. eigenvalues --    0.80700   0.82678   0.83114   0.84252   0.84379
 Alpha virt. eigenvalues --    0.85503   0.85629   0.86111   0.88761   0.89444
 Alpha virt. eigenvalues --    0.89986   0.90074   0.90321   0.92059   0.92405
 Alpha virt. eigenvalues --    0.92895   0.93009   0.93776   0.95095   0.95106
 Alpha virt. eigenvalues --    0.96055   0.97302   0.97698   0.99199   0.99224
 Alpha virt. eigenvalues --    1.00460   1.00651   1.01055   1.01197   1.01699
 Alpha virt. eigenvalues --    1.02501   1.02928   1.03873   1.04565   1.05087
 Alpha virt. eigenvalues --    1.05383   1.05795   1.06381   1.06771   1.08121
 Alpha virt. eigenvalues --    1.08619   1.09374   1.09721   1.09798   1.10595
 Alpha virt. eigenvalues --    1.10922   1.11315   1.12176   1.12538   1.13207
 Alpha virt. eigenvalues --    1.13897   1.14213   1.14243   1.15280   1.16566
 Alpha virt. eigenvalues --    1.17082   1.17390   1.17942   1.18922   1.19450
 Alpha virt. eigenvalues --    1.20487   1.21215   1.21253   1.22432   1.23267
 Alpha virt. eigenvalues --    1.24035   1.24176   1.25147   1.25178   1.26754
 Alpha virt. eigenvalues --    1.27148   1.27912   1.28443   1.29624   1.29950
 Alpha virt. eigenvalues --    1.29960   1.31408   1.31555   1.32881   1.33242
 Alpha virt. eigenvalues --    1.33336   1.34387   1.35288   1.35295   1.36205
 Alpha virt. eigenvalues --    1.36893   1.37114   1.37845   1.39075   1.39285
 Alpha virt. eigenvalues --    1.40049   1.40376   1.41186   1.41944   1.42686
 Alpha virt. eigenvalues --    1.42867   1.43800   1.44885   1.45097   1.45980
 Alpha virt. eigenvalues --    1.46345   1.46813   1.46966   1.48562   1.48954
 Alpha virt. eigenvalues --    1.49134   1.49287   1.50111   1.51291   1.51448
 Alpha virt. eigenvalues --    1.52128   1.52658   1.52871   1.53072   1.54123
 Alpha virt. eigenvalues --    1.55427   1.55801   1.55843   1.56563   1.56945
 Alpha virt. eigenvalues --    1.57566   1.57662   1.58810   1.59713   1.60290
 Alpha virt. eigenvalues --    1.61514   1.61553   1.62728   1.62802   1.63158
 Alpha virt. eigenvalues --    1.64713   1.64920   1.65903   1.66989   1.68278
 Alpha virt. eigenvalues --    1.69163   1.69803   1.70661   1.71092   1.71157
 Alpha virt. eigenvalues --    1.72066   1.73443   1.73646   1.75127   1.75172
 Alpha virt. eigenvalues --    1.75784   1.76728   1.77338   1.78964   1.79397
 Alpha virt. eigenvalues --    1.80685   1.81424   1.82761   1.83492   1.83744
 Alpha virt. eigenvalues --    1.85129   1.86839   1.87310   1.87485   1.88689
 Alpha virt. eigenvalues --    1.90010   1.90531   1.91850   1.92678   1.94904
 Alpha virt. eigenvalues --    1.96299   1.97814   1.98366   1.98858   2.00133
 Alpha virt. eigenvalues --    2.00386   2.02197   2.03173   2.06135   2.06360
 Alpha virt. eigenvalues --    2.08030   2.08833   2.09471   2.12022   2.13703
 Alpha virt. eigenvalues --    2.15290   2.16598   2.17268   2.18688   2.18986
 Alpha virt. eigenvalues --    2.20296   2.21200   2.23063   2.24980   2.26021
 Alpha virt. eigenvalues --    2.26311   2.26739   2.27287   2.29101   2.31742
 Alpha virt. eigenvalues --    2.34757   2.35306   2.36824   2.37375   2.38652
 Alpha virt. eigenvalues --    2.40751   2.41801   2.42539   2.43827   2.46895
 Alpha virt. eigenvalues --    2.50760   2.50766   2.53273   2.55412   2.57642
 Alpha virt. eigenvalues --    2.60113   2.60839   2.61215   2.63970   2.64107
 Alpha virt. eigenvalues --    2.65037   2.66274   2.66560   2.67539   2.68843
 Alpha virt. eigenvalues --    2.69217   2.69507   2.70012   2.71228   2.73241
 Alpha virt. eigenvalues --    2.73633   2.74201   2.74258   2.76465   2.77239
 Alpha virt. eigenvalues --    2.77706   2.78100   2.78988   2.79134   2.80026
 Alpha virt. eigenvalues --    2.83595   2.83617   2.84605   2.85369   2.86033
 Alpha virt. eigenvalues --    2.87107   2.87825   2.88010   2.88728   2.89011
 Alpha virt. eigenvalues --    2.89899   2.89973   2.90422   2.90780   2.91406
 Alpha virt. eigenvalues --    2.91884   2.92071   2.92608   2.92653   2.93067
 Alpha virt. eigenvalues --    2.93276   2.95648   2.96130   2.96876   2.97059
 Alpha virt. eigenvalues --    2.98467   2.99273   2.99394   3.00018   3.00269
 Alpha virt. eigenvalues --    3.00555   3.01686   3.02162   3.02629   3.03695
 Alpha virt. eigenvalues --    3.05157   3.05298   3.06244   3.07169   3.07453
 Alpha virt. eigenvalues --    3.07856   3.08230   3.08650   3.09997   3.10434
 Alpha virt. eigenvalues --    3.11412   3.12292   3.12622   3.13335   3.14082
 Alpha virt. eigenvalues --    3.14417   3.15104   3.15916   3.16679   3.16749
 Alpha virt. eigenvalues --    3.18876   3.19122   3.19243   3.19635   3.20562
 Alpha virt. eigenvalues --    3.21118   3.21207   3.23372   3.23840   3.24636
 Alpha virt. eigenvalues --    3.24862   3.25060   3.25373   3.26502   3.27010
 Alpha virt. eigenvalues --    3.28381   3.28855   3.29824   3.30834   3.31314
 Alpha virt. eigenvalues --    3.31964   3.32254   3.32521   3.33072   3.34018
 Alpha virt. eigenvalues --    3.35063   3.36008   3.36388   3.36889   3.37222
 Alpha virt. eigenvalues --    3.37286   3.38766   3.38833   3.40027   3.40449
 Alpha virt. eigenvalues --    3.41164   3.41451   3.42411   3.43280   3.43676
 Alpha virt. eigenvalues --    3.43819   3.44912   3.45637   3.46072   3.47082
 Alpha virt. eigenvalues --    3.47146   3.47685   3.48258   3.49432   3.50499
 Alpha virt. eigenvalues --    3.50780   3.51508   3.51958   3.52531   3.53078
 Alpha virt. eigenvalues --    3.53268   3.54268   3.54886   3.55339   3.55902
 Alpha virt. eigenvalues --    3.56581   3.57341   3.58006   3.58842   3.59431
 Alpha virt. eigenvalues --    3.59443   3.59596   3.60045   3.61255   3.61493
 Alpha virt. eigenvalues --    3.61573   3.62137   3.62413   3.63660   3.64018
 Alpha virt. eigenvalues --    3.65123   3.66224   3.66560   3.67085   3.67344
 Alpha virt. eigenvalues --    3.67681   3.68246   3.69034   3.69766   3.70409
 Alpha virt. eigenvalues --    3.70590   3.71767   3.72309   3.73736   3.73893
 Alpha virt. eigenvalues --    3.73989   3.74557   3.75772   3.76149   3.77211
 Alpha virt. eigenvalues --    3.78928   3.79215   3.80236   3.80508   3.81597
 Alpha virt. eigenvalues --    3.81920   3.82214   3.83506   3.83861   3.84014
 Alpha virt. eigenvalues --    3.84593   3.86212   3.86820   3.87398   3.88428
 Alpha virt. eigenvalues --    3.89811   3.90788   3.91210   3.92593   3.92709
 Alpha virt. eigenvalues --    3.95205   3.95353   3.95531   3.96377   3.97395
 Alpha virt. eigenvalues --    3.98763   3.99162   3.99862   4.00206   4.01267
 Alpha virt. eigenvalues --    4.01340   4.01582   4.01727   4.03629   4.04436
 Alpha virt. eigenvalues --    4.06413   4.06486   4.06996   4.07326   4.09059
 Alpha virt. eigenvalues --    4.09192   4.10451   4.10988   4.13070   4.13241
 Alpha virt. eigenvalues --    4.13671   4.15148   4.15429   4.15654   4.16345
 Alpha virt. eigenvalues --    4.16951   4.18017   4.18629   4.19385   4.20110
 Alpha virt. eigenvalues --    4.20152   4.21439   4.22111   4.22543   4.22864
 Alpha virt. eigenvalues --    4.23629   4.24394   4.25034   4.25099   4.25245
 Alpha virt. eigenvalues --    4.25892   4.26330   4.27793   4.27901   4.28802
 Alpha virt. eigenvalues --    4.29474   4.29503   4.30041   4.30795   4.30804
 Alpha virt. eigenvalues --    4.30856   4.31916   4.32096   4.33263   4.33517
 Alpha virt. eigenvalues --    4.33863   4.34667   4.35293   4.35738   4.36719
 Alpha virt. eigenvalues --    4.36997   4.37246   4.38094   4.38920   4.39085
 Alpha virt. eigenvalues --    4.40228   4.40733   4.40784   4.40952   4.42831
 Alpha virt. eigenvalues --    4.43187   4.44293   4.46588   4.46733   4.47893
 Alpha virt. eigenvalues --    4.48447   4.50177   4.50763   4.51674   4.53890
 Alpha virt. eigenvalues --    4.54179   4.56383   4.57730   4.59064   4.61131
 Alpha virt. eigenvalues --    4.62245   4.63241   4.66188   4.66496   4.66750
 Alpha virt. eigenvalues --    4.69630   4.69890   4.71583   4.72364   4.73677
 Alpha virt. eigenvalues --    4.73805   4.75767   4.76469   4.76722   4.77681
 Alpha virt. eigenvalues --    4.79309   4.79989   4.80003   4.81285   4.83862
 Alpha virt. eigenvalues --    4.84518   4.85877   4.86229   4.88917   4.90830
 Alpha virt. eigenvalues --    4.90990   4.92969   4.93087   4.94033   4.95352
 Alpha virt. eigenvalues --    4.96848   4.98404   4.99499   5.00549   5.02245
 Alpha virt. eigenvalues --    5.02529   5.04663   5.07198   5.08756   5.09756
 Alpha virt. eigenvalues --    5.09940   5.10121   5.12548   5.14258   5.14702
 Alpha virt. eigenvalues --    5.16639   5.17349   5.17861   5.18501   5.19790
 Alpha virt. eigenvalues --    5.20993   5.21096   5.22054   5.22771   5.22911
 Alpha virt. eigenvalues --    5.23295   5.24266   5.24725   5.25450   5.26875
 Alpha virt. eigenvalues --    5.28344   5.29024   5.29384   5.30664   5.30669
 Alpha virt. eigenvalues --    5.32697   5.33435   5.33896   5.34895   5.34919
 Alpha virt. eigenvalues --    5.36191   5.37285   5.37920   5.38076   5.39176
 Alpha virt. eigenvalues --    5.39410   5.40354   5.40459   5.41390   5.42449
 Alpha virt. eigenvalues --    5.43398   5.43964   5.45287   5.46366   5.47432
 Alpha virt. eigenvalues --    5.49256   5.49455   5.51514   5.53044   5.53828
 Alpha virt. eigenvalues --    5.53964   5.55575   5.56590   5.58784   5.59907
 Alpha virt. eigenvalues --    5.64134   5.64534   5.65431   5.65512   5.66931
 Alpha virt. eigenvalues --    5.67286   5.67894   5.68522   5.68663   5.68882
 Alpha virt. eigenvalues --    5.69651   5.73006   5.73480   5.75498   5.75945
 Alpha virt. eigenvalues --    5.78094   5.78596   5.78660   5.79428   5.80725
 Alpha virt. eigenvalues --    5.81189   5.82168   5.85595   5.88279   5.91402
 Alpha virt. eigenvalues --    5.93569   5.95960   5.98654   6.05406   6.09922
 Alpha virt. eigenvalues --    6.11404   6.12539   6.16976   6.19033   6.33473
 Alpha virt. eigenvalues --    6.33555   6.52508  22.64304  23.20840  23.21335
 Alpha virt. eigenvalues --   23.24377  23.31535  23.45790  23.55059  23.70909
 Alpha virt. eigenvalues --   23.77747  23.81313  23.82839  23.90520  23.95855
 Alpha virt. eigenvalues --   32.90421  32.93699  33.91742  41.10370  42.65642
 Alpha virt. eigenvalues --   59.77422 363.48326
          Condensed to atoms (all electrons):
               1          2          3          4          5          6
     1  C    5.468676  -0.067536   0.451800  -0.066433  -0.064671  -0.040792
     2  C   -0.067536   5.468688  -0.066432   0.451799  -0.064671  -0.000772
     3  C    0.451800  -0.066432   5.058823   0.004717   0.484922   0.431447
     4  C   -0.066433   0.451799   0.004717   5.058828   0.484918   0.006805
     5  C   -0.064671  -0.064671   0.484922   0.484918   4.975166  -0.037751
     6  H   -0.040792  -0.000772   0.431447   0.006805  -0.037751   0.521382
     7  H   -0.000772  -0.040791   0.006804   0.431446  -0.037749  -0.000245
     8  C    0.312613   0.017223  -0.074301  -0.005324   0.011515  -0.004230
     9  H   -0.034168  -0.000592  -0.000738   0.000242   0.000214   0.000205
    10  H   -0.060457  -0.000709  -0.001059   0.000238  -0.000349   0.001969
    11  C    0.017223   0.312620  -0.005324  -0.074299   0.011515   0.000097
    12  H   -0.000592  -0.034169   0.000242  -0.000738   0.000213  -0.000001
    13  H   -0.000709  -0.060456   0.000238  -0.001059  -0.000349  -0.000002
    14  N   -0.106417   0.014989   0.000411  -0.000087  -0.000378   0.000056
    15  N    0.014989  -0.106420  -0.000087   0.000411  -0.000378  -0.000003
    16  C    0.000527   0.000527   0.000026   0.000026  -0.000006   0.000000
    17  H   -0.000050  -0.000049   0.000012   0.000012  -0.000003   0.000000
    18  H   -0.000011  -0.000016  -0.000000  -0.000000   0.000000  -0.000000
    19  H   -0.000016  -0.000011  -0.000000  -0.000000   0.000000   0.000000
    20  C    0.016629  -0.000553  -0.000257   0.000047   0.000004  -0.000028
    21  H   -0.001046   0.000039  -0.000006  -0.000003   0.000002  -0.000001
    22  H    0.000877   0.000033  -0.000027  -0.000001  -0.000006   0.000021
    23  H   -0.000408  -0.000204  -0.000050   0.000011  -0.000003  -0.000003
    24  C    0.011283  -0.002048   0.002505   0.000153  -0.000222   0.000017
    25  H   -0.006211   0.000215  -0.000525   0.000008  -0.000024   0.000006
    26  H    0.000839  -0.000129  -0.000065  -0.000002   0.000007   0.000001
    27  H    0.016669  -0.000602   0.002949  -0.000093   0.000033   0.000072
    28  C   -0.000553   0.016630   0.000047  -0.000257   0.000004   0.000001
    29  H    0.000033   0.000876  -0.000001  -0.000027  -0.000006  -0.000000
    30  H    0.000039  -0.001045  -0.000003  -0.000006   0.000002  -0.000000
    31  H   -0.000204  -0.000408   0.000011  -0.000050  -0.000003   0.000000
    32  C   -0.002048   0.011283   0.000153   0.002505  -0.000222   0.000000
    33  H   -0.000129   0.000839  -0.000002  -0.000065   0.000007  -0.000000
    34  H    0.000215  -0.006210   0.000008  -0.000525  -0.000024  -0.000000
    35  H   -0.000602   0.016668  -0.000093   0.002949   0.000033   0.000002
    36  H    0.000158   0.000158   0.000003   0.000003  -0.000001  -0.000000
    37  Ir  -0.084106  -0.084107   0.010021   0.010021   0.001731  -0.001190
    38  H    0.008981   0.008981  -0.045662  -0.045663   0.448129  -0.004357
    39  C    0.177023   0.176997   0.015282   0.015281  -0.085311   0.013804
               7          8          9         10         11         12
     1  C   -0.000772   0.312613  -0.034168  -0.060457   0.017223  -0.000592
     2  C   -0.040791   0.017223  -0.000592  -0.000709   0.312620  -0.034169
     3  C    0.006804  -0.074301  -0.000738  -0.001059  -0.005324   0.000242
     4  C    0.431446  -0.005324   0.000242   0.000238  -0.074299  -0.000738
     5  C   -0.037749   0.011515   0.000214  -0.000349   0.011515   0.000213
     6  H   -0.000245  -0.004230   0.000205   0.001969   0.000097  -0.000001
     7  H    0.521379   0.000097  -0.000001  -0.000002  -0.004230   0.000205
     8  C    0.000097   4.935353   0.430913   0.428266  -0.000077   0.000008
     9  H   -0.000001   0.430913   0.575930  -0.023779   0.000008   0.000007
    10  H   -0.000002   0.428266  -0.023779   0.565858   0.000024  -0.000002
    11  C   -0.004230  -0.000077   0.000008   0.000024   4.935351   0.430912
    12  H    0.000205   0.000008   0.000007  -0.000002   0.430912   0.575934
    13  H    0.001969   0.000024  -0.000002  -0.000000   0.428266  -0.023779
    14  N   -0.000003   0.280142  -0.040201  -0.023682   0.000339   0.000084
    15  N    0.000056   0.000339   0.000084  -0.000043   0.280140  -0.040201
    16  C    0.000000   0.000542   0.000050  -0.000038   0.000542   0.000050
    17  H    0.000000  -0.000031   0.000011   0.000001  -0.000031   0.000011
    18  H    0.000000  -0.000039   0.000003   0.000001   0.000010  -0.000000
    19  H   -0.000000   0.000010  -0.000000   0.000000  -0.000039   0.000003
    20  C    0.000001  -0.037124  -0.005204  -0.009122  -0.000117  -0.000005
    21  H   -0.000000   0.010680   0.000579  -0.000575  -0.000009   0.000001
    22  H   -0.000000  -0.012397  -0.003082   0.006613   0.000004  -0.000000
    23  H    0.000000  -0.007707   0.003065  -0.000342  -0.000028   0.000000
    24  C    0.000000  -0.038527   0.007298  -0.014043   0.000091  -0.000001
    25  H   -0.000000  -0.012418  -0.000153   0.007578  -0.000004   0.000000
    26  H   -0.000000   0.008164  -0.000266  -0.000233  -0.000022   0.000001
    27  H    0.000002  -0.009697   0.000388  -0.003575   0.000107  -0.000004
    28  C   -0.000028  -0.000117  -0.000005   0.000002  -0.037123  -0.005204
    29  H    0.000021   0.000004  -0.000000  -0.000000  -0.012397  -0.003082
    30  H   -0.000001  -0.000009   0.000001  -0.000000   0.010680   0.000579
    31  H   -0.000003  -0.000028   0.000000   0.000000  -0.007707   0.003064
    32  C    0.000017   0.000091  -0.000001   0.000001  -0.038526   0.007298
    33  H    0.000001  -0.000022   0.000001   0.000000   0.008163  -0.000266
    34  H    0.000006  -0.000004   0.000000   0.000000  -0.012419  -0.000153
    35  H    0.000072   0.000107  -0.000004  -0.000001  -0.009696   0.000388
    36  H   -0.000000  -0.000197  -0.000074  -0.000001  -0.000197  -0.000074
    37  Ir  -0.001190  -0.063348  -0.001865   0.011401  -0.063350  -0.001864
    38  H   -0.004356  -0.000271   0.000003  -0.000010  -0.000271   0.000003
    39  C    0.013804  -0.103925  -0.011374   0.016540  -0.103925  -0.011374
              13         14         15         16         17         18
     1  C   -0.000709  -0.106417   0.014989   0.000527  -0.000050  -0.000011
     2  C   -0.060456   0.014989  -0.106420   0.000527  -0.000049  -0.000016
     3  C    0.000238   0.000411  -0.000087   0.000026   0.000012  -0.000000
     4  C   -0.001059  -0.000087   0.000411   0.000026   0.000012  -0.000000
     5  C   -0.000349  -0.000378  -0.000378  -0.000006  -0.000003   0.000000
     6  H   -0.000002   0.000056  -0.000003   0.000000   0.000000  -0.000000
     7  H    0.001969  -0.000003   0.000056   0.000000   0.000000   0.000000
     8  C    0.000024   0.280142   0.000339   0.000542  -0.000031  -0.000039
     9  H   -0.000002  -0.040201   0.000084   0.000050   0.000011   0.000003
    10  H   -0.000000  -0.023682  -0.000043  -0.000038   0.000001   0.000001
    11  C    0.428266   0.000339   0.280140   0.000542  -0.000031   0.000010
    12  H   -0.023779   0.000084  -0.040201   0.000050   0.000011  -0.000000
    13  H    0.565856  -0.000043  -0.023681  -0.000038   0.000001   0.000000
    14  N   -0.000043   6.366956  -0.006352   0.005997   0.001136  -0.000632
    15  N   -0.023681  -0.006352   6.366954   0.005998   0.001135  -0.000039
    16  C   -0.000038   0.005997   0.005998   4.892586   0.362475   0.412807
    17  H    0.000001   0.001136   0.001135   0.362475   0.560190  -0.014995
    18  H    0.000000  -0.000632  -0.000039   0.412807  -0.014995   0.526494
    19  H    0.000001  -0.000039  -0.000632   0.412812  -0.014996  -0.015071
    20  C    0.000002   0.252988   0.000685   0.002394  -0.001393  -0.001381
    21  H   -0.000000  -0.034161   0.000035   0.001371  -0.000645  -0.000145
    22  H   -0.000000  -0.019821  -0.000017  -0.000119  -0.000029  -0.000043
    23  H    0.000000  -0.038901   0.000051  -0.000722   0.000166   0.000213
    24  C    0.000001   0.260605   0.000612  -0.000878   0.000686   0.000351
    25  H    0.000000  -0.023556  -0.000035  -0.000201   0.000045  -0.000014
    26  H    0.000000  -0.033398   0.000173   0.000386  -0.000359  -0.000130
    27  H   -0.000001  -0.033282   0.000198   0.000329  -0.000143   0.000005
    28  C   -0.009122   0.000685   0.252988   0.002394  -0.001393   0.000012
    29  H    0.006613  -0.000017  -0.019821  -0.000119  -0.000029   0.000004
    30  H   -0.000575   0.000035  -0.034160   0.001372  -0.000645   0.000217
    31  H   -0.000342   0.000051  -0.038900  -0.000722   0.000166  -0.000027
    32  C   -0.014042   0.000612   0.260606  -0.000878   0.000686  -0.000062
    33  H   -0.000233   0.000173  -0.033398   0.000386  -0.000359   0.000050
    34  H    0.007578  -0.000035  -0.023556  -0.000201   0.000045   0.000002
    35  H   -0.003575   0.000198  -0.033282   0.000329  -0.000143  -0.000001
    36  H   -0.000001  -0.000781  -0.000781   0.355129  -0.027633  -0.014796
    37  Ir   0.011400   0.151400   0.151396  -0.085884   0.042230  -0.002294
    38  H   -0.000010   0.000008   0.000008  -0.000000  -0.000000   0.000000
    39  C    0.016541   0.031514   0.031520  -0.006888  -0.002300   0.000251
              19         20         21         22         23         24
     1  C   -0.000016   0.016629  -0.001046   0.000877  -0.000408   0.011283
     2  C   -0.000011  -0.000553   0.000039   0.000033  -0.000204  -0.002048
     3  C   -0.000000  -0.000257  -0.000006  -0.000027  -0.000050   0.002505
     4  C   -0.000000   0.000047  -0.000003  -0.000001   0.000011   0.000153
     5  C    0.000000   0.000004   0.000002  -0.000006  -0.000003  -0.000222
     6  H    0.000000  -0.000028  -0.000001   0.000021  -0.000003   0.000017
     7  H   -0.000000   0.000001  -0.000000  -0.000000   0.000000   0.000000
     8  C    0.000010  -0.037124   0.010680  -0.012397  -0.007707  -0.038527
     9  H   -0.000000  -0.005204   0.000579  -0.003082   0.003065   0.007298
    10  H    0.000000  -0.009122  -0.000575   0.006613  -0.000342  -0.014043
    11  C   -0.000039  -0.000117  -0.000009   0.000004  -0.000028   0.000091
    12  H    0.000003  -0.000005   0.000001  -0.000000   0.000000  -0.000001
    13  H    0.000001   0.000002  -0.000000  -0.000000   0.000000   0.000001
    14  N   -0.000039   0.252988  -0.034161  -0.019821  -0.038901   0.260605
    15  N   -0.000632   0.000685   0.000035  -0.000017   0.000051   0.000612
    16  C    0.412812   0.002394   0.001371  -0.000119  -0.000722  -0.000878
    17  H   -0.014996  -0.001393  -0.000645  -0.000029   0.000166   0.000686
[...]
 000275,-0.00000162,-0.00000582,0.00001760,-0.00000719,-0.00000843,-0.0
 0002450,-0.00000080,0.00000775,0.00000277,0.00000363,0.00000050,0.0000
 0319,0.00000283,0.00000378,-0.00016035,0.00037390,-0.00037010,0.000118
 48,-0.00014775,0.00006349,-0.00008781,-0.00040497,-0.00000989,-0.00003
 137,0.00011714,-0.00001633,0.00857703,0.00487689,0.00652772,-0.0000009
 6,-0.00002994,0.00000574,-0.00001918,0.00003108,0.00000387,0.00000884,
 -0.00000729,-0.00000544,-0.00002162,0.00001153,0.00000261,0.00001832,0
 .00000949,0.00001293,0.00000017,0.00000086,0.00000099,-0.00000623,0.00
 001379,-0.00000487,-0.00000012,0.00000518,-0.00000884,0.00001387,-0.00
 000276,-0.00000019,0.00000080,0.00001738,-0.00000490,0.00000647,-0.000
 00079,0.00000031,-0.00002200,-0.00000995,0.00000467,-0.00031370,0.0000
 7970,0.00090049,0.00006443,0.00049338,0.00036723,-0.00012695,-0.000176
 01,0.00006320,0.00000746,0.00047787,0.00042010,-0.09765189,-0.12009426
 ,-0.07777865,0.00601137,0.00387893,0.00511085,-0.02068130,-0.01330568,
 -0.01575106,0.10349298,0.12479561,0.00025035,0.00019383,0.00000271,0.0
 0037720,0.00021134,0.00008464,-0.00025553,0.00006968,-0.00003400,0.000
 35018,0.00016862,0.00002860,0.00000986,-0.00028353,-0.00000778,-0.0000
 0932,-0.00000944,0.00000167,-0.00000622,0.00001311,0.00000507,-0.00004
 528,0.00002236,0.00002657,0.00001367,-0.00000416,-0.00000069,0.0000172
 2,-0.00000896,-0.00000786,-0.00158617,-0.00045329,0.00066020,-0.000135
 16,-0.00005344,0.00019837,0.00023316,-0.00019345,-0.00007665,0.0000294
 7,0.00025030,-0.00000362,-0.02394203,-0.01606767,-0.02300015,0.0000703
 8,0.00001776,-0.00004741,0.00001807,0.00001771,-0.00001638,0.00001761,
 0.00000010,0.00000242,0.00002686,-0.00000365,-0.00002197,0.00002240,0.
 00000608,0.00001695,0.00000039,0.00000325,0.00000309,-0.00000990,0.000
 00243,-0.00001964,-0.00000323,0.00000266,-0.00002131,0.00000308,-0.000
 03109,-0.00002463,0.00000265,0.00000561,-0.00000110,0.00000196,-0.0000
 0002,0.00000364,-0.00000823,-0.00000457,0.00000733,0.00224175,0.003078
 36,-0.00570872,0.00014170,-0.00007575,0.00007327,-0.00005963,0.0001598
 1,0.00024959,-0.00125981,-0.00110557,-0.00119535,-0.09426909,-0.071044
 37,-0.12454813,0.00696129,0.00600597,0.00704038,0.00230166,0.00107236,
 0.00247169,0.10870712,0.07884994,0.14416495,0.00046874,0.00083721,0.00
 002382,0.00046779,-0.00083714,0.00002357,-0.00060207,-0.00018470,0.000
 17011,-0.00060193,0.00018480,0.00017077,0.00079324,-0.00000002,0.00005
 016,-0.00001206,0.00007364,-0.00001075,-0.00001221,-0.00007343,-0.0000
 1097,-0.00026838,-0.00023926,-0.00018025,-0.00007247,0.00007751,-0.000
 04346,0.00001926,0.00005451,0.00005344,-0.00026887,0.00023917,-0.00017
 993,-0.00007239,-0.00007752,-0.00004370,0.00001950,-0.00005462,0.00005
 353,-0.00040977,0.00014904,-0.00003623,-0.00040963,-0.00014993,-0.0000
 3715,-0.11187092,-0.00003425,0.08613239,0.01683950,0.00000713,-0.01608
 970,-0.01024937,-0.00196871,0.01458239,-0.01024478,0.00195670,0.014574
 91,0.00044015,-0.00019849,0.00013315,-0.00020378,0.00015086,0.00011381
 ,-0.00016400,0.00016642,-0.00005138,0.00014814,-0.00014208,-0.00020042
 ,0.00016167,-0.00001157,-0.00019703,-0.00002575,0.00020028,0.00002159,
 0.00003537,0.00004450,0.00005925,-0.00007543,0.00001954,-0.00008043,0.
 00044324,0.00020330,0.00013355,-0.00016442,-0.00016660,-0.00005106,-0.
 00020278,-0.00015178,0.00011406,0.00014950,0.00013718,-0.00019876,0.00
 016119,0.00001198,-0.00019714,0.00003569,-0.00004476,0.00005929,-0.000
 02597,-0.00020013,0.00002169,-0.00007567,-0.00001941,-0.00008075,0.118
 64223,0.00001360,-0.00013207,0.00009527,-0.00001494,-0.00013139,-0.000
 09493,0.00011189,-0.00003561,0.00004396,-0.00011141,-0.00003543,-0.000
 04353,-0.00000032,0.00012187,-0.00000014,0.00001326,0.00000246,-0.0000
 0177,-0.00001334,0.00000253,0.00000175,-0.00010006,0.00000417,0.000043
 98,0.00000432,0.00002006,0.00000763,0.00001096,0.00001091,0.00000514,0
 .00009989,0.00000394,-0.00004419,-0.00000421,0.00002009,-0.00000759,-0
 .00001100,0.00001103,-0.00000512,-0.00028045,0.00036414,-0.00032113,0.
 00028027,0.00036560,0.00031937,-0.00004194,-0.03666407,0.00006216,-0.0
 0000117,-0.00260913,-0.00000097,0.01192131,0.00071790,-0.02031221,-0.0
 1192313,0.00070199,0.02031846,-0.00018191,0.00013616,0.00010889,0.0002
 0516,-0.00018670,-0.00019382,0.00015999,0.00006243,-0.00001947,-0.0001
 0199,-0.00016409,-0.00007296,-0.00001350,-0.00006244,-0.00005534,0.000
 01119,-0.00001992,0.00000020,0.00001717,0.00001014,-0.00000383,0.00002
 359,0.00000079,0.00005329,0.00018369,0.00013857,-0.00010968,-0.0001604
 8,0.00006253,0.00001962,-0.00020943,-0.00018321,0.00019510,0.00010064,
 -0.00016725,0.00007339,0.00001320,-0.00006237,0.00005541,-0.00001725,0
 .00001018,0.00000367,-0.00001114,-0.00001970,-0.00000015,-0.00002348,0
 .00000086,-0.00005322,0.00004209,0.03930904,0.00090067,0.00005243,-0.0
 0015520,0.00090162,-0.00005245,-0.00015511,-0.00003554,0.00029071,-0.0
 0027453,-0.00003605,-0.00029104,-0.00027479,0.00011738,0.00000025,0.00
 004645,0.00009970,0.00002097,0.00002300,0.00009977,-0.00002109,0.00002
 306,0.00019915,0.00002648,0.00028412,-0.00003830,-0.00001946,-0.000027
 24,0.00004306,0.00008426,-0.00004543,0.00019918,-0.00002633,0.00028401
 ,-0.00003833,0.00001950,-0.00002715,0.00004296,-0.00008420,-0.00004547
 ,0.00009554,0.00001938,0.00005137,0.00009313,-0.00001660,0.00004906,0.
 10525270,0.00006504,-0.20194062,0.01503526,0.00000608,-0.01526436,-0.0
 0136362,0.00003381,0.00104667,-0.00137095,-0.00003592,0.00105751,-0.00
 021150,0.00017771,0.00008869,0.00012298,-0.00009319,-0.00007554,0.0000
 9717,0.00002053,-0.00004029,-0.00001336,0.00005133,0.00010414,-0.00003
 456,-0.00004759,-0.00017845,-0.00000669,-0.00003496,0.00006121,-0.0000
 3179,0.00003833,-0.00000822,0.00006419,-0.00001721,0.00001903,-0.00021
 130,-0.00017642,0.00008680,0.00009751,-0.00002045,-0.00004051,0.000124
 40,0.00009404,-0.00007592,-0.00001223,-0.00005162,0.00010309,-0.000034
 14,0.00004730,-0.00017839,-0.00003182,-0.00003843,-0.00000812,-0.00000
 665,0.00003486,0.00006117,0.00006421,0.00001722,0.00001913,-0.10037635
 ,-0.00007352,0.22483323,-0.02885391,-0.02300461,0.00018602,-0.02884646
 ,0.02300793,0.00018431,0.00680647,-0.00086898,0.00012484,0.00680520,0.
 00086662,0.00012340,-0.00761073,0.00000094,-0.00052054,-0.00005405,-0.
 00040496,-0.00003435,-0.00005361,0.00040493,-0.00003390,-0.00810889,-0
 .01147295,0.00054323,0.00127542,-0.00078168,-0.00004782,-0.00233444,-0
 .00012656,0.00061093,-0.00809209,0.01146885,0.00053980,0.00127493,0.00
 078180,-0.00004709,-0.00233533,0.00012662,0.00061094,-0.04245890,0.005
 69440,0.00089550,-0.04247072,-0.00568081,0.00089547,-0.01628804,-0.000
 01122,0.00910946,-0.00283478,-0.00000022,0.01356553,0.00147878,0.00070
 207,-0.00058713,0.00147786,-0.00070206,-0.00058638,0.00298523,0.008366
 81,0.00173966,0.00066817,0.00058932,0.00003999,-0.00051742,0.00291659,
 -0.00136827,-0.00004815,0.00023508,0.00022445,-0.00009695,-0.00034523,
 -0.00125708,0.00136473,0.00049211,0.00053755,0.00076077,0.00080270,-0.
 00029663,0.00026543,-0.00103754,0.00014070,0.00298464,-0.00837007,0.00
 173979,-0.00051811,-0.00291680,-0.00136735,0.00066374,-0.00058438,0.00
 004070,-0.00004847,-0.00023506,0.00022517,-0.00008563,0.00033598,-0.00
 126306,0.00076001,-0.00080263,-0.00029589,0.00136409,-0.00049145,0.000
 53738,0.00026596,0.00103779,0.00014100,0.00427940,0.00000797,-0.021249
 33,0.34868423,-0.02136406,0.00085980,-0.00004665,0.02137137,0.00085398
 ,0.00004854,0.00041291,-0.00602274,-0.00002627,-0.00041674,-0.00602459
 ,0.00002162,-0.00000014,0.00211889,0.00000201,-0.00118493,0.00012531,-
 0.00017617,0.00118543,0.00012484,0.00017755,-0.01594979,-0.00912692,0.
 00272054,0.00060572,0.00022304,-0.00069491,0.00052015,0.00055551,0.000
 37375,0.01594132,-0.00911968,-0.00271552,-0.00060590,0.00022372,0.0006
 9357,-0.00052006,0.00055648,-0.00037410,-0.00646313,-0.03955407,-0.001
 12627,0.00647764,-0.03956625,0.00111898,0.00000069,-0.01851879,-0.0000
 1104,0.00000356,-0.00144857,0.00000505,0.00493177,0.00161976,-0.000724
 07,-0.00493454,0.00161737,0.00072636,0.00362717,-0.01110580,0.00482003
 ,-0.00072021,0.00018569,-0.00065901,-0.00060400,0.00093438,-0.00081431
 ,-0.00075821,-0.00017104,-0.00105509,-0.00057656,-0.01053782,-0.011620
 81,0.00009612,0.00009442,0.00118535,-0.00067412,-0.00079377,0.00045509
 ,0.00033494,-0.00122198,0.00066355,-0.00363083,-0.01110804,-0.00481848
 ,0.00060485,0.00093462,0.00081435,0.00071883,0.00018955,0.00065841,0.0
 0075764,-0.00017074,0.00105458,0.00056756,-0.01052659,0.01162179,0.000
 67541,-0.00079430,-0.00045620,-0.00009612,0.00009615,-0.00118595,-0.00
 033388,-0.00122175,-0.00066305,-0.00000144,-0.00226214,0.00000155,-0.0
 0001676,0.22664041,-0.00062068,0.00007000,0.00971621,-0.00062011,-0.00
 006922,0.00971611,0.00002196,0.00018587,0.00401536,0.00002152,-0.00018
 611,0.00401552,-0.00039590,0.00000015,-0.00073877,0.00006921,0.0000353
 1,-0.00048515,0.00006919,-0.00003521,-0.00048526,0.00085261,0.00340309
 ,-0.00106145,-0.00053018,0.00019149,0.00020265,0.00139615,0.00032299,0
 .00034976,0.00085170,-0.00340281,-0.00106093,-0.00053031,-0.00019131,0
 .00020244,0.00139636,-0.00032351,0.00035000,0.00136042,0.00141577,-0.0
 4392877,0.00135613,-0.00142235,-0.04393387,0.00466915,-0.00001283,0.02
 296672,-0.00802197,0.00000150,-0.01161998,-0.00007335,-0.00000951,-0.0
 0443675,-0.00007566,0.00001224,-0.00443504,0.00186265,0.00842157,0.000
 27268,-0.00011498,-0.00009752,0.00012262,-0.00130409,0.00211240,-0.000
 09587,0.00037525,0.00066204,0.00058050,-0.00305808,-0.01558791,-0.0038
 1833,-0.00006696,-0.00299599,-0.00238326,-0.00053209,-0.00132896,-0.00
 025813,0.00047420,-0.00140057,-0.00003236,0.00186282,-0.00842295,0.000
 27436,-0.00130453,-0.00211263,-0.00009556,-0.00011587,0.00009849,0.000
 12273,0.00037482,-0.00066187,0.00058066,-0.00306514,0.01559289,-0.0038
 0558,-0.00053277,0.00132948,-0.00025791,-0.00006685,0.00299603,-0.0023
 8329,0.00047464,0.00139998,-0.00003222,0.00257250,0.00000847,-0.012674
 26,-0.00558527,0.00000782,0.12355390,0.00047745,0.00304045,-0.00057748
 ,0.00047650,-0.00304097,-0.00057770,-0.01115092,-0.00338882,-0.0008325
 4,-0.01115493,0.00339118,-0.00083250,-0.33858369,0.00001996,-0.0226509
 2,0.00083262,0.00036927,0.00036773,0.00083258,-0.00036911,0.00036765,-
 0.00027896,-0.00056669,0.00002697,-0.00008347,0.00007743,-0.00004251,-
 0.00001610,0.00005871,0.00003313,-0.00027909,0.00056696,0.00002703,-0.
 00008346,-0.00007744,-0.00004261,-0.00001602,-0.00005876,0.00003320,-0
 .00018504,0.00024366,-0.00009739,-0.00018504,-0.00024457,-0.00009712,-
 0.00009400,-0.00000018,0.00001873,0.00001622,0.00000009,-0.00004067,-0
 .00002711,0.00000542,-0.00000059,-0.00002709,-0.00000538,-0.00000064,-
 0.00003898,-0.00007788,0.00012916,-0.00004437,0.00001545,-0.00001589,0
 .00000964,0.00002634,-0.00000206,0.00000745,0.00000106,0.00000170,-0.0
 0002289,-0.00003057,-0.00010332,0.00000582,0.00002824,0.00000595,-0.00
 001764,0.00000115,0.00001684,0.00001125,0.00000129,-0.00001414,-0.0000
 3893,0.00007810,0.00012925,0.00000964,-0.00002644,-0.00000205,-0.00004
 439,-0.00001548,-0.00001589,0.00000741,-0.00000105,0.00000175,-0.00002
 294,0.00003063,-0.00010341,-0.00001755,-0.00000118,0.00001686,0.000005
 75,-0.00002816,0.00000598,0.00001115,-0.00000130,-0.00001425,0.0000389
 1,-0.00000004,0.00002558,-0.00013732,0.00000085,0.00006126,0.35893551,
 0.00229332,-0.00460574,0.00058401,-0.00229420,-0.00460502,-0.00058402,
 0.02830010,0.00423908,0.00193784,-0.02829765,0.00424284,-0.00193728,0.
 00002032,-0.05919725,0.00000158,-0.00060070,0.00107960,-0.00015700,0.0
 0060066,0.00107965,0.00015674,0.00079945,0.00065157,-0.00013699,0.0000
 3227,-0.00005056,0.00005367,0.00000319,-0.00002288,-0.00003887,-0.0007
 9922,0.00065157,0.00013675,-0.00003229,-0.00005058,-0.00005353,-0.0000
 0315,-0.00002293,0.00003890,0.00033684,-0.00027667,0.00014341,-0.00033
 698,-0.00027666,-0.00014327,0.00000014,-0.00002189,-0.00000010,0.00000
 002,-0.00000361,-0.00000002,0.00000188,0.00000174,-0.00000027,-0.00000
 195,0.00000170,0.00000034,0.00010128,0.00006768,-0.00011757,0.00005376
 ,-0.00002654,0.00002119,-0.00001002,-0.00000124,-0.00000028,-0.0000086
 8,-0.00000218,0.00000240,0.00002480,0.00003156,0.00006867,0.00000016,-
 0.00000311,0.00000020,0.00001700,-0.00000624,-0.00002283,-0.00001321,-
 0.00000376,0.00000763,-0.00010125,0.00006769,0.00011755,0.00001000,-0.
 00000123,0.00000026,-0.00005375,-0.00002655,-0.00002117,0.00000869,-0.
 00000219,-0.00000237,-0.00002464,0.00003161,-0.00006864,-0.00001706,-0
 .00000623,0.00002288,-0.00000018,-0.00000320,-0.00000019,0.00001311,-0
 .00000380,-0.00000771,-0.00000011,-0.00000244,0.00000005,0.00000022,0.
 00000433,-0.00000001,-0.00002176,0.05831807,-0.00024201,0.00056389,0.0
 0625408,-0.00024167,-0.00056391,0.00625396,-0.00129213,-0.00011810,0.0
 0179117,-0.00129177,0.00011830,0.00179094,-0.02237953,0.00000159,-0.03
 301176,0.00034384,-0.00017296,-0.00418276,0.00034395,0.00017278,-0.004
 18261,0.00010529,-0.00001375,0.00079694,0.00001150,-0.00009322,0.00001
 286,-0.00005193,0.00002266,-0.00003540,0.00010558,0.00001397,0.0007968
 1,0.00001145,0.00009325,0.00001298,-0.00005204,-0.00002261,-0.00003544
 ,-0.00023492,0.00008632,-0.00005165,-0.00023553,-0.00008549,-0.0000516
 5,-0.00001982,0.00000008,-0.00003765,0.00003718,0.00000001,0.00002680,
 -0.00000187,-0.00000017,0.00001802,-0.00000183,0.00000012,0.00001805,-
 0.00001367,-0.00000799,0.00002765,-0.00000084,0.00000556,-0.00000789,-
 0.00000240,0.00001159,-0.00000157,0.00000479,0.00000255,0.00000206,-0.
 00000670,-0.00002296,-0.00001575,0.00000099,-0.00000344,-0.00000140,0.
 00000185,0.00000581,0.00000928,0.00001023,-0.00000654,-0.00000042,-0.0
 0001372,0.00000791,0.00002765,-0.00000239,-0.00001155,-0.00000157,-0.0
 0000085,-0.00000555,-0.00000790,0.00000481,-0.00000257,0.00000203,-0.0
 0000660,0.00002281,-0.00001569,0.00000169,-0.00000575,0.00000933,0.000
 00103,0.00000341,-0.00000140,0.00001037,0.00000657,-0.00000030,-0.0000
 1747,-0.00000001,0.00003150,0.00000693,-0.00000047,-0.00042966,0.02472
 394,-0.00000189,0.02574077,-0.14900658,-0.08930066,-0.00039655,-0.1489
 8860,0.08929087,-0.00039502,-0.03285924,-0.03178835,-0.00099913,-0.032
 84447,0.03180173,-0.00099816,0.00955406,-0.00001054,0.00196011,-0.0056
 3218,0.00104028,-0.00121445,-0.00563285,-0.00103926,-0.00121446,0.0171
 8328,0.01277426,-0.00331373,-0.00288105,0.00237582,-0.00070728,-0.0032
 5513,0.00255693,-0.00026202,0.01719414,-0.01275897,-0.00331587,-0.0028
 8113,-0.00237521,-0.00070774,-0.00325522,-0.00255674,-0.00026215,-0.00
 176909,0.00238947,0.00024024,-0.00177339,-0.00240482,0.00023696,0.0010
 5158,0.00000255,-0.00253169,-0.00288172,-0.00000178,0.00017045,0.00017
 199,-0.00052526,0.00024713,0.00017169,0.00052572,0.00024852,-0.0010220
 3,-0.00061250,-0.00038424,-0.00039053,0.00039609,-0.00007818,0.0001982
 6,-0.00098511,0.00016177,0.00012674,0.00020582,-0.00012474,-0.00026639
 ,0.00039017,0.00136169,-0.00038649,-0.00074363,-0.00042430,-0.00028299
 ,0.00018119,0.00051899,0.00018198,0.00021992,-0.00025440,-0.00102086,0
 .00061135,-0.00038410,0.00019790,0.00098596,0.00016118,-0.00039037,-0.
 00039657,-0.00007770,0.00012736,-0.00020543,-0.00012527,-0.00026569,-0
 .00038946,0.00136023,-0.00028182,-0.00018193,0.00051816,-0.00038598,0.
 00074304,-0.00042471,0.00017983,-0.00022071,-0.00025445,-0.00711086,0.
 00000099,0.00142638,-0.19237106,0.00001746,0.00649228,0.00087205,-0.00
 000040,0.00038425,0.55062488,-0.06045067,-0.26344253,0.00962235,0.0604
 3296,-0.26344850,-0.00961878,-0.07603388,0.03635294,-0.00257365,0.0760
 4415,0.03633728,0.00257418,-0.00000630,-0.07364775,0.00000033,0.001207
 87,0.00155083,-0.00114127,-0.00120665,0.00155059,0.00114102,-0.0068892
 8,-0.03803064,0.00108584,-0.00038558,-0.00103335,-0.00034150,0.0033464
 4,-0.00403681,0.00031239,0.00691435,-0.03800113,-0.00108313,0.00038611
 ,-0.00103374,0.00034167,-0.00334641,-0.00403652,-0.00031249,0.00566854
 ,-0.00409185,-0.00076979,-0.00568093,-0.00412426,0.00077269,-0.0000009
 6,0.00891274,0.00000338,-0.00000214,0.00076137,0.00000009,-0.00211291,
 -0.00024911,0.00038522,0.00211396,-0.00024823,-0.00038624,-0.00046680,
 -0.00023693,-0.00037577,-0.00013880,0.00013129,-0.00004800,-0.00018842
 ,-0.00025168,0.00012330,-0.00001417,-0.00005027,-0.00008390,0.00027922
 ,0.00004844,-0.00009284,-0.00021697,-0.00002321,0.00020324,-0.00009997
 ,0.00001413,0.00001593,0.00017117,0.00007273,0.00008935,0.00046705,-0.
 00023772,0.00037671,0.00018774,-0.00025141,-0.00012328,0.00013879,0.00
 013077,0.00004802,0.00001401,-0.00005033,0.00008401,-0.00028033,0.0000
 4730,0.00009199,0.00010000,0.00001394,-0.00001548,0.00021679,-0.000023
 41,-0.00020293,-0.00017059,0.00007103,-0.00008836,0.00000010,0.0006605
 9,-0.00000135,0.00001523,-0.05866266,-0.00000630,-0.00000045,-0.001246
 20,-0.00000025,-0.00001229,0.66980225,-0.00202430,0.00285767,-0.066513
 78,-0.00202264,-0.00285438,-0.06651255,-0.00263171,-0.00116190,0.01012
 345,-0.00263059,0.00116198,0.01012204,-0.00014054,0.00000026,-0.007350
 91,-0.00072557,0.00010907,0.00762201,-0.00072552,-0.00010935,0.0076223
 5,0.00308034,0.00624870,0.00403396,-0.00025263,-0.00005841,0.00036257,
 -0.00066948,-0.00021562,0.00018485,0.00307817,-0.00624570,0.00402788,-
 0.00025290,0.00005866,0.00036255,-0.00066932,0.00021579,0.00018485,-0.
 00008235,-0.00020933,0.00168934,-0.00008237,0.00021082,0.00168896,-0.0
 0146143,0.00000501,-0.00495321,0.00416366,-0.00000135,0.00369613,0.000
 18804,0.00000946,0.00244398,0.00018923,-0.00001095,0.00244280,-0.00036
 076,0.00007355,-0.00024459,-0.00001109,-0.00001299,-0.00010323,0.00004
 944,0.00005334,0.00009901,-0.00009623,0.00013898,0.00025210,0.00022077
 ,-0.00035353,-0.00049572,-0.00014968,-0.00016306,0.00013750,-0.0002360
 8,0.00006839,0.00021448,0.00030323,-0.00002408,-0.00029326,-0.00036152
 ,-0.00007403,-0.00024501,0.00004936,-0.00005292,0.00009904,-0.00001112
 ,0.00001306,-0.00010315,-0.00009641,-0.00013879,0.00025183,0.00022394,
 0.00035368,-0.00049832,-0.00023614,-0.00006848,0.00021427,-0.00014941,
 0.00016280,0.00013737,0.00030435,0.00002443,-0.00029238,-0.00098106,-0
 .00000218,0.00321633,0.00177736,-0.00000212,-0.03858979,0.00007095,-0.
 00000006,-0.00155041,0.00336199,-0.00000642,0.12651667\\0.00000165,0.0
 0002380,-0.00000468,0.00000250,-0.00002359,-0.00000510,-0.00000369,-0.
 00000665,0.00000866,-0.00000367,0.00000700,0.00000827,-0.00000261,0.00
 000008,-0.00000135,0.00000393,0.00000053,0.00000009,0.00000394,-0.0000
 0044,0.00000008,0.00000359,-0.00000986,-0.00000168,0.00000004,-0.00000
 096,-0.00000339,0.00000045,0.00000136,0.00000070,0.00000717,0.00001032
 ,-0.00000320,0.00000153,0.00000103,-0.00000252,0.00000113,-0.00000145,
 0.00000035,0.00000095,-0.00000945,0.00000628,-0.00000467,0.00001147,0.
 00000922,-0.00005850,0.00000414,-0.00000057,0.00003819,-0.00000656,-0.
 00002352,-0.00000630,-0.00000295,-0.00000099,0.00000123,-0.00000004,0.
 00000221,-0.00000509,0.00000521,-0.00000316,-0.00000092,0.00000306,0.0
 0000056,0.00000153,0.00000097,0.00000100,0.00000077,-0.00000187,0.0000
 0039,-0.00000358,-0.00000468,-0.00000467,0.00000003,0.00000381,0.00000
 075,-0.00000275,-0.00000039,0.00000271,0.00000122,-0.00000182,-0.00000
 044,-0.00000732,-0.00000569,-0.00000363,0.00000161,-0.00000204,0.00000
 082,-0.00000476,0.00000010,0.00000206,0.00000151,0.00000232,0.00000092
 ,-0.00000416,0.00000299,-0.00000564,-0.00000266,0.00000039,0.00000257,
 -0.00000047,-0.00000300,0.00000060,0.00000131,0.00000158,-0.00000020,0
 .00003785,0.00000020,0.00001959,-0.00001026,0.00000106,0.00000024,0.00
 000191,0.,0.00000083,0.00000738,0.00000001,-0.00000415\\\@
 The archive entry for this job was punched.


 LIVE PURE, SPEAK TRUE, RIGHT WRONG, FOLLOW THE KING...
 ELSE, WHEREFORE BORN......
           IDYLLS OF THE KING, TENNYSON
 Job cpu time:       3 days 18 hours 59 minutes 40.5 seconds.
 Elapsed time:       0 days 11 hours 58 minutes 23.3 seconds.
 File lengths (MBytes):  RWF=   1830 Int=      0 D2E=      0 Chk=     68 Scr=      1
 Normal termination of Gaussian 16 at Fri Mar  8 14:12:48 2024.
