 Entering Gaussian System, Link 0=/cm/shared/apps//g16/g16
 Input=YIrMeH.gjf
 Output=YIrMeH.log
 Initial command:
 /cm/shared/apps//g16/l1.exe "/local/mvanvleet/pbs.14045.josephine/Gau-1993616.inp" -scrdir="/local/mvanvleet/pbs.14045.josephine/"
 Entering Link 1 = /cm/shared/apps//g16/l1.exe PID=   1993622.
  
 Copyright (c) 1988-2019, Gaussian, Inc.  All Rights Reserved.
  
 This is part of the Gaussian(R) 16 program.  It is based on
 the Gaussian(R) 09 system (copyright 2009, Gaussian, Inc.),
 the Gaussian(R) 03 system (copyright 2003, Gaussian, Inc.),
 the Gaussian(R) 98 system (copyright 1998, Gaussian, Inc.),
 the Gaussian(R) 94 system (copyright 1995, Gaussian, Inc.),
 the Gaussian 92(TM) system (copyright 1992, Gaussian, Inc.),
 the Gaussian 90(TM) system (copyright 1990, Gaussian, Inc.),
 the Gaussian 88(TM) system (copyright 1988, Gaussian, Inc.),
 the Gaussian 86(TM) system (copyright 1986, Carnegie Mellon
 University), and the Gaussian 82(TM) system (copyright 1983,
 Carnegie Mellon University). Gaussian is a federally registered
 trademark of Gaussian, Inc.
  
 This software contains proprietary and confidential information,
 including trade secrets, belonging to Gaussian, Inc.
  
 This software is provided under written license and may be
 used, copied, transmitted, or stored only in accord with that
 written license.
  
 The following legend is applicable only to US Government
 contracts under FAR:
  
                    RESTRICTED RIGHTS LEGEND
  
 Use, reproduction and disclosure by the US Government is
 subject to restrictions as set forth in subparagraphs (a)
 and (c) of the Commercial Computer Software - Restricted
 Rights clause in FAR 52.227-19.
  
 Gaussian, Inc.
 340 Quinnipiac St., Bldg. 40, Wallingford CT 06492
  
  
 ---------------------------------------------------------------
 Warning -- This program may not be used in any manner that
 competes with the business of Gaussian, Inc. or will provide
 assistance to any competitor of Gaussian, Inc.  The licensee
 of this program is prohibited from giving any competitor of
 Gaussian, Inc. access to this program.  By using this program,
 the user acknowledges that Gaussian, Inc. is engaged in the
 business of creating and licensing software in the field of
 computational chemistry and represents and warrants to the
 licensee that it is not a competitor of Gaussian, Inc. and that
 it will not use this program in any manner prohibited above.
 ---------------------------------------------------------------
  

 Cite this work as:
 Gaussian 16, Revision C.01,
 M. J. Frisch, G. W. Trucks, H. B. Schlegel, G. E. Scuseria, 
 M. A. Robb, J. R. Cheeseman, G. Scalmani, V. Barone, 
 G. A. Petersson, H. Nakatsuji, X. Li, M. Caricato, A. V. Marenich, 
 J. Bloino, B. G. Janesko, R. Gomperts, B. Mennucci, H. P. Hratchian, 
 J. V. Ortiz, A. F. Izmaylov, J. L. Sonnenberg, D. Williams-Young, 
 F. Ding, F. Lipparini, F. Egidi, J. Goings, B. Peng, A. Petrone, 
 T. Henderson, D. Ranasinghe, V. G. Zakrzewski, J. Gao, N. Rega, 
 G. Zheng, W. Liang, M. Hada, M. Ehara, K. Toyota, R. Fukuda, 
 J. Hasegawa, M. Ishida, T. Nakajima, Y. Honda, O. Kitao, H. Nakai, 
 T. Vreven, K. Throssell, J. A. Montgomery, Jr., J. E. Peralta, 
 F. Ogliaro, M. J. Bearpark, J. J. Heyd, E. N. Brothers, K. N. Kudin, 
 V. N. Staroverov, T. A. Keith, R. Kobayashi, J. Normand, 
 K. Raghavachari, A. P. Rendell, J. C. Burant, S. S. Iyengar, 
 J. Tomasi, M. Cossi, J. M. Millam, M. Klene, C. Adamo, R. Cammi, 
 J. W. Ochterski, R. L. Martin, K. Morokuma, O. Farkas, 
 J. B. Foresman, and D. J. Fox, Gaussian, Inc., Wallingford CT, 2019.
 
 ******************************************
 Gaussian 16:  ES64L-G16RevC.01  3-Jul-2019
                 7-Mar-2024 
 ******************************************
 %nprocshared=8
 Will use up to    8 processors via shared memory.
 %chk=YIrMeH.chk
 %mem=1GB
 ----------------------------------------------------------
 # wb97xd def2TZVPP SCRF=(solvent=dichloromethane) opt freq
 ----------------------------------------------------------
 1/18=20,19=15,26=3,38=1/1,3;
 2/9=110,12=2,17=6,18=5,40=1/2;
 3/5=44,7=202,11=2,25=1,30=1,70=2201,71=1,72=9,74=-58/1,2,3;
 4//1;
 5/5=2,38=5,53=9/2;
 6/7=2,8=2,9=2,10=2,28=1/1;
 7//1,2,3,16;
 1/18=20,19=15,26=3/3(2);
 2/9=110/2;
 99//99;
 2/9=110/2;
 3/5=44,7=202,11=2,25=1,30=1,70=2205,71=1,72=9,74=-58/1,2,3;
 4/5=5,16=3,69=1/1;
 5/5=2,38=5,53=9/2;
 7//1,2,3,16;
 1/18=20,19=15,26=3/3(-5);
 2/9=110/2;
 6/7=2,8=2,9=2,10=2,19=2,28=1/1;
 99/9=1/99;
 ------
 YIrMeH
 ------
 Symbolic Z-matrix:
 Charge =  0 Multiplicity = 1
 C                    -1.85937  -1.26493  -0.08977 
 C                    -1.90855   1.18934  -0.0902 
 C                    -3.22932  -1.29129   0.18933 
 C                    -3.27845   1.16099   0.18892 
 C                    -3.92751  -0.07861   0.3523 
 H                    -3.77069  -2.24284   0.26442 
 H                    -3.85745   2.09015   0.26375 
 C                    -0.94586  -2.40065  -0.48666 
 H                    -0.89734  -2.45603  -1.59249 
 H                    -1.24474  -3.39936  -0.10428 
 C                    -1.04126   2.36062  -0.48728 
 H                    -0.99459   2.41748  -1.59311 
 H                    -1.3801    3.34667  -0.10535 
 N                     0.46914  -2.09962  -0.03246 
 N                     0.38444   2.11667  -0.03241 
 C                     2.51529   0.05046   1.06074 
 H                     2.19713   0.04443   2.12886 
 H                     3.18851  -0.82706   0.95156 
 H                     3.15317   0.95394   0.95111 
 C                     1.42501  -2.90459  -0.82099 
 H                     2.44085  -2.70912  -0.44393 
 H                     1.19242  -3.98724  -0.72659 
 H                     1.36087  -2.59796  -1.87611 
 C                     0.57249  -2.49539   1.39613 
 H                     0.36351  -3.58044   1.49808 
 H                     1.5829   -2.2757    1.76614 
 H                    -0.1692   -1.92037   1.97351 
 C                     1.30758   2.95961  -0.82027 
 H                     1.03153   4.03199  -0.72576 
 H                     2.33026   2.80515  -0.44268 
 H                     1.25642   2.65092  -1.87549 
 C                     0.47103   2.51606   1.39626 
 H                     1.4893    2.33716   1.76662 
 H                     0.21852   3.59181   1.49825 
 H                    -0.24716   1.91157   1.97326 
 H                     0.16909   0.00339  -1.66785 
 Ir                    0.72991   0.01464  -0.17886 
 H                    -4.99658  -0.09999   0.58121 
 C                    -1.2002   -0.02411  -0.16128 
 

 GradGradGradGradGradGradGradGradGradGradGradGradGradGradGradGradGradGrad
 Berny optimization.
 Initialization pass.
                           ----------------------------
                           !    Initial Parameters    !
                           ! (Angstroms and Degrees)  !
 --------------------------                            --------------------------
 ! Name  Definition              Value          Derivative Info.                !
 --------------------------------------------------------------------------------
 ! R1    R(1,3)                  1.3983         estimate D2E/DX2                !
 ! R2    R(1,8)                  1.5106         estimate D2E/DX2                !
 ! R3    R(1,39)                 1.4069         estimate D2E/DX2                !
 ! R4    R(2,4)                  1.3983         estimate D2E/DX2                !
 ! R5    R(2,11)                 1.5106         estimate D2E/DX2                !
 ! R6    R(2,39)                 1.4069         estimate D2E/DX2                !
 ! R7    R(3,5)                  1.4088         estimate D2E/DX2                !
 ! R8    R(3,6)                  1.0973         estimate D2E/DX2                !
 ! R9    R(4,5)                  1.4088         estimate D2E/DX2                !
 ! R10   R(4,7)                  1.0974         estimate D2E/DX2                !
 ! R11   R(5,38)                 1.0935         estimate D2E/DX2                !
 ! R12   R(8,9)                  1.1083         estimate D2E/DX2                !
 ! R13   R(8,10)                 1.1104         estimate D2E/DX2                !
 ! R14   R(8,14)                 1.5163         estimate D2E/DX2                !
 ! R15   R(11,12)                1.1083         estimate D2E/DX2                !
 ! R16   R(11,13)                1.1104         estimate D2E/DX2                !
 ! R17   R(11,15)                1.5163         estimate D2E/DX2                !
 ! R18   R(14,20)                1.4776         estimate D2E/DX2                !
 ! R19   R(14,24)                1.486          estimate D2E/DX2                !
 ! R20   R(14,37)                2.1353         estimate D2E/DX2                !
 ! R21   R(15,28)                1.4777         estimate D2E/DX2                !
 ! R22   R(15,32)                1.486          estimate D2E/DX2                !
 ! R23   R(15,37)                2.1353         estimate D2E/DX2                !
 ! R24   R(16,17)                1.1145         estimate D2E/DX2                !
 ! R25   R(16,18)                1.1114         estimate D2E/DX2                !
 ! R26   R(16,19)                1.1114         estimate D2E/DX2                !
 ! R27   R(16,37)                2.1738         estimate D2E/DX2                !
 ! R28   R(20,21)                1.1011         estimate D2E/DX2                !
 ! R29   R(20,22)                1.1114         estimate D2E/DX2                !
 ! R30   R(20,23)                1.1006         estimate D2E/DX2                !
 ! R31   R(24,25)                1.1097         estimate D2E/DX2                !
 ! R32   R(24,26)                1.0982         estimate D2E/DX2                !
 ! R33   R(24,27)                1.1019         estimate D2E/DX2                !
 ! R34   R(28,29)                1.1114         estimate D2E/DX2                !
 ! R35   R(28,30)                1.101          estimate D2E/DX2                !
 ! R36   R(28,31)                1.1006         estimate D2E/DX2                !
 ! R37   R(32,33)                1.0982         estimate D2E/DX2                !
 ! R38   R(32,34)                1.1097         estimate D2E/DX2                !
 ! R39   R(32,35)                1.1019         estimate D2E/DX2                !
 ! R40   R(36,37)                1.5911         estimate D2E/DX2                !
 ! R41   R(37,39)                1.9306         estimate D2E/DX2                !
 ! A1    A(3,1,8)              129.1038         estimate D2E/DX2                !
 ! A2    A(3,1,39)             119.0648         estimate D2E/DX2                !
 ! A3    A(8,1,39)             111.4942         estimate D2E/DX2                !
 ! A4    A(4,2,11)             129.0997         estimate D2E/DX2                !
 ! A5    A(4,2,39)             119.0685         estimate D2E/DX2                !
 ! A6    A(11,2,39)            111.4957         estimate D2E/DX2                !
 ! A7    A(1,3,5)              119.4987         estimate D2E/DX2                !
 ! A8    A(1,3,6)              120.8861         estimate D2E/DX2                !
 ! A9    A(5,3,6)              119.6052         estimate D2E/DX2                !
 ! A10   A(2,4,5)              119.4955         estimate D2E/DX2                !
 ! A11   A(2,4,7)              120.8873         estimate D2E/DX2                !
 ! A12   A(5,4,7)              119.6074         estimate D2E/DX2                !
 ! A13   A(3,5,4)              121.0438         estimate D2E/DX2                !
 ! A14   A(3,5,38)             119.4664         estimate D2E/DX2                !
 ! A15   A(4,5,38)             119.4667         estimate D2E/DX2                !
 ! A16   A(1,8,9)              109.0384         estimate D2E/DX2                !
 ! A17   A(1,8,10)             115.0221         estimate D2E/DX2                !
 ! A18   A(1,8,14)             109.6561         estimate D2E/DX2                !
 ! A19   A(9,8,10)             108.0861         estimate D2E/DX2                !
 ! A20   A(9,8,14)             105.5423         estimate D2E/DX2                !
 ! A21   A(10,8,14)            109.0622         estimate D2E/DX2                !
 ! A22   A(2,11,12)            109.0414         estimate D2E/DX2                !
 ! A23   A(2,11,13)            115.0208         estimate D2E/DX2                !
 ! A24   A(2,11,15)            109.6486         estimate D2E/DX2                !
 ! A25   A(12,11,13)           108.0888         estimate D2E/DX2                !
 ! A26   A(12,11,15)           105.5448         estimate D2E/DX2                !
 ! A27   A(13,11,15)           109.0634         estimate D2E/DX2                !
 ! A28   A(8,14,20)            109.6133         estimate D2E/DX2                !
 ! A29   A(8,14,24)            107.4578         estimate D2E/DX2                !
 ! A30   A(8,14,37)            106.858          estimate D2E/DX2                !
 ! A31   A(20,14,24)           108.8411         estimate D2E/DX2                !
 ! A32   A(20,14,37)           115.0753         estimate D2E/DX2                !
 ! A33   A(24,14,37)           108.7311         estimate D2E/DX2                !
 ! A34   A(11,15,28)           109.6144         estimate D2E/DX2                !
 ! A35   A(11,15,32)           107.4561         estimate D2E/DX2                !
 ! A36   A(11,15,37)           106.8544         estimate D2E/DX2                !
 ! A37   A(28,15,32)           108.8381         estimate D2E/DX2                !
 ! A38   A(28,15,37)           115.0832         estimate D2E/DX2                !
 ! A39   A(32,15,37)           108.7298         estimate D2E/DX2                !
 ! A40   A(17,16,18)           105.2362         estimate D2E/DX2                !
 ! A41   A(17,16,19)           105.235          estimate D2E/DX2                !
 ! A42   A(17,16,37)           108.1771         estimate D2E/DX2                !
 ! A43   A(18,16,19)           106.5294         estimate D2E/DX2                !
 ! A44   A(18,16,37)           115.3709         estimate D2E/DX2                !
 ! A45   A(19,16,37)           115.3747         estimate D2E/DX2                !
 ! A46   A(14,20,21)           108.5036         estimate D2E/DX2                !
 ! A47   A(14,20,22)           110.486          estimate D2E/DX2                !
 ! A48   A(14,20,23)           108.7902         estimate D2E/DX2                !
 ! A49   A(21,20,22)           109.6906         estimate D2E/DX2                !
 ! A50   A(21,20,23)           109.4265         estimate D2E/DX2                !
 ! A51   A(22,20,23)           109.9149         estimate D2E/DX2                !
 ! A52   A(14,24,25)           109.6119         estimate D2E/DX2                !
 ! A53   A(14,24,26)           109.5489         estimate D2E/DX2                !
 ! A54   A(14,24,27)           108.5392         estimate D2E/DX2                !
 ! A55   A(25,24,26)           109.7497         estimate D2E/DX2                !
 ! A56   A(25,24,27)           109.5949         estimate D2E/DX2                !
 ! A57   A(26,24,27)           109.7769         estimate D2E/DX2                !
 ! A58   A(15,28,29)           110.483          estimate D2E/DX2                !
 ! A59   A(15,28,30)           108.5054         estimate D2E/DX2                !
 ! A60   A(15,28,31)           108.793          estimate D2E/DX2                !
 ! A61   A(29,28,30)           109.6887         estimate D2E/DX2                !
 ! A62   A(29,28,31)           109.9142         estimate D2E/DX2                !
 ! A63   A(30,28,31)           109.4276         estimate D2E/DX2                !
 ! A64   A(15,32,33)           109.5412         estimate D2E/DX2                !
 ! A65   A(15,32,34)           109.6127         estimate D2E/DX2                !
 ! A66   A(15,32,35)           108.5438         estimate D2E/DX2                !
 ! A67   A(33,32,34)           109.7499         estimate D2E/DX2                !
 ! A68   A(33,32,35)           109.7783         estimate D2E/DX2                !
 ! A69   A(34,32,35)           109.5957         estimate D2E/DX2                !
 ! A70   A(14,37,15)           161.8556         estimate D2E/DX2                !
 ! A71   A(14,37,16)            94.446          estimate D2E/DX2                !
 ! A72   A(14,37,36)            90.8088         estimate D2E/DX2                !
 ! A73   A(14,37,39)            81.8022         estimate D2E/DX2                !
 ! A74   A(15,37,16)            94.4478         estimate D2E/DX2                !
 ! A75   A(15,37,36)            90.8089         estimate D2E/DX2                !
 ! A76   A(15,37,39)            81.8006         estimate D2E/DX2                !
 ! A77   A(16,37,36)           145.4095         estimate D2E/DX2                !
 ! A78   A(16,37,39)           144.7112         estimate D2E/DX2                !
 ! A79   A(36,37,39)            69.8793         estimate D2E/DX2                !
 ! A80   A(1,39,2)             121.4832         estimate D2E/DX2                !
 ! A81   A(1,39,37)            119.1168         estimate D2E/DX2                !
 ! A82   A(2,39,37)            119.1121         estimate D2E/DX2                !
 ! D1    D(8,1,3,5)           -170.801          estimate D2E/DX2                !
 ! D2    D(8,1,3,6)              8.0489         estimate D2E/DX2                !
 ! D3    D(39,1,3,5)             1.9185         estimate D2E/DX2                !
 ! D4    D(39,1,3,6)          -179.2316         estimate D2E/DX2                !
 ! D5    D(3,1,8,9)             92.7627         estimate D2E/DX2                !
 ! D6    D(3,1,8,10)           -28.8046         estimate D2E/DX2                !
 ! D7    D(3,1,8,14)          -152.134          estimate D2E/DX2                !
 ! D8    D(39,1,8,9)           -80.4002         estimate D2E/DX2                !
 ! D9    D(39,1,8,10)          158.0326         estimate D2E/DX2                !
 ! D10   D(39,1,8,14)           34.7032         estimate D2E/DX2                !
 ! D11   D(3,1,39,2)            -6.3661         estimate D2E/DX2                !
 ! D12   D(3,1,39,37)          167.4158         estimate D2E/DX2                !
 ! D13   D(8,1,39,2)           167.5669         estimate D2E/DX2                !
 ! D14   D(8,1,39,37)          -18.6512         estimate D2E/DX2                !
 ! D15   D(11,2,4,5)           170.8111         estimate D2E/DX2                !
 ! D16   D(11,2,4,7)            -8.0417         estimate D2E/DX2                !
 ! D17   D(39,2,4,5)            -1.9206         estimate D2E/DX2                !
 ! D18   D(39,2,4,7)           179.2267         estimate D2E/DX2                !
 ! D19   D(4,2,11,12)          -92.7898         estimate D2E/DX2                !
 ! D20   D(4,2,11,13)           28.7823         estimate D2E/DX2                !
 ! D21   D(4,2,11,15)          152.1063         estimate D2E/DX2                !
 ! D22   D(39,2,11,12)          80.3846         estimate D2E/DX2                !
 ! D23   D(39,2,11,13)        -158.0433         estimate D2E/DX2                !
 ! D24   D(39,2,11,15)         -34.7193         estimate D2E/DX2                !
 ! D25   D(4,2,39,1)             6.3674         estimate D2E/DX2                !
 ! D26   D(4,2,39,37)         -167.4149         estimate D2E/DX2                !
 ! D27   D(11,2,39,1)         -167.5753         estimate D2E/DX2                !
 ! D28   D(11,2,39,37)          18.6424         estimate D2E/DX2                !
 ! D29   D(1,3,5,4)              2.414          estimate D2E/DX2                !
 ! D30   D(1,3,5,38)          -179.3443         estimate D2E/DX2                !
 ! D31   D(6,3,5,4)           -176.4509         estimate D2E/DX2                !
 ! D32   D(6,3,5,38)             1.7909         estimate D2E/DX2                !
 ! D33   D(2,4,5,3)             -2.4129         estimate D2E/DX2                !
 ! D34   D(2,4,5,38)           179.3453         estimate D2E/DX2                !
 ! D35   D(7,4,5,3)            176.4547         estimate D2E/DX2                !
 ! D36   D(7,4,5,38)            -1.7871         estimate D2E/DX2                !
 ! D37   D(1,8,14,20)         -158.9818         estimate D2E/DX2                !
 ! D38   D(1,8,14,24)           82.8894         estimate D2E/DX2                !
 ! D39   D(1,8,14,37)          -33.665          estimate D2E/DX2                !
 ! D40   D(9,8,14,20)          -41.6672         estimate D2E/DX2                !
 ! D41   D(9,8,14,24)         -159.7961         estimate D2E/DX2                !
 ! D42   D(9,8,14,37)           83.6495         estimate D2E/DX2                !
 ! D43   D(10,8,14,20)          74.247          estimate D2E/DX2                !
 ! D44   D(10,8,14,24)         -43.8819         estimate D2E/DX2                !
 ! D45   D(10,8,14,37)        -160.4362         estimate D2E/DX2                !
 ! D46   D(2,11,15,28)         159.0196         estimate D2E/DX2                !
 ! D47   D(2,11,15,32)         -82.8554         estimate D2E/DX2                !
 ! D48   D(2,11,15,37)          33.6947         estimate D2E/DX2                !
 ! D49   D(12,11,15,28)         41.704          estimate D2E/DX2                !
 ! D50   D(12,11,15,32)        159.8289         estimate D2E/DX2                !
 ! D51   D(12,11,15,37)        -83.6209         estimate D2E/DX2                !
 ! D52   D(13,11,15,28)        -74.2153         estimate D2E/DX2                !
 ! D53   D(13,11,15,32)         43.9096         estimate D2E/DX2                !
 ! D54   D(13,11,15,37)        160.4598         estimate D2E/DX2                !
 ! D55   D(8,14,20,21)        -177.2758         estimate D2E/DX2                !
 ! D56   D(8,14,20,22)         -56.989          estimate D2E/DX2                !
 ! D57   D(8,14,20,23)          63.7551         estimate D2E/DX2                !
 ! D58   D(24,14,20,21)        -60.0107         estimate D2E/DX2                !
 ! D59   D(24,14,20,22)         60.2761         estimate D2E/DX2                !
 ! D60   D(24,14,20,23)       -178.9798         estimate D2E/DX2                !
 ! D61   D(37,14,20,21)         62.2843         estimate D2E/DX2                !
 ! D62   D(37,14,20,22)       -177.4289         estimate D2E/DX2                !
 ! D63   D(37,14,20,23)        -56.6849         estimate D2E/DX2                !
 ! D64   D(8,14,24,25)          60.4597         estimate D2E/DX2                !
 ! D65   D(8,14,24,26)        -179.0637         estimate D2E/DX2                !
 ! D66   D(8,14,24,27)         -59.2101         estimate D2E/DX2                !
 ! D67   D(20,14,24,25)        -58.1678         estimate D2E/DX2                !
 ! D68   D(20,14,24,26)         62.3088         estimate D2E/DX2                !
 ! D69   D(20,14,24,27)       -177.8375         estimate D2E/DX2                !
 ! D70   D(37,14,24,25)        175.7779         estimate D2E/DX2                !
 ! D71   D(37,14,24,26)        -63.7456         estimate D2E/DX2                !
 ! D72   D(37,14,24,27)         56.1081         estimate D2E/DX2                !
 ! D73   D(8,14,37,15)          45.0433         estimate D2E/DX2                !
 ! D74   D(8,14,37,16)         164.1898         estimate D2E/DX2                !
 ! D75   D(8,14,37,36)         -50.0291         estimate D2E/DX2                !
 ! D76   D(8,14,37,39)          19.5069         estimate D2E/DX2                !
 ! D77   D(20,14,37,15)        166.983          estimate D2E/DX2                !
 ! D78   D(20,14,37,16)        -73.8705         estimate D2E/DX2                !
 ! D79   D(20,14,37,36)         71.9106         estimate D2E/DX2                !
 ! D80   D(20,14,37,39)        141.4466         estimate D2E/DX2                !
 ! D81   D(24,14,37,15)        -70.6629         estimate D2E/DX2                !
 ! D82   D(24,14,37,16)         48.4836         estimate D2E/DX2                !
 ! D83   D(24,14,37,36)       -165.7353         estimate D2E/DX2                !
 ! D84   D(24,14,37,39)        -96.1993         estimate D2E/DX2                !
 ! D85   D(11,15,28,29)         56.988          estimate D2E/DX2                !
 ! D86   D(11,15,28,30)        177.2717         estimate D2E/DX2                !
 ! D87   D(11,15,28,31)        -63.7552         estimate D2E/DX2                !
 ! D88   D(32,15,28,29)        -60.274          estimate D2E/DX2                !
 ! D89   D(32,15,28,30)         60.0098         estimate D2E/DX2                !
 ! D90   D(32,15,28,31)        178.9829         estimate D2E/DX2                !
 ! D91   D(37,15,28,29)        177.4295         estimate D2E/DX2                !
 ! D92   D(37,15,28,30)        -62.2867         estimate D2E/DX2                !
 ! D93   D(37,15,28,31)         56.6864         estimate D2E/DX2                !
 ! D94   D(11,15,32,33)        179.0682         estimate D2E/DX2                !
 ! D95   D(11,15,32,34)        -60.4594         estimate D2E/DX2                !
 ! D96   D(11,15,32,35)         59.2146         estimate D2E/DX2                !
 ! D97   D(28,15,32,33)        -62.3056         estimate D2E/DX2                !
 ! D98   D(28,15,32,34)         58.1669         estimate D2E/DX2                !
 ! D99   D(28,15,32,35)        177.8408         estimate D2E/DX2                !
 ! D100  D(37,15,32,33)         63.7558         estimate D2E/DX2                !
 ! D101  D(37,15,32,34)       -175.7717         estimate D2E/DX2                !
 ! D102  D(37,15,32,35)        -56.0978         estimate D2E/DX2                !
 ! D103  D(11,15,37,14)        -45.0715         estimate D2E/DX2                !
 ! D104  D(11,15,37,16)       -164.2177         estimate D2E/DX2                !
 ! D105  D(11,15,37,36)         50.0009         estimate D2E/DX2                !
 ! D106  D(11,15,37,39)        -19.535          estimate D2E/DX2                !
 ! D107  D(28,15,37,14)       -167.0151         estimate D2E/DX2                !
 ! D108  D(28,15,37,16)         73.8387         estimate D2E/DX2                !
 ! D109  D(28,15,37,36)        -71.9427         estimate D2E/DX2                !
 ! D110  D(28,15,37,39)       -141.4786         estimate D2E/DX2                !
 ! D111  D(32,15,37,14)         70.6302         estimate D2E/DX2                !
 ! D112  D(32,15,37,16)        -48.516          estimate D2E/DX2                !
 ! D113  D(32,15,37,36)        165.7026         estimate D2E/DX2                !
 ! D114  D(32,15,37,39)         96.1667         estimate D2E/DX2                !
 ! D115  D(17,16,37,14)        -82.1051         estimate D2E/DX2                !
 ! D116  D(17,16,37,15)         82.0638         estimate D2E/DX2                !
 ! D117  D(17,16,37,36)        179.9808         estimate D2E/DX2                !
 ! D118  D(17,16,37,39)         -0.0205         estimate D2E/DX2                !
 ! D119  D(18,16,37,14)         35.4002         estimate D2E/DX2                !
 ! D120  D(18,16,37,15)       -160.4309         estimate D2E/DX2                !
 ! D121  D(18,16,37,36)        -62.514          estimate D2E/DX2                !
 ! D122  D(18,16,37,39)        117.4848         estimate D2E/DX2                !
 ! D123  D(19,16,37,14)        160.3888         estimate D2E/DX2                !
 ! D124  D(19,16,37,15)        -35.4423         estimate D2E/DX2                !
 ! D125  D(19,16,37,36)         62.4746         estimate D2E/DX2                !
 ! D126  D(19,16,37,39)       -117.5266         estimate D2E/DX2                !
 ! D127  D(14,37,39,1)          -0.8523         estimate D2E/DX2                !
 ! D128  D(14,37,39,2)         173.0788         estimate D2E/DX2                !
 ! D129  D(15,37,39,1)        -173.0572         estimate D2E/DX2                !
 ! D130  D(15,37,39,2)           0.8739         estimate D2E/DX2                !
 ! D131  D(16,37,39,1)         -86.9543         estimate D2E/DX2                !
 ! D132  D(16,37,39,2)          86.9767         estimate D2E/DX2                !
 ! D133  D(36,37,39,1)          93.0449         estimate D2E/DX2                !
 ! D134  D(36,37,39,2)         -93.024          estimate D2E/DX2                !
 --------------------------------------------------------------------------------
 Trust Radius=3.00D-01 FncErr=1.00D-07 GrdErr=1.00D-06 EigMax=2.50D+02 EigMin=1.00D-04
 Number of steps in this run=    234 maximum allowed number of steps=    234.
 GradGradGradGradGradGradGradGradGradGradGradGradGradGradGradGradGradGrad

                          Input orientation:                          
 ---------------------------------------------------------------------
 Center     Atomic      Atomic             Coordinates (Angstroms)
 Number     Number       Type             X           Y           Z
 ---------------------------------------------------------------------
      1          6           0       -1.859370   -1.264930   -0.089770
      2          6           0       -1.908550    1.189340   -0.090200
      3          6           0       -3.229320   -1.291290    0.189330
      4          6           0       -3.278450    1.160990    0.188920
      5          6           0       -3.927510   -0.078610    0.352300
      6          1           0       -3.770690   -2.242840    0.264420
      7          1           0       -3.857450    2.090150    0.263750
      8          6           0       -0.945860   -2.400650   -0.486660
      9          1           0       -0.897340   -2.456030   -1.592490
     10          1           0       -1.244740   -3.399360   -0.104280
     11          6           0       -1.041260    2.360620   -0.487280
     12          1           0       -0.994590    2.417480   -1.593110
     13          1           0       -1.380100    3.346670   -0.105350
     14          7           0        0.469140   -2.099620   -0.032460
     15          7           0        0.384440    2.116670   -0.032410
     16          6           0        2.515290    0.050460    1.060740
     17          1           0        2.197130    0.044430    2.128860
     18          1           0        3.188510   -0.827060    0.951560
     19          1           0        3.153170    0.953940    0.951110
     20          6           0        1.425010   -2.904590   -0.820990
     21          1           0        2.440850   -2.709120   -0.443930
     22          1           0        1.192420   -3.987240   -0.726590
     23          1           0        1.360870   -2.597960   -1.876110
     24          6           0        0.572490   -2.495390    1.396130
     25          1           0        0.363510   -3.580440    1.498080
     26          1           0        1.582900   -2.275700    1.766140
     27          1           0       -0.169200   -1.920370    1.973510
     28          6           0        1.307580    2.959610   -0.820270
     29          1           0        1.031530    4.031990   -0.725760
     30          1           0        2.330260    2.805150   -0.442680
     31          1           0        1.256420    2.650920   -1.875490
     32          6           0        0.471030    2.516060    1.396260
     33          1           0        1.489300    2.337160    1.766620
     34          1           0        0.218520    3.591810    1.498250
     35          1           0       -0.247160    1.911570    1.973260
     36          1           0        0.169090    0.003390   -1.667850
     37         77           0        0.729910    0.014640   -0.178860
     38          1           0       -4.996580   -0.099990    0.581210
     39          6           0       -1.200200   -0.024110   -0.161280
 ---------------------------------------------------------------------
                    Distance matrix (angstroms):
                    1          2          3          4          5
     1  C    0.000000
     2  C    2.454763   0.000000
     3  C    1.398340   2.824198   0.000000
     4  C    2.824278   1.398334   2.452772   0.000000
     5  C    2.424868   2.424810   1.408766   1.408751   0.000000
     6  H    2.175983   3.920865   1.097346   3.440067   2.171683
     7  H    3.920952   2.175994   3.440090   1.097351   2.171697
     8  C    1.510590   3.737911   2.627134   4.310761   3.871170
     9  H    2.145318   4.070398   3.157472   4.682514   4.314657
    10  H    2.221210   4.636487   2.910107   5.001873   4.293379
    11  C    3.737905   1.510550   4.310668   2.627047   3.871069
    12  H    4.070383   2.145318   4.682530   3.157596   4.314754
    13  H    4.636464   2.221162   5.001712   2.909901   4.293167
    14  N    2.474258   4.058818   3.792255   4.972426   4.854179
    15  N    4.058718   2.474082   4.972185   3.791975   4.853882
    16  C    4.710793   4.710846   5.963237   5.963285   6.482917
    17  H    4.805407   4.805378   5.915428   5.915408   6.378285
    18  H    5.172735   5.579530   6.479587   6.808490   7.180322
    19  H    5.579639   5.173079   6.808638   6.479934   7.180582
    20  C    3.743036   5.329816   5.028546   6.298523   6.165407
    21  H    4.550056   5.851529   5.878953   6.934598   6.936107
    22  H    4.138832   6.067783   5.259167   6.879761   6.531085
    23  H    3.916366   5.312459   5.200315   6.318017   6.267368
    24  C    3.104170   4.684226   4.166531   5.445752   5.213483
    25  H    3.581068   5.516855   4.456620   6.120370   5.655836
    26  H    4.039218   5.257635   5.158765   6.158830   6.098423
    27  H    2.746525   4.117588   3.597690   4.727259   4.488351
    28  C    5.330098   3.743040   6.298643   5.028436   6.165377
    29  H    6.067878   4.138679   6.879647   5.258822   6.530798
    30  H    5.851760   4.550010   6.934637   5.878759   6.935975
    31  H    5.313269   3.916697   6.318731   5.200647   6.267895
    32  C    4.683475   3.103571   5.444739   4.165631   5.212420
    33  H    5.256884   4.038645   6.157830   5.157902   6.097383
    34  H    5.516100   3.580428   6.119276   4.455562   5.654622
    35  H    4.116487   2.745851   4.725886   3.596659   4.487015
    36  H    2.865942   2.865667   4.083443   4.083279   4.568354
    37  Ir   2.889569   2.889507   4.185274   4.185252   4.688538
    38  H    3.413120   3.413077   2.167020   2.167010   1.093512
    39  C    1.406859   1.406866   2.417850   2.417897   2.775780
                    6          7          8          9         10
     6  H    0.000000
     7  H    4.333859   0.000000
     8  C    2.927232   5.404420   0.000000
     9  H    3.427784   5.733727   1.108278   0.000000
    10  H    2.802481   6.090683   1.110390   1.795920   0.000000
    11  C    5.404321   2.927136   4.762226   4.943917   5.776285
    12  H    5.733736   3.427979   4.943782   4.874480   6.009560
    13  H    6.090507   2.802203   5.776301   6.009656   6.747388
    14  N    4.252624   6.030033   1.516292   2.104279   2.152177
    15  N    6.029804   4.252299   4.730985   4.998639   5.752041
    16  C    6.738464   6.738497   4.514637   4.996815   5.234153
    17  H    6.657523   6.657443   4.764215   5.447613   5.356592
    18  H    7.134918   7.656941   4.651632   5.081329   5.233090
    19  H    7.657074   7.135281   5.488397   5.874047   6.277474
    20  C    5.348956   7.350406   2.446785   2.487916   2.808209
    21  H    6.269163   7.949993   3.400998   3.539316   3.765019
    22  H    5.353269   7.963456   2.673402   2.731572   2.583142
    23  H    5.571435   7.334047   2.700094   2.280372   3.251281
    24  C    4.495304   6.475634   2.420591   3.330735   2.524028
    25  H    4.516935   7.176048   2.654345   3.522167   2.277458
    26  H    5.560321   7.135491   3.389004   4.179055   3.571643
    27  H    3.999463   5.710581   2.624177   3.678787   2.767925
    28  C    7.350569   5.348700   5.824232   5.898063   6.889374
    29  H    7.963370   5.352756   6.733951   6.823940   7.796961
    30  H    7.950081   6.268814   6.151037   6.278493   7.168757
    31  H    7.334844   5.571578   5.683067   5.549749   6.782247
    32  C    6.474595   4.494410   5.452247   5.960431   6.339375
    33  H    7.134459   5.559440   5.783954   6.320945   6.624417
    34  H    7.174906   4.515806   6.419130   6.882891   7.320225
    35  H    5.709161   3.998563   5.013445   5.675671   5.789414
    36  H    4.929613   4.929368   2.901333   2.681734   4.002796
    37  Ir   5.054514   5.054455   2.955769   3.278796   3.944642
    38  H    2.488969   2.488998   4.779301   5.203813   5.043019
    39  C    3.422193   3.422240   2.412157   2.838014   3.376025
                   11         12         13         14         15
    11  C    0.000000
    12  H    1.108274   0.000000
    13  H    1.110395   1.795952   0.000000
    14  N    4.730952   4.998232   5.752137   0.000000
    15  N    1.516258   2.104280   2.152167   4.217141   0.000000
    16  C    4.514671   4.996495   5.234389   3.163014   3.163024
    17  H    4.764042   5.447156   5.356590   3.500601   3.500159
    18  H    5.488399   5.873731   6.277681   3.159538   4.182888
    19  H    4.651984   5.081232   5.233718   4.182781   3.159924
    20  C    5.823769   5.897038   6.889052   1.477648   5.188227
    21  H    6.150547   6.277331   7.168465   2.104385   5.261789
    22  H    6.733641   6.823072   7.796796   2.137302   6.196163
    23  H    5.682129   5.548236   6.781381   2.107741   5.155616
    24  C    5.452729   5.960502   6.340088   1.485996   4.831893
    25  H    6.419597   6.882945   7.320930   2.132261   5.899144
    26  H    5.784426   6.320914   6.625171   2.122835   4.895304
    27  H    5.014265   5.676177   5.790479   2.112705   4.541797
    28  C    2.446778   2.488207   2.807944   5.188394   1.477653
    29  H    2.673352   2.732051   2.582737   6.196256   2.137267
    30  H    3.400992   3.539549   3.764812   5.262016   2.104410
    31  H    2.700136   2.280631   3.250954   5.155987   2.107775
    32  C    2.420518   3.330780   2.524169   4.831744   1.485970
    33  H    3.388857   4.178989   3.571672   4.895144   2.122696
    34  H    2.654280   3.522385   2.277545   5.899005   2.132249
    35  H    2.624214   3.678803   2.768336   4.541546   2.112746
    36  H    2.900901   2.680964   4.002364   2.680892   2.680857
    37  Ir   2.955637   3.278360   3.944613   2.135305   2.135258
    38  H    4.779208   5.203965   5.042793   5.852282   5.851964
    39  C    2.412152   2.837917   3.376041   2.666652   2.666577
                   16         17         18         19         20
    16  C    0.000000
    17  H    1.114514   0.000000
    18  H    1.111390   1.768718   0.000000
    19  H    1.111389   1.768705   1.781351   0.000000
    20  C    3.669051   4.241993   3.250846   4.584226   0.000000
    21  H    3.144019   3.776332   2.459377   3.983911   1.101051
    22  H    4.609507   5.041567   4.097231   5.574449   1.111369
    23  H    4.119697   4.870456   3.804218   4.880728   1.100643
    24  C    3.219986   3.102746   3.134410   4.330800   2.410364
    25  H    4.243213   4.110928   3.982513   5.351820   2.638492
    26  H    2.603452   2.427313   2.310862   3.682471   2.667147
    27  H    3.453087   3.079625   3.676129   4.510555   3.364435
    28  C    3.668776   4.241101   4.584337   3.250646   5.865376
    29  H    4.609307   5.040646   5.574615   4.097272   6.948384
    30  H    3.143696   3.775198   3.984150   2.459026   5.793421
    31  H    4.119295   4.869655   4.880730   3.803560   5.657215
    32  C    3.220366   3.102431   4.331155   3.135642   5.933778
    33  H    2.603828   2.426696   3.682924   2.312319   5.846007
    34  H    4.243551   4.110532   5.352207   3.983703   7.002693
    35  H    3.453629   3.079769   4.510853   3.677511   5.813724
    36  H    3.598899   4.304607   4.082628   4.082552   3.278850
    37  Ir   2.173815   2.734811   2.833906   2.833956   3.068778
    38  H    7.528664   7.359724   8.225660   8.225936   7.146241
    39  C    3.912002   4.097718   4.598252   4.598459   3.952734
                   21         22         23         24         25
    21  H    0.000000
    22  H    1.808885   0.000000
    23  H    1.797179   1.811041   0.000000
    24  C    2.631021   2.667559   3.367435   0.000000
    25  H    2.974213   2.408679   3.653102   1.109685   0.000000
    26  H    2.410050   3.048860   3.663214   1.098226   1.805856
    27  H    3.643968   3.662854   4.197597   1.101871   1.807110
    28  C    5.793137   6.948436   5.657227   5.933786   7.002733
    29  H    6.892617   8.020844   6.737062   6.878941   7.958694
    30  H    5.515379   6.892884   5.673450   5.879345   6.957759
    31  H    5.672942   6.737153   5.249919   6.136429   7.141996
    32  C    5.879540   6.878939   6.136238   5.012477   6.098298
    33  H    5.590789   6.804577   6.135258   4.932681   6.029719
    34  H    6.957912   7.958668   7.141745   6.098338   7.173715
    35  H    5.866769   6.645114   6.143230   4.519536   5.546250
    36  H    3.743873   4.225908   2.868926   3.974243   4.785891
    37  Ir   3.227452   4.065583   3.178749   2.967427   3.983839
    38  H    7.948197   7.424606   7.259163   6.116909   6.456373
    39  C    4.532815   4.663754   4.015523   3.416896   4.224470
                   26         27         28         29         30
    26  H    0.000000
    27  H    1.799754   0.000000
    28  C    5.845835   5.813802   0.000000
    29  H    6.804449   6.645179   1.111366   0.000000
    30  H    5.590391   5.866499   1.101048   1.808859   0.000000
    31  H    6.135116   6.143605   1.100634   1.811024   1.797182
    32  C    4.932953   4.519405   2.410302   2.667428   2.630971
    33  H    4.613810   4.573837   2.666921   3.048600   2.409821
    34  H    6.030006   5.546199   2.638421   2.408519   2.974137
    35  H    4.574412   3.832733   3.364434   3.662777   3.643946
    36  H    4.357224   4.132166   3.279297   4.226222   3.744537
    37  Ir   3.123504   3.030736   3.068869   4.065609   3.227641
    38  H    7.030457   5.343770   7.146169   7.424253   7.948004
    39  C    4.065741   3.035802   3.952950   4.663819   4.532995
                   31         32         33         34         35
    31  H    0.000000
    32  C    3.367399   0.000000
    33  H    3.663010   1.098201   0.000000
    34  H    3.653031   1.109685   1.805838   0.000000
    35  H    4.197650   1.101878   1.799756   1.807124   0.000000
    36  H    2.869637   3.974097   4.357180   4.785749   4.131839
    37  Ir   3.178952   2.967343   3.123406   3.983762   3.030615
    38  H    7.259676   6.115781   7.029334   6.455046   5.342393
    39  C    4.016128   3.416344   4.065194   4.223942   3.035029
                   36         37         38         39
    36  H    0.000000
    37  Ir   1.591143   0.000000
    38  H    5.634989   5.777849   0.000000
    39  C    2.036041   1.930579   3.869050   0.000000
 Stoichiometry    C13H23IrN2
 Framework group  C1[X(C13H23IrN2)]
 Deg. of freedom   111
 Full point group                 C1      NOp   1
 Largest Abelian subgroup         C1      NOp   1
 Largest concise Abelian subgroup C1      NOp   1
                         Standard orientation:                         
 ---------------------------------------------------------------------
 Center     Atomic      Atomic             Coordinates (Angstroms)
 Number     Number       Type             X           Y           Z
 ---------------------------------------------------------------------
      1          6           0       -1.859516   -1.264717   -0.089771
      2          6           0       -1.908413    1.189559   -0.090201
      3          6           0       -3.229469   -1.290919    0.189329
      4          6           0       -3.278316    1.161367    0.188919
      5          6           0       -3.927519   -0.078158    0.352299
      6          1           0       -3.770949   -2.242406    0.264419
      7          1           0       -3.857209    2.090594    0.263749
      8          6           0       -0.946137   -2.400542   -0.486661
      9          1           0       -0.897624   -2.455928   -1.592491
     10          1           0       -1.245132   -3.399218   -0.104281
     11          6           0       -1.040988    2.360739   -0.487281
     12          1           0       -0.994311    2.417593   -1.593111
     13          1           0       -1.379714    3.346828   -0.105351
     14          7           0        0.468898   -2.099675   -0.032461
     15          7           0        0.384684    2.116624   -0.032411
     16          6           0        2.515296    0.050169    1.060739
     17          1           0        2.197135    0.044175    2.128859
     18          1           0        3.188414   -0.827429    0.951559
     19          1           0        3.153280    0.953575    0.951109
     20          6           0        1.424675   -2.904756   -0.820991
     21          1           0        2.440537   -2.709403   -0.443931
     22          1           0        1.191960   -3.987379   -0.726591
     23          1           0        1.360570   -2.598118   -1.876111
     24          6           0        0.572202   -2.495457    1.396129
     25          1           0        0.363097   -3.580483    1.498079
     26          1           0        1.582637   -2.275884    1.766139
     27          1           0       -0.169422   -1.920352    1.973509
     28          6           0        1.307921    2.959458   -0.820271
     29          1           0        1.031995    4.031870   -0.725761
     30          1           0        2.330583    2.804880   -0.442681
     31          1           0        1.256726    2.650774   -1.875491
     32          6           0        0.471320    2.516004    1.396259
     33          1           0        1.489569    2.336987    1.766619
     34          1           0        0.218934    3.591784    1.498249
     35          1           0       -0.246940    1.911597    1.973259
     36          1           0        0.169090    0.003369   -1.667851
     37         77           0        0.729911    0.014555   -0.178861
     38          1           0       -4.996592   -0.099415    0.581209
     39          6           0       -1.200203   -0.023973   -0.161281
 ---------------------------------------------------------------------
 Rotational constants (GHZ):           0.5186283           0.4860828           0.2890174
 Standard basis: def2TZVPP (5D, 7F)
 There are   956 symmetry adapted cartesian basis functions of A   symmetry.
 There are   843 symmetry adapted basis functions of A   symmetry.
   843 basis functions,  1256 primitive gaussians,   956 cartesian basis functions
    66 alpha electrons       66 beta electrons
       nuclear repulsion energy      1394.5125867171 Hartrees.
 NAtoms=   39 NActive=   39 NUniq=   39 SFac= 1.00D+00 NAtFMM=   60 NAOKFM=F Big=F
 Integral buffers will be    131072 words long.
 Raffenetti 2 integral format.
 Two-electron integral symmetry is turned on.
 Nuclear repulsion after empirical dispersion term =     1394.4678028872 Hartrees.
 ------------------------------------------------------------------------------
 Polarizable Continuum Model (PCM)
 =================================
 Model                : PCM.
 Atomic radii         : UFF (Universal Force Field).
 Polarization charges : Total charges.
 Charge compensation  : None.
 Solution method      : On-the-fly selection.
 Cavity type          : Scaled VdW (van der Waals Surface) (Alpha=1.100).
 Cavity algorithm     : GePol (No added spheres)
                        Default sphere list used, NSphG=   39.
                        Lebedev-Laikov grids with approx.  5.0 points / Ang**2.
                        Smoothing algorithm: York/Karplus (Gamma=1.0000).
                        Polarization charges: spherical gaussians, with
                                              point-specific exponents (IZeta= 3).
                        Self-potential: point-specific (ISelfS= 7).
                        Self-field    : sphere-specific E.n sum rule (ISelfD= 2).
 1st derivatives      : Analytical E(r).r(x)/FMM algorithm (CHGder, D1EAlg=3).
                        Cavity 1st derivative terms included.
 Solvent              : Dichloromethane, Eps=   8.930000 Eps(inf)=   2.028346
 ------------------------------------------------------------------------------
 One-electron integrals computed using PRISM.
 PrsmSu:  requested number of processors reduced to:   5 ShMem   1 Linda.
   1 Symmetry operations used in ECPInt.
 ECPInt:  NShTT=   51040 NPrTT=  129700 LenC2=   46916 LenP2D=   92247.
 LDataN:  DoStor=T MaxTD1= 9 Len=  602
 NBasis=   843 RedAO= T EigKep=  5.87D-06  NBF=   843
 NBsUse=   843 1.00D-06 EigRej= -1.00D+00 NBFU=   843
 Defaulting to unpruned grid for atomic number  77.
 ExpMin= 5.00D-02 ExpMax= 1.97D+04 ExpMxC= 6.73D+02 IAcc=3 IRadAn=         5 AccDes= 0.00D+00
 Harris functional with IExCor= 4639 and IRadAn=       5 diagonalized for initial guess.
 HarFok:  IExCor= 4639 AccDes= 0.00D+00 IRadAn=         5 IDoV= 1 UseB2=F ITyADJ=14
 ICtDFT=  3500011 ScaDFX=  1.000000  1.000000  1.000000  1.000000
 Defaulting to unpruned grid for atomic number  77.
 FoFCou: FMM=F IPFlag=           0 FMFlag=      100000 FMFlg1=           0
         NFxFlg=           0 DoJE=T BraDBF=F KetDBF=T FulRan=T
         wScrn=  0.000000 ICntrl=       500 IOpCl=  0 I1Cent=   200000004 NGrid=           0
         NMat0=    1 NMatS0=      1 NMatT0=    0 NMatD0=    1 NMtDS0=    0 NMtDT0=    0
 Petite list used in FoFCou.
 Requested convergence on RMS density matrix=1.00D-08 within 128 cycles.
 Requested convergence on MAX density matrix=1.00D-06.
 Requested convergence on             energy=1.00D-06.
 No special actions if energy rises.
 Defaulting to unpruned grid for atomic number  77.
 Defaulting to unpruned grid for atomic number  77.
 Defaulting to unpruned grid for atomic number  77.
 Defaulting to unpruned grid for atomic number  77.
 Defaulting to unpruned grid for atomic number  77.
 Defaulting to unpruned grid for atomic number  77.
 Defaulting to unpruned grid for atomic number  77.
 Defaulting to unpruned grid for atomic number  77.
 Inv3:  Mode=1 IEnd=    17963427.
 Iteration    1 A*A^-1 deviation from unit magnitude is 3.11D-15 for   1637.
 Iteration    1 A*A^-1 deviation from orthogonality  is 1.91D-15 for   2085    188.
 Iteration    1 A^-1*A deviation from unit magnitude is 2.89D-15 for   1833.
 Iteration    1 A^-1*A deviation from orthogonality  is 1.78D-15 for   2194   1028.
 Error on total polarization charges =  0.01844
 SCF Done:  E(RwB97XD) =  -723.177155919     A.U. after   17 cycles
            NFock= 17  Conv=0.41D-08     -V/T= 2.1122

 **********************************************************************

            Population analysis using the SCF Density.

 **********************************************************************

 Orbital symmetries:
       Occupied  (A) (A) (A) (A) (A) (A) (A) (A) (A) (A) (A) (A)
                 (A) (A) (A) (A) (A) (A) (A) (A) (A) (A) (A) (A)
                 (A) (A) (A) (A) (A) (A) (A) (A) (A) (A) (A) (A)
                 (A) (A) (A) (A) (A) (A) (A) (A) (A) (A) (A) (A)
                 (A) (A) (A) (A) (A) (A) (A) (A) (A) (A) (A) (A)
                 (A) (A) (A) (A) (A) (A)
       Virtual   (A) (A) (A) (A) (A) (A) (A) (A) (A) (A) (A) (A)
                 (A) (A) (A) (A) (A) (A) (A) (A) (A) (A) (A) (A)
                 (A) (A) (A) (A) (A) (A) (A) (A) (A) (A) (A) (A)
                 (A) (A) (A) (A) (A) (A) (A) (A) (A) (A) (A) (A)
                 (A) (A) (A) (A) (A) (A) (A) (A) (A) (A) (A) (A)
                 (A) (A) (A) (A) (A) (A) (A) (A) (A) (A) (A) (A)
                 (A) (A) (A) (A) (A) (A) (A) (A) (A) (A) (A) (A)
                 (A) (A) (A) (A) (A) (A) (A) (A) (A) (A) (A) (A)
                 (A) (A) (A) (A) (A) (A) (A) (A) (A) (A) (A) (A)
                 (A) (A) (A) (A) (A) (A) (A) (A) (A) (A) (A) (A)
                 (A) (A) (A) (A) (A) (A) (A) (A) (A) (A) (A) (A)
                 (A) (A) (A) (A) (A) (A) (A) (A) (A) (A) (A) (A)
                 (A) (A) (A) (A) (A) (A) (A) (A) (A) (A) (A) (A)
                 (A) (A) (A) (A) (A) (A) (A) (A) (A) (A) (A) (A)
                 (A) (A) (A) (A) (A) (A) (A) (A) (A) (A) (A) (A)
                 (A) (A) (A) (A) (A) (A) (A) (A) (A) (A) (A) (A)
                 (A) (A) (A) (A) (A) (A) (A) (A) (A) (A) (A) (A)
                 (A) (A) (A) (A) (A) (A) (A) (A) (A) (A) (A) (A)
                 (A) (A) (A) (A) (A) (A) (A) (A) (A) (A) (A) (A)
                 (A) (A) (A) (A) (A) (A) (A) (A) (A) (A) (A) (A)
                 (A) (A) (A) (A) (A) (A) (A) (A) (A) (A) (A) (A)
                 (A) (A) (A) (A) (A) (A) (A) (A) (A) (A) (A) (A)
                 (A) (A) (A) (A) (A) (A) (A) (A) (A) (A) (A) (A)
                 (A) (A) (A) (A) (A) (A) (A) (A) (A) (A) (A) (A)
                 (A) (A) (A) (A) (A) (A) (A) (A) (A) (A) (A) (A)
                 (A) (A) (A) (A) (A) (A) (A) (A) (A) (A) (A) (A)
                 (A) (A) (A) (A) (A) (A) (A) (A) (A) (A) (A) (A)
                 (A) (A) (A) (A) (A) (A) (A) (A) (A) (A) (A) (A)
                 (A) (A) (A) (A) (A) (A) (A) (A) (A) (A) (A) (A)
                 (A) (A) (A) (A) (A) (A) (A) (A) (A) (A) (A) (A)
                 (A) (A) (A) (A) (A) (A) (A) (A) (A) (A) (A) (A)
                 (A) (A) (A) (A) (A) (A) (A) (A) (A) (A) (A) (A)
                 (A) (A) (A) (A) (A) (A) (A) (A) (A) (A) (A) (A)
                 (A) (A) (A) (A) (A) (A) (A) (A) (A) (A) (A) (A)
                 (A) (A) (A) (A) (A) (A) (A) (A) (A) (A) (A) (A)
                 (A) (A) (A) (A) (A) (A) (A) (A) (A) (A) (A) (A)
                 (A) (A) (A) (A) (A) (A) (A) (A) (A) (A) (A) (A)
                 (A) (A) (A) (A) (A) (A) (A) (A) (A) (A) (A) (A)
                 (A) (A) (A) (A) (A) (A) (A) (A) (A) (A) (A) (A)
                 (A) (A) (A) (A) (A) (A) (A) (A) (A) (A) (A) (A)
                 (A) (A) (A) (A) (A) (A) (A) (A) (A) (A) (A) (A)
                 (A) (A) (A) (A) (A) (A) (A) (A) (A) (A) (A) (A)
                 (A) (A) (A) (A) (A) (A) (A) (A) (A) (A) (A) (A)
                 (A) (A) (A) (A) (A) (A) (A) (A) (A) (A) (A) (A)
                 (A) (A) (A) (A) (A) (A) (A) (A) (A) (A) (A) (A)
                 (A) (A) (A) (A) (A) (A) (A) (A) (A) (A) (A) (A)
                 (A) (A) (A) (A) (A) (A) (A) (A) (A) (A) (A) (A)
                 (A) (A) (A) (A) (A) (A) (A) (A) (A) (A) (A) (A)
                 (A) (A) (A) (A) (A) (A) (A) (A) (A) (A) (A) (A)
                 (A) (A) (A) (A) (A) (A) (A) (A) (A) (A) (A) (A)
                 (A) (A) (A) (A) (A) (A) (A) (A) (A) (A) (A) (A)
                 (A) (A) (A) (A) (A) (A) (A) (A) (A) (A) (A) (A)
                 (A) (A) (A) (A) (A) (A) (A) (A) (A) (A) (A) (A)
                 (A) (A) (A) (A) (A) (A) (A) (A) (A) (A) (A) (A)
                 (A) (A) (A) (A) (A) (A) (A) (A) (A) (A) (A) (A)
                 (A) (A) (A) (A) (A) (A) (A) (A) (A) (A) (A) (A)
                 (A) (A) (A) (A) (A) (A) (A) (A) (A) (A) (A) (A)
                 (A) (A) (A) (A) (A) (A) (A) (A) (A) (A) (A) (A)
                 (A) (A) (A) (A) (A) (A) (A) (A) (A) (A) (A) (A)
                 (A) (A) (A) (A) (A) (A) (A) (A) (A) (A) (A) (A)
                 (A) (A) (A) (A) (A) (A) (A) (A) (A) (A) (A) (A)
                 (A) (A) (A) (A) (A) (A) (A) (A) (A) (A) (A) (A)
                 (A) (A) (A) (A) (A) (A) (A) (A) (A) (A) (A) (A)
                 (A) (A) (A) (A) (A) (A) (A) (A) (A) (A) (A) (A)
                 (A) (A) (A) (A) (A) (A) (A) (A) (A)
 The electronic state is 1-A.
 Alpha  occ. eigenvalues --  -14.49641 -14.49641 -10.32425 -10.32424 -10.31415
 Alpha  occ. eigenvalues --  -10.31414 -10.31165 -10.31163 -10.28498 -10.28497
 Alpha  occ. eigenvalues --  -10.28081 -10.28080 -10.27616 -10.27418 -10.22741
 Alpha  occ. eigenvalues --   -3.76018  -2.09586  -2.08900  -2.08109  -1.05388
 Alpha  occ. eigenvalues --   -1.04945  -0.94609  -0.87303  -0.85044  -0.81378
 Alpha  occ. eigenvalues --   -0.81368  -0.78871  -0.78413  -0.73124  -0.71795
 Alpha  occ. eigenvalues --   -0.70759  -0.66784  -0.66564  -0.60289  -0.58305
 Alpha  occ. eigenvalues --   -0.57683  -0.57441  -0.56786  -0.55497  -0.55417
 Alpha  occ. eigenvalues --   -0.53031  -0.50370  -0.50248  -0.49650  -0.48826
 Alpha  occ. eigenvalues --   -0.48024  -0.47234  -0.46755  -0.46052  -0.46041
 Alpha  occ. eigenvalues --   -0.45697  -0.45536  -0.44336  -0.42973  -0.42660
 Alpha  occ. eigenvalues --   -0.42505  -0.42275  -0.40833  -0.38319  -0.37130
 Alpha  occ. eigenvalues --   -0.33770  -0.31604  -0.30610  -0.29175  -0.27558
 Alpha  occ. eigenvalues --   -0.23839
 Alpha virt. eigenvalues --    0.04135   0.05898   0.08264   0.09950   0.11105
 Alpha virt. eigenvalues --    0.11890   0.12129   0.13763   0.14893   0.15288
 Alpha virt. eigenvalues --    0.15485   0.15663   0.16177   0.16550   0.17055
 Alpha virt. eigenvalues --    0.17304   0.18033   0.18591   0.19021   0.19568
 Alpha virt. eigenvalues --    0.19638   0.20638   0.21063   0.21464   0.22320
 Alpha virt. eigenvalues --    0.22425   0.22824   0.23037   0.23465   0.23476
 Alpha virt. eigenvalues --    0.24573   0.24646   0.25816   0.26266   0.26361
 Alpha virt. eigenvalues --    0.27090   0.27657   0.28707   0.29513   0.30048
 Alpha virt. eigenvalues --    0.30674   0.31270   0.31444   0.32390   0.33161
 Alpha virt. eigenvalues --    0.33287   0.33805   0.34433   0.35155   0.35332
 Alpha virt. eigenvalues --    0.36066   0.36730   0.37504   0.38532   0.38792
 Alpha virt. eigenvalues --    0.39234   0.39597   0.40443   0.40463   0.41449
 Alpha virt. eigenvalues --    0.42030   0.42173   0.42876   0.43903   0.44210
 Alpha virt. eigenvalues --    0.45222   0.45360   0.45499   0.45785   0.46654
 Alpha virt. eigenvalues --    0.46699   0.47282   0.47888   0.48137   0.48552
 Alpha virt. eigenvalues --    0.48846   0.49481   0.50253   0.50437   0.51062
 Alpha virt. eigenvalues --    0.51189   0.51457   0.51479   0.51770   0.52145
 Alpha virt. eigenvalues --    0.52250   0.53189   0.53470   0.53528   0.54056
 Alpha virt. eigenvalues --    0.54235   0.54817   0.55365   0.55510   0.56116
 Alpha virt. eigenvalues --    0.56968   0.57556   0.57910   0.58575   0.58716
 Alpha virt. eigenvalues --    0.59172   0.59495   0.60660   0.61243   0.61491
 Alpha virt. eigenvalues --    0.61585   0.62558   0.62596   0.64451   0.65038
 Alpha virt. eigenvalues --    0.65151   0.66810   0.67002   0.68497   0.68781
 Alpha virt. eigenvalues --    0.69928   0.69929   0.72349   0.72911   0.73399
 Alpha virt. eigenvalues --    0.74576   0.74643   0.75049   0.77149   0.77552
 Alpha virt. eigenvalues --    0.77630   0.77956   0.78978   0.79852   0.80624
 Alpha virt. eigenvalues --    0.81154   0.81949   0.83218   0.83668   0.84980
 Alpha virt. eigenvalues --    0.85557   0.86088   0.87700   0.87907   0.88379
 Alpha virt. eigenvalues --    0.90133   0.90463   0.90909   0.91022   0.92163
 Alpha virt. eigenvalues --    0.93147   0.93205   0.94509   0.95342   0.95859
 Alpha virt. eigenvalues --    0.95976   0.96670   0.97698   0.98537   0.99138
 Alpha virt. eigenvalues --    0.99490   1.00727   1.01189   1.02220   1.02275
 Alpha virt. eigenvalues --    1.02988   1.03665   1.05212   1.05528   1.06017
 Alpha virt. eigenvalues --    1.06432   1.07063   1.07460   1.07987   1.08630
 Alpha virt. eigenvalues --    1.09316   1.09488   1.09692   1.10492   1.10830
 Alpha virt. eigenvalues --    1.11567   1.12435   1.12482   1.13545   1.14550
 Alpha virt. eigenvalues --    1.14696   1.15482   1.16112   1.16554   1.17811
 Alpha virt. eigenvalues --    1.18534   1.19398   1.19982   1.20120   1.20192
 Alpha virt. eigenvalues --    1.20352   1.21626   1.22002   1.22627   1.22903
 Alpha virt. eigenvalues --    1.23188   1.24036   1.25994   1.26202   1.26793
 Alpha virt. eigenvalues --    1.27543   1.27906   1.28510   1.30242   1.31265
 Alpha virt. eigenvalues --    1.31779   1.32622   1.32774   1.33067   1.33579
 Alpha virt. eigenvalues --    1.34228   1.35108   1.35242   1.35583   1.36613
 Alpha virt. eigenvalues --    1.36696   1.38753   1.39317   1.39343   1.40406
 Alpha virt. eigenvalues --    1.40415   1.40913   1.42114   1.42123   1.42616
 Alpha virt. eigenvalues --    1.43471   1.44119   1.44610   1.44986   1.45967
 Alpha virt. eigenvalues --    1.46416   1.46635   1.46964   1.47879   1.47928
 Alpha virt. eigenvalues --    1.48624   1.49164   1.49716   1.50385   1.51254
 Alpha virt. eigenvalues --    1.51477   1.53099   1.53855   1.55314   1.55378
 Alpha virt. eigenvalues --    1.55425   1.56836   1.57266   1.58648   1.58844
 Alpha virt. eigenvalues --    1.59301   1.60285   1.60697   1.61060   1.61536
 Alpha virt. eigenvalues --    1.62021   1.62651   1.64155   1.64607   1.64734
 Alpha virt. eigenvalues --    1.65398   1.66047   1.66743   1.68147   1.68725
 Alpha virt. eigenvalues --    1.69540   1.70397   1.70709   1.71488   1.72287
 Alpha virt. eigenvalues --    1.72375   1.73072   1.74235   1.75302   1.75920
 Alpha virt. eigenvalues --    1.77153   1.77355   1.78908   1.79375   1.79418
 Alpha virt. eigenvalues --    1.81786   1.82011   1.83011   1.85402   1.85692
 Alpha virt. eigenvalues --    1.85764   1.87106   1.87947   1.88239   1.88897
 Alpha virt. eigenvalues --    1.89091   1.90630   1.94033   1.94226   1.94889
 Alpha virt. eigenvalues --    1.95199   1.97051   1.98000   1.98457   1.99765
 Alpha virt. eigenvalues --    2.00833   2.03099   2.03266   2.04473   2.07636
 Alpha virt. eigenvalues --    2.09293   2.10077   2.11227   2.12643   2.14274
 Alpha virt. eigenvalues --    2.16736   2.16863   2.18495   2.18546   2.20461
 Alpha virt. eigenvalues --    2.22009   2.23259   2.23973   2.25250   2.25612
 Alpha virt. eigenvalues --    2.26479   2.26677   2.28395   2.30104   2.30377
 Alpha virt. eigenvalues --    2.32373   2.35308   2.35920   2.36982   2.37058
 Alpha virt. eigenvalues --    2.41371   2.41414   2.43620   2.44025   2.49072
 Alpha virt. eigenvalues --    2.50394   2.50434   2.52967   2.55279   2.57272
 Alpha virt. eigenvalues --    2.57391   2.60284   2.60490   2.61523   2.62482
 Alpha virt. eigenvalues --    2.64510   2.64666   2.66481   2.67623   2.69195
 Alpha virt. eigenvalues --    2.69821   2.70921   2.71712   2.72045   2.72678
 Alpha virt. eigenvalues --    2.74048   2.75382   2.75409   2.75763   2.76610
 Alpha virt. eigenvalues --    2.77771   2.78064   2.79623   2.81355   2.82865
 Alpha virt. eigenvalues --    2.83358   2.84185   2.84335   2.84889   2.86161
 Alpha virt. eigenvalues --    2.86823   2.87119   2.88278   2.89002   2.89349
 Alpha virt. eigenvalues --    2.89977   2.90422   2.91055   2.91097   2.92280
 Alpha virt. eigenvalues --    2.92298   2.93438   2.93685   2.95210   2.95251
 Alpha virt. eigenvalues --    2.96288   2.96656   2.97318   2.97668   2.98467
 Alpha virt. eigenvalues --    2.99099   2.99638   3.00110   3.01117   3.01557
 Alpha virt. eigenvalues --    3.02611   3.03359   3.04309   3.04981   3.05624
 Alpha virt. eigenvalues --    3.06506   3.06787   3.06936   3.07160   3.08332
 Alpha virt. eigenvalues --    3.08727   3.09653   3.10625   3.11225   3.12623
 Alpha virt. eigenvalues --    3.12763   3.13144   3.14356   3.14728   3.15701
 Alpha virt. eigenvalues --    3.15969   3.16443   3.16599   3.17433   3.17567
 Alpha virt. eigenvalues --    3.18726   3.19367   3.19651   3.20106   3.20166
 Alpha virt. eigenvalues --    3.20594   3.20785   3.22772   3.22848   3.24029
 Alpha virt. eigenvalues --    3.24941   3.25549   3.25979   3.26961   3.27993
 Alpha virt. eigenvalues --    3.28038   3.28929   3.29294   3.29424   3.30221
 Alpha virt. eigenvalues --    3.30735   3.31767   3.32251   3.32771   3.33177
 Alpha virt. eigenvalues --    3.34264   3.34335   3.35798   3.35948   3.36739
 Alpha virt. eigenvalues --    3.36896   3.37939   3.37993   3.40078   3.40207
 Alpha virt. eigenvalues --    3.41957   3.42438   3.43633   3.43655   3.44206
 Alpha virt. eigenvalues --    3.44814   3.45215   3.45985   3.46756   3.47613
 Alpha virt. eigenvalues --    3.48342   3.49229   3.49558   3.50445   3.50870
 Alpha virt. eigenvalues --    3.51656   3.51785   3.52141   3.53340   3.54706
 Alpha virt. eigenvalues --    3.55713   3.56191   3.56256   3.56621   3.56891
 Alpha virt. eigenvalues --    3.57755   3.58406   3.58434   3.58862   3.60443
 Alpha virt. eigenvalues --    3.60741   3.61013   3.62536   3.62850   3.63088
 Alpha virt. eigenvalues --    3.63552   3.64557   3.64626   3.65916   3.66293
 Alpha virt. eigenvalues --    3.67128   3.67425   3.67881   3.68797   3.69673
 Alpha virt. eigenvalues --    3.70560   3.70940   3.71080   3.72008   3.72824
 Alpha virt. eigenvalues --    3.73102   3.74438   3.75219   3.75489   3.76149
 Alpha virt. eigenvalues --    3.76166   3.76682   3.77695   3.78612   3.79371
 Alpha virt. eigenvalues --    3.79472   3.80970   3.81027   3.82014   3.83228
 Alpha virt. eigenvalues --    3.83953   3.84176   3.85157   3.85447   3.86153
 Alpha virt. eigenvalues --    3.86621   3.87756   3.88090   3.88335   3.89091
 Alpha virt. eigenvalues --    3.89555   3.89958   3.91659   3.92331   3.93818
 Alpha virt. eigenvalues --    3.94386   3.95654   3.96044   3.96218   3.97735
 Alpha virt. eigenvalues --    3.98610   3.98964   3.99314   4.00667   4.01412
 Alpha virt. eigenvalues --    4.02088   4.02685   4.03593   4.04859   4.05424
 Alpha virt. eigenvalues --    4.05991   4.07995   4.08113   4.08774   4.09437
 Alpha virt. eigenvalues --    4.09964   4.10682   4.11754   4.12969   4.13559
 Alpha virt. eigenvalues --    4.14253   4.14492   4.16203   4.17053   4.17414
 Alpha virt. eigenvalues --    4.17982   4.18349   4.19501   4.20433   4.20562
 Alpha virt. eigenvalues --    4.21029   4.21638   4.21837   4.22963   4.23381
 Alpha virt. eigenvalues --    4.23758   4.24479   4.25214   4.25227   4.25627
 Alpha virt. eigenvalues --    4.27383   4.27725   4.28060   4.28673   4.29469
 Alpha virt. eigenvalues --    4.29506   4.30529   4.30803   4.31166   4.31439
 Alpha virt. eigenvalues --    4.32379   4.32820   4.33707   4.34055   4.34662
 Alpha virt. eigenvalues --    4.35055   4.35722   4.37304   4.37373   4.38280
 Alpha virt. eigenvalues --    4.38665   4.39059   4.39199   4.39892   4.40476
 Alpha virt. eigenvalues --    4.41325   4.41446   4.42088   4.42889   4.43158
 Alpha virt. eigenvalues --    4.45420   4.47263   4.47407   4.48198   4.49290
 Alpha virt. eigenvalues --    4.50257   4.51758   4.52480   4.53750   4.53917
 Alpha virt. eigenvalues --    4.55166   4.56207   4.58057   4.58793   4.60801
 Alpha virt. eigenvalues --    4.62655   4.62952   4.66025   4.66885   4.67562
 Alpha virt. eigenvalues --    4.68280   4.69672   4.69911   4.71092   4.71763
 Alpha virt. eigenvalues --    4.73493   4.73680   4.75096   4.76332   4.77046
 Alpha virt. eigenvalues --    4.78060   4.78493   4.79696   4.79982   4.80937
 Alpha virt. eigenvalues --    4.82579   4.82793   4.84526   4.86127   4.86733
 Alpha virt. eigenvalues --    4.88554   4.88640   4.90415   4.90988   4.91924
 Alpha virt. eigenvalues --    4.93002   4.93523   4.95635   4.96441   4.99215
 Alpha virt. eigenvalues --    5.00550   5.00906   5.02053   5.04325   5.05274
 Alpha virt. eigenvalues --    5.06716   5.08312   5.09008   5.10460   5.10663
 Alpha virt. eigenvalues --    5.12550   5.14165   5.14250   5.16933   5.17977
 Alpha virt. eigenvalues --    5.18108   5.19845   5.21059   5.21130   5.21981
 Alpha virt. eigenvalues --    5.22400   5.24517   5.25003   5.26337   5.26581
 Alpha virt. eigenvalues --    5.26917   5.27470   5.27929   5.29602   5.30472
 Alpha virt. eigenvalues --    5.31295   5.31331   5.32369   5.33201   5.35298
 Alpha virt. eigenvalues --    5.35371   5.36129   5.36928   5.37356   5.38369
 Alpha virt. eigenvalues --    5.38559   5.39341   5.40598   5.41397   5.43215
 Alpha virt. eigenvalues --    5.43323   5.43918   5.44153   5.46617   5.48583
 Alpha virt. eigenvalues --    5.48642   5.49693   5.52167   5.52689   5.52741
 Alpha virt. eigenvalues --    5.54403   5.55087   5.56285   5.57462   5.58936
 Alpha virt. eigenvalues --    5.59966   5.64886   5.65515   5.65705   5.65810
 Alpha virt. eigenvalues --    5.67881   5.68575   5.68683   5.68809   5.72796
 Alpha virt. eigenvalues --    5.73193   5.73355   5.75388   5.78122   5.78364
 Alpha virt. eigenvalues --    5.79348   5.79381   5.79763   5.80787   5.82106
 Alpha virt. eigenvalues --    5.83107   5.83368   5.87150   5.88546   5.91773
 Alpha virt. eigenvalues --    5.93900   5.94967   5.98803   6.07798   6.10018
 Alpha virt. eigenvalues --    6.12243   6.13662   6.18920   6.20735   6.31428
 Alpha virt. eigenvalues --    6.31973   6.52889  22.64035  23.20399  23.23600
 Alpha virt. eigenvalues --   23.24978  23.30986  23.43822  23.53996  23.54225
 Alpha virt. eigenvalues --   23.75394  23.77551  23.81502  23.85555  23.96547
 Alpha virt. eigenvalues --   32.90776  32.92928  38.39372  40.79205  43.24120
 Alpha virt. eigenvalues --   59.89150 363.53130
          Condensed to atoms (all electrons):
               1          2          3          4          5          6
     1  C    5.460350  -0.040141   0.448589  -0.066510  -0.049550  -0.042733
     2  C   -0.040141   5.460860  -0.066527   0.448574  -0.049566  -0.002338
     3  C    0.448589  -0.066527   5.026069   0.006590   0.478090   0.435529
     4  C   -0.066510   0.448574   0.006590   5.026086   0.478131   0.007801
     5  C   -0.049550  -0.049566   0.478090   0.478131   4.977257  -0.039389
     6  H   -0.042733  -0.002338   0.435529   0.007801  -0.039389   0.516285
     7  H   -0.002338  -0.042707   0.007803   0.435551  -0.039403  -0.000185
     8  C    0.292049   0.019868  -0.079669  -0.006633   0.012802  -0.005137
     9  H   -0.040035   0.000040  -0.002944  -0.000039   0.000602  -0.000013
    10  H   -0.059325  -0.000714  -0.000531   0.000306  -0.000537   0.002070
    11  C    0.019834   0.292036  -0.006629  -0.079662   0.012795   0.000057
    12  H    0.000034  -0.039968  -0.000038  -0.002931   0.000602  -0.000003
    13  H   -0.000714  -0.059330   0.000307  -0.000524  -0.000539  -0.000002
    14  N   -0.074059   0.006961   0.000423  -0.000043  -0.000271   0.000060
    15  N    0.006957  -0.074180  -0.000043   0.000423  -0.000271  -0.000001
    16  C   -0.001358  -0.001378   0.000223   0.000223  -0.000126   0.000010
    17  H   -0.000265  -0.000263  -0.000037  -0.000037   0.000018  -0.000001
    18  H   -0.000047   0.000142  -0.000005  -0.000004   0.000001  -0.000000
    19  H    0.000141  -0.000046  -0.000004  -0.000005   0.000001  -0.000000
    20  C    0.010185   0.000039  -0.000536   0.000035   0.000017  -0.000024
    21  H   -0.000955   0.000043  -0.000001  -0.000002   0.000001  -0.000000
    22  H    0.001602  -0.000004   0.000010  -0.000001  -0.000002   0.000015
    23  H   -0.001263  -0.000152  -0.000044   0.000013  -0.000003  -0.000004
    24  C    0.006822  -0.000926   0.001569   0.000018  -0.000106  -0.000017
    25  H   -0.005927   0.000065  -0.000104   0.000023  -0.000035   0.000028
    26  H    0.000570  -0.000048  -0.000132  -0.000020   0.000018  -0.000008
    27  H    0.016000   0.000378   0.002645  -0.000232   0.000154   0.000045
    28  C    0.000039   0.010193   0.000035  -0.000536   0.000017   0.000000
    29  H   -0.000004   0.001601  -0.000001   0.000010  -0.000002  -0.000000
    30  H    0.000043  -0.000955  -0.000002  -0.000001   0.000001  -0.000000
    31  H   -0.000152  -0.001257   0.000013  -0.000044  -0.000003   0.000000
    32  C   -0.000925   0.006844   0.000016   0.001562  -0.000105  -0.000001
    33  H   -0.000048   0.000577  -0.000020  -0.000132   0.000018  -0.000000
    34  H    0.000065  -0.005951   0.000023  -0.000104  -0.000035   0.000000
    35  H    0.000382   0.016033  -0.000234   0.002640   0.000156  -0.000000
    36  H   -0.000834  -0.000843  -0.000426  -0.000422   0.000963  -0.000076
    37  Ir  -0.091030  -0.091298   0.010204   0.010181  -0.000567  -0.000394
    38  H    0.009313   0.009310  -0.045328  -0.045317   0.447554  -0.004380
    39  C    0.182610   0.182234   0.032794   0.032839  -0.104534   0.015034
               7          8          9         10         11         12
     1  C   -0.002338   0.292049  -0.040035  -0.059325   0.019834   0.000034
     2  C   -0.042707   0.019868   0.000040  -0.000714   0.292036  -0.039968
     3  C    0.007803  -0.079669  -0.002944  -0.000531  -0.006629  -0.000038
     4  C    0.435551  -0.006633  -0.000039   0.000306  -0.079662  -0.002931
     5  C   -0.039403   0.012802   0.000602  -0.000537   0.012795   0.000602
     6  H   -0.000185  -0.005137  -0.000013   0.002070   0.000057  -0.000003
     7  H    0.516172   0.000057  -0.000003  -0.000002  -0.005141  -0.000012
     8  C    0.000057   4.945376   0.440811   0.434999   0.000690  -0.000060
     9  H   -0.000003   0.440811   0.565471  -0.021296  -0.000060   0.000023
    10  H   -0.000002   0.434999  -0.021296   0.555402   0.000028  -0.000002
    11  C   -0.005141   0.000690  -0.000060   0.000028   4.945415   0.440770
    12  H   -0.000012  -0.000060   0.000023  -0.000002   0.440770   0.565535
    13  H    0.002068   0.000028  -0.000002  -0.000001   0.435036  -0.021319
    14  N   -0.000001   0.269128  -0.040145  -0.023854   0.000365   0.000087
    15  N    0.000060   0.000365   0.000086  -0.000038   0.269217  -0.040154
    16  C    0.000010  -0.002403  -0.000265   0.000005  -0.002389  -0.000266
    17  H   -0.000001  -0.000020   0.000011   0.000010  -0.000022   0.000011
    18  H   -0.000000   0.000241   0.000031  -0.000006   0.000089   0.000002
    19  H   -0.000000   0.000090   0.000002  -0.000000   0.000240   0.000031
    20  C    0.000000  -0.037075  -0.004845  -0.007105  -0.000159  -0.000002
    21  H   -0.000000   0.009536   0.000501  -0.000493  -0.000009   0.000001
    22  H   -0.000000  -0.012276  -0.002939   0.005532   0.000004  -0.000000
    23  H    0.000000  -0.004603   0.002686  -0.000242  -0.000033  -0.000000
    24  C   -0.000001  -0.036024   0.006577  -0.014151   0.000024   0.000006
    25  H    0.000000  -0.009426  -0.000109   0.006129  -0.000003  -0.000000
    26  H   -0.000000   0.007322  -0.000142  -0.000020   0.000018   0.000001
    27  H   -0.000000  -0.011637   0.000310  -0.002330   0.000183  -0.000003
    28  C   -0.000024  -0.000159  -0.000002   0.000002  -0.037089  -0.004818
    29  H    0.000015   0.000004  -0.000000  -0.000000  -0.012276  -0.002942
    30  H   -0.000000  -0.000008   0.000001   0.000000   0.009536   0.000500
    31  H   -0.000004  -0.000033  -0.000000   0.000000  -0.004614   0.002689
    32  C   -0.000017   0.000024   0.000006   0.000001  -0.036049   0.006579
    33  H   -0.000008   0.000018   0.000001   0.000001   0.007318  -0.000142
    34  H    0.000028  -0.000003  -0.000000  -0.000000  -0.009393  -0.000110
    35  H    0.000045   0.000184  -0.000003   0.000003  -0.011660   0.000310
    36  H   -0.000076   0.012220  -0.000702   0.000232   0.012217  -0.000701
    37  Ir  -0.000394  -0.044895  -0.000023   0.006048  -0.044812  -0.000039
    38  H   -0.004381  -0.000242   0.000007  -0.000013  -0.000242   0.000007
    39  C    0.015015  -0.120773  -0.011842   0.017093  -0.120852  -0.011843
              13         14         15         16         17         18
     1  C   -0.000714  -0.074059   0.006957  -0.001358  -0.000265  -0.000047
     2  C   -0.059330   0.006961  -0.074180  -0.001378  -0.000263   0.000142
     3  C    0.000307   0.000423  -0.000043   0.000223  -0.000037  -0.000005
     4  C   -0.000524  -0.000043   0.000423   0.000223  -0.000037  -0.000004
     5  C   -0.000539  -0.000271  -0.000271  -0.000126   0.000018   0.000001
     6  H   -0.000002   0.000060  -0.000001   0.000010  -0.000001  -0.000000
     7  H    0.002068  -0.000001   0.000060   0.000010  -0.000001  -0.000000
     8  C    0.000028   0.269128   0.000365  -0.002403  -0.000020   0.000241
     9  H   -0.000002  -0.040145   0.000086  -0.000265   0.000011   0.000031
    10  H   -0.000001  -0.023854  -0.000038   0.000005   0.000010  -0.000006
    11  C    0.435036   0.000365   0.269217  -0.002389  -0.000022   0.000089
    12  H   -0.021319   0.000087  -0.040154  -0.000266   0.000011   0.000002
    13  H    0.555409  -0.000038  -0.023862   0.000005   0.000010  -0.000000
    14  N   -0.000038   6.371300  -0.007390  -0.002447  -0.001044  -0.000013
    15  N   -0.023862  -0.007390   6.371256  -0.002452  -0.001047   0.000611
    16  C    0.000005  -0.002447  -0.002452   5.498695   0.358143   0.383750
    17  H    0.000010  -0.001044  -0.001047   0.358143   0.594418  -0.014933
    18  H   -0.000000  -0.000013   0.000611   0.383750  -0.014933   0.603474
    19  H   -0.000006   0.000610  -0.000013   0.383633  -0.014901  -0.016683
    20  C    0.000002   0.250120   0.000513  -0.005559   0.000385  -0.001106
    21  H    0.000000  -0.033867   0.000045  -0.003088   0.000143   0.002903
    22  H   -0.000000  -0.017739  -0.000016   0.000368  -0.000037  -0.000237
    23  H    0.000000  -0.039375   0.000064  -0.000002   0.000015   0.000284
    24  C    0.000001   0.253452   0.000463  -0.008599  -0.001774  -0.005142
    25  H   -0.000000  -0.021249  -0.000030   0.000883  -0.000029  -0.000416
    26  H    0.000001  -0.031769   0.000154  -0.013214   0.000522   0.003690
    27  H    0.000003  -0.039580   0.000244  -0.003944   0.000095   0.000891
    28  C   -0.007124   0.000513   0.250148  -0.005566   0.000385   0.000027
    29  H    0.005540  -0.000016  -0.017735   0.000368  -0.000037   0.000003
    30  H   -0.000493   0.000045  -0.033852  -0.003089   0.000143   0.000111
    31  H   -0.000242   0.000064  -0.039361   0.000000   0.000015  -0.000019
    32  C   -0.014147   0.000462   0.253424  -0.008536  -0.001781   0.000679
    33  H   -0.000021   0.000154  -0.031820  -0.013181   0.000511   0.000997
    34  H    0.006134  -0.000030  -0.021244   0.000881  -0.000028  -0.000006
    35  H   -0.002328   0.000244  -0.039592  -0.003945   0.000095  -0.000004
    36  H    0.000233  -0.000107  -0.000123  -0.020293   0.000307   0.001020
    37  Ir   0.006053   0.176353   0.176324   0.284309  -0.020128  -0.036564
    38  H   -0.000013   0.000008   0.000008  -0.000000   0.000000   0.000000
    39  C    0.017076   0.021469   0.021430  -0.034672   0.004415   0.000487
              19         20         21         22         23         24
     1  C    0.000141   0.010185  -0.000955   0.001602  -0.001263   0.006822
     2  C   -0.000046   0.000039   0.000043  -0.000004  -0.000152  -0.000926
     3  C   -0.000004  -0.000536  -0.000001   0.000010  -0.000044   0.001569
     4  C   -0.000005   0.000035  -0.000002  -0.000001   0.000013   0.000018
     5  C    0.000001   0.000017   0.000001  -0.000002  -0.000003  -0.000106
     6  H   -0.000000  -0.000024  -0.000000   0.000015  -0.000004  -0.000017
     7  H   -0.000000   0.000000  -0.000000  -0.000000   0.000000  -0.000001
     8  C    0.000090  -0.037075   0.009536  -0.012276  -0.004603  -0.036024
     9  H    0.000002  -0.004845   0.000501  -0.002939   0.002686   0.006577
    10  H   -0.000000  -0.007105  -0.000493   0.005532  -0.000242  -0.014151
    11  C    0.000240  -0.000159  -0.000009   0.000004  -0.000033   0.000024
    12  H    0.000031  -0.000002   0.000001  -0.000000  -0.000000   0.000006
    13  H   -0.000006   0.000002   0.000000  -0.000000   0.000000   0.000001
    14  N    0.000610   0.250120  -0.033867  -0.017739  -0.039375   0.253452
    15  N   -0.000013   0.000513   0.000045  -0.000016   0.000064   0.000463
    16  C    0.383633  -0.005559  -0.003088   0.000368  -0.000002  -0.008599
    17  H   -0.014901   0.000385   0.000143  -0.000037   0.000015  -0.001774
    18  H   -0.016683  -0.001106   0.002903  -0.000237   0.000284  -0.005142
    19  H    0.603589   0.000026   0.000111   0.000003  -0.000019   0.000681
    20  C    0.000026   4.825820   0.422402   0.406950   0.427389  -0.042129
    21  H    0.000111   0.422402   0.548648  -0.020706  -0.017072  -0.004971
    22  H    0.000003   0.406950  -0.020706   0.550217  -0.022496  -0.010763
    23  H   -0.000019   0.427389  -0.017072  -0.022496   0.548543   0.007429
    24  C    0.000681  -0.042129  -0.004971  -0.010763   0.007429   4.847471
[...]
 084,-0.00000810,0.00002796,-0.00001316,0.00002529,-0.00004171,-0.00001
 307,-0.00000296,-0.00000032,0.00000400,0.00000374,0.00000439,0.0000038
 2,-0.00000211,-0.00014464,0.00032573,0.00037871,0.00015386,-0.00013922
 ,-0.00006736,-0.00011621,-0.00037370,0.00000107,-0.00005555,0.00014322
 ,0.00002877,0.00819777,0.00544010,-0.00672945,0.00000422,0.00019247,0.
 00001264,0.00002385,0.00000272,0.00007854,-0.00005280,0.00000227,0.000
 02382,-0.00000613,-0.00010289,-0.00002206,0.00002797,0.00001670,-0.000
 01342,-0.00000119,-0.00000180,-0.00000252,-0.00000876,0.00002114,0.000
 00514,-0.00000034,0.00000295,0.00000315,0.00003005,0.00000444,0.000009
 88,-0.00000202,0.00001686,0.00000858,0.00000313,-0.00000533,-0.0000011
 5,-0.00002669,-0.00001645,0.00000275,-0.00024967,0.00014518,-0.0011183
 0,0.00006706,0.00048427,-0.00037260,-0.00011672,-0.00016066,-0.0000662
 3,0.00004465,0.00056786,-0.00035627,-0.09886876,-0.13198460,0.08163941
 ,0.00488041,0.00371670,-0.00451511,-0.02010390,-0.01450134,0.01582426,
 0.10570164,0.13684830,-0.00023479,-0.00022346,0.00001949,-0.00035051,-
 0.00015224,0.00010108,0.00026308,-0.00005391,-0.00006428,-0.00038843,-
 0.00018914,0.00008842,-0.00001917,0.00029598,-0.00000292,0.00001288,0.
 00001227,-0.00000060,0.00000750,-0.00001303,0.00000289,0.00006011,-0.0
 0002886,0.00003226,-0.00001718,0.00001201,-0.00000112,-0.00002118,0.00
 000966,-0.00000756,0.00151420,0.00051187,0.00061387,0.00012097,0.00002
 067,0.00019577,-0.00022115,0.00014449,-0.00006551,-0.00003094,-0.00028
 180,-0.00004402,0.02324537,0.01767656,-0.02355986,-0.00022320,-0.00017
 919,0.00006746,0.00002648,-0.00000862,-0.00003327,-0.00000181,0.000005
 04,-0.00001061,-0.00009092,0.00011869,-0.00002035,-0.00002597,-0.00002
 150,0.00000962,0.00000309,-0.00000422,0.00000247,0.00001488,-0.0000063
 9,-0.00001526,0.00000196,-0.00000030,-0.00001601,-0.00000182,0.0000213
 2,-0.00003699,-0.00000556,0.00000119,0.00000544,-0.00000244,-0.0000040
 6,0.00000459,0.00000229,-0.00000268,0.00001432,-0.00229346,-0.00310717
 ,-0.00577220,-0.00014508,0.00007618,0.00008469,0.00003560,-0.00015145,
 0.00025547,0.00123798,0.00117816,-0.00115516,0.08808156,0.07462867,-0.
 12260863,-0.00616996,-0.00637724,0.00682370,-0.00245182,-0.00139480,0.
 00266005,-0.10266986,-0.08317726,0.14243932,0.00127820,-0.00110480,-0.
 00101129,0.00121620,0.00114544,-0.00100023,0.00021736,0.00125887,-0.00
 065318,0.00026941,-0.00124785,-0.00065224,-0.00018144,-0.00000257,0.00
 009788,0.00042811,0.00006923,0.00007383,0.00043047,-0.00005168,0.00007
 573,0.00066855,0.00008539,0.00058816,-0.00004217,0.00009162,-0.0001315
 2,-0.00013960,0.00024231,-0.00001688,0.00066955,-0.00007155,0.00059502
 ,-0.00003907,-0.00009793,-0.00013468,-0.00012331,-0.00025370,-0.000017
 88,0.00051565,-0.00019534,0.00090861,0.00056084,0.00019886,0.00114098,
 -0.00775237,-0.00025323,0.00453526,0.00148003,0.00002940,-0.00054722,-
 0.00133942,-0.00028613,-0.00095970,-0.00140183,0.00023773,-0.00097251,
 -0.00036673,0.00009824,-0.00036629,0.00001243,-0.00006993,-0.00000207,
 0.00006901,-0.00013144,0.00002477,0.00004221,-0.00005188,-0.00003741,-
 0.00062947,0.00020493,0.00025711,0.00014383,-0.00038672,-0.00015163,-0
 .00013095,0.00003956,0.00001336,0.00036234,-0.00006634,-0.00021007,-0.
 00035946,-0.00012714,-0.00036433,0.00006207,0.00012722,0.00002521,0.00
 000839,0.00007052,-0.00000163,0.00004074,0.00005460,-0.00003515,-0.000
 63689,-0.00021414,0.00024877,-0.00013524,-0.00004885,0.00000920,0.0001
 2934,0.00040730,-0.00014745,0.00036738,0.00008297,-0.00022035,0.025167
 36,-0.00039364,0.00020581,0.00024251,0.00043543,0.00026804,-0.00028109
 ,0.00004961,0.00000359,0.00000821,-0.00003971,-0.00004889,-0.00003906,
 -0.00000165,-0.00006106,0.00000455,0.00000652,-0.00000934,0.00005055,0
 .00001149,-0.00001159,-0.00004650,-0.00003785,0.00031127,0.00018083,-0
 .00002419,0.00011066,-0.00007205,0.00015165,0.00016237,-0.00002676,0.0
 0005279,0.00031095,-0.00015569,0.00001793,0.00010861,0.00006622,-0.000
 16314,0.00014547,0.00002589,0.00131825,0.00045328,0.00581763,-0.001314
 84,0.00040911,-0.00577902,-0.00025113,0.00475364,0.00009052,0.00002892
 ,0.00002329,-0.00001094,-0.00130464,-0.00020459,-0.00033488,0.00125622
 ,-0.00014304,0.00029653,0.00005457,0.00027317,0.00003657,-0.00003113,-
 0.00000207,0.00001374,-0.00004678,0.00017153,0.00001376,0.00005290,-0.
 00001451,0.00004316,-0.00031867,-0.00041564,-0.00024782,0.00004794,-0.
 00038111,0.00010260,-0.00015214,0.00009615,-0.00010351,0.00020752,-0.0
 0004940,-0.00026058,-0.00008264,0.00026571,-0.00005184,0.00004232,0.00
 017795,-0.00001296,0.00003150,0.00000201,-0.00001388,-0.00005100,-0.00
 001566,-0.00004429,0.00031182,-0.00041205,0.00025670,0.00014292,0.0001
 0026,0.00010375,-0.00002758,-0.00036679,-0.00010850,-0.00019100,-0.000
 05465,0.00025196,0.00013541,0.01854929,0.00106428,-0.00133502,0.001026
 44,0.00100886,0.00137740,0.00102669,0.00050946,0.00059344,0.00024690,0
 .00053367,-0.00057260,0.00024783,-0.00066424,-0.00001338,-0.00003622,0
 .00013705,-0.00004850,-0.00007178,0.00013493,0.00005382,-0.00007218,-0
 .00058233,0.00074293,-0.00058347,0.00022219,0.00039611,-0.00023523,0.0
 0011781,0.00010882,0.00014050,-0.00055182,-0.00076682,-0.00058344,0.00
 023771,-0.00038632,-0.00023477,0.00012212,-0.00010382,0.00014070,0.000
 35881,0.00046225,0.00045856,0.00037748,-0.00044579,0.00045753,-0.00737
 096,-0.00014694,0.00613562,0.00222073,0.00004456,0.00072298,-0.0017646
 7,-0.00051269,-0.00069273,-0.00178436,0.00044049,-0.00069250,0.0002628
 0,0.00009027,-0.00033303,0.00005803,-0.00011664,0.00004204,-0.00003589
 ,0.00018396,0.00014405,-0.00008476,0.00011174,0.00020406,0.00022306,-0
 .00029879,0.00008157,-0.00004164,0.00013799,0.00006132,-0.00001581,-0.
 00014179,0.00004447,-0.00012313,0.00002184,0.00005761,0.00026549,-0.00
 007969,-0.00033256,-0.00002868,-0.00018484,0.00014414,0.00005337,0.000
 11905,0.00004198,-0.00007961,-0.00011430,0.00020404,0.00021219,0.00030
 770,0.00008085,-0.00002150,0.00014121,0.00004454,-0.00003618,-0.000139
 28,0.00006123,-0.00012241,-0.00002692,0.00005795,0.03807437,0.00075549
 ,0.19648614,-0.02718001,-0.01698289,0.00017750,-0.02861246,0.01585606,
 0.00026137,0.00435103,-0.00169674,-0.00009838,0.00429423,0.00209433,-0
 .00009423,-0.00497560,-0.00014061,0.00070962,-0.00039967,-0.00019407,0
 .00019222,-0.00045006,0.00017255,0.00019752,-0.00824016,-0.01358633,0.
 00081158,0.00086212,-0.00064966,-0.00011452,-0.00243396,-0.00022261,-0
 .00101630,-0.00945625,0.01362184,0.00072273,0.00086973,0.00067185,-0.0
 0009210,-0.00240173,0.00008843,-0.00103143,-0.04529749,0.00936494,-0.0
 0507037,-0.04501517,-0.00967014,-0.00515508,-0.05987342,-0.00020483,-0
 .01562552,0.00495508,0.00013356,0.00089045,-0.00458255,0.00002609,-0.0
 0505428,-0.00407355,-0.00032048,-0.00467369,0.00417467,0.00957591,-0.0
 0154510,-0.00005030,0.00130679,0.00003500,-0.00115562,0.00307472,0.001
 27033,-0.00009175,0.00019837,-0.00014460,0.00226092,-0.00007709,0.0014
 8396,0.00001265,0.00149354,-0.00084447,0.00008635,0.00133432,-0.000521
 46,-0.00064803,-0.00061090,0.00070139,0.00474259,-0.00893969,-0.001725
 48,-0.00107002,-0.00316766,0.00129593,-0.00003915,-0.00130554,0.000052
 71,-0.00011564,-0.00020006,-0.00009951,0.00225852,0.00064891,0.0019267
 4,0.00014057,-0.00130586,-0.00055621,0.00007363,-0.00156145,-0.0008750
 3,-0.00069577,0.00060946,0.00068456,-0.01782624,0.00015152,-0.03387298
 ,0.40306120,-0.01985514,-0.00056885,0.00213693,0.01872922,0.00086698,-
 0.00212585,0.00069634,-0.00564328,0.00009272,-0.00029773,-0.00558487,-
 0.00010226,-0.00014090,0.00205531,0.00001727,-0.00107439,0.00009787,0.
 00012331,0.00105269,0.00014789,-0.00011374,-0.01651165,-0.01019618,-0.
 00219300,0.00086809,0.00031792,0.00053227,0.00090132,0.00092034,-0.000
 38730,0.01654336,-0.00898543,0.00222956,-0.00084559,0.00030872,-0.0005
 3973,-0.00103387,0.00088464,0.00034478,-0.00263826,-0.03743952,-0.0022
 1095,0.00232989,-0.03774471,0.00199875,-0.00019183,-0.04962269,-0.0003
 0885,0.00013272,-0.00168846,0.00001730,0.01230836,0.00329725,0.0094289
 5,-0.01260535,0.00278773,-0.00962589,0.00524482,-0.01107562,-0.0045644
 4,-0.00101377,-0.00011376,0.00043013,-0.00102279,0.00120192,0.00067366
 ,-0.00079367,-0.00008446,0.00113106,0.00044042,-0.01165192,0.01107641,
 -0.00005715,0.00176929,-0.00079258,0.00002520,-0.00055093,-0.00089316,
 -0.00058720,-0.00065534,-0.00040896,-0.00461247,-0.01164584,0.00450241
 ,0.00093100,0.00111235,-0.00062175,0.00101643,-0.00012652,-0.00042903,
 0.00079352,-0.00006130,-0.00113730,0.00012160,-0.01164240,-0.01101198,
 0.00000131,-0.00060604,0.00086940,-0.00001076,0.00170831,0.00075822,0.
 00058589,-0.00060756,0.00043687,0.00015700,-0.02536214,-0.00067687,0.0
 0275347,0.26510098,0.00362536,-0.00209552,0.00813876,0.00353899,0.0022
 3861,0.00813766,0.00080387,0.00107507,0.00387566,0.00084535,-0.0010414
 7,0.00387370,0.00016876,0.00000317,-0.00072512,0.00038603,0.00011501,-
 0.00051868,0.00039033,-0.00009909,-0.00051770,-0.00031551,-0.00398602,
 -0.00046797,0.00033763,-0.00013291,0.00008786,-0.00139238,-0.00003968,
 0.00025937,-0.00047558,0.00397352,-0.00046747,0.00033174,0.00014656,0.
 00008774,-0.00139319,-0.00001667,0.00025881,-0.00401560,-0.00160714,-0
 .04534745,-0.00407845,0.00143335,-0.04534497,-0.02169331,-0.00042016,-
 0.02970098,-0.00904056,-0.00018274,-0.01139339,0.00077216,0.00127725,-
 0.00036446,0.00082512,-0.00124359,-0.00036491,-0.00190659,-0.00858255,
 0.00028700,-0.00002703,0.00008071,0.00015975,0.00123186,-0.00182055,-0
 .00022890,-0.00020314,-0.00114093,0.00022447,0.00337903,0.01748682,-0.
 00074729,-0.00006366,0.00205252,-0.00341631,-0.00039040,0.00124165,-0.
 00007143,0.00043779,0.00120408,-0.00014921,-0.00224753,0.00849850,0.00
 028523,0.00115816,0.00186802,-0.00022876,-0.00002385,-0.00008183,0.000
 15965,-0.00024874,0.00113175,0.00022408,0.00407166,-0.01735223,-0.0007
 6087,-0.00034023,-0.00125676,-0.00007200,0.00001921,-0.00205411,-0.003
 41655,0.00048598,-0.00118500,-0.00014955,-0.05685711,-0.00113057,-0.20
 176030,0.06793836,0.00136420,0.36670420,0.00045769,0.00307662,0.001081
 93,0.00067029,-0.00286981,0.00105461,-0.01125895,-0.00355170,0.0021716
 6,-0.01026124,0.00295429,0.00198883,-0.33271184,-0.00548495,0.04985817
 ,0.00072105,0.00034428,-0.00083575,0.00071234,-0.00035801,-0.00082931,
 -0.00023226,-0.00057906,0.00009486,-0.00009863,0.00009250,0.00005140,-
 0.00001104,0.00004982,-0.00003707,-0.00022296,0.00054360,0.00009539,-0
 .00009334,-0.00009368,0.00004931,-0.00000884,-0.00004972,-0.00003523,-
 0.00015119,0.00020530,0.00011044,-0.00013072,-0.00019952,0.00010380,-0
 .00006224,-0.00000025,-0.00007325,-0.00001257,-0.00000022,-0.00002429,
 -0.00002132,0.00001769,-0.00000866,-0.00002055,-0.00001863,-0.00000870
 ,-0.00004430,-0.00008352,-0.00012518,-0.00004120,0.00002080,0.00001428
 ,0.00000841,0.00002186,0.00000235,0.00000844,0.00000250,-0.00000251,-0
 .00002477,-0.00003861,0.00009531,0.00000487,0.00002114,-0.00000523,-0.
 00001577,0.00000290,-0.00001819,0.00001341,-0.00000080,0.00001717,-0.0
 0004313,0.00007915,-0.00012073,0.00000872,-0.00002156,0.00000243,-0.00
 003836,-0.00002122,0.00001341,0.00000818,-0.00000205,-0.00000238,-0.00
 002508,0.00003618,0.00009241,-0.00001513,-0.00000315,-0.00001729,0.000
 00565,-0.00002060,-0.00000535,0.00001276,0.00000134,0.00001700,0.00008
 257,0.00000107,0.00000628,-0.00012697,-0.00000338,0.00001333,0.3522291
 0,0.00244223,-0.00447794,-0.00066218,-0.00223548,-0.00469125,0.0007051
 4,0.02779500,0.00460384,-0.00452948,-0.02839197,0.00360654,0.00461322,
 -0.00548536,-0.05942222,0.00100055,-0.00057057,0.00105794,0.00014672,0
 .00055671,0.00106648,-0.00018033,0.00077670,0.00065862,0.00002310,0.00
 004011,-0.00006302,-0.00005956,0.00000380,-0.00001351,0.00004403,-0.00
 081213,0.00064925,-0.00001934,-0.00004133,-0.00006840,0.00006162,-0.00
 000362,-0.00001561,-0.00004546,0.00031881,-0.00023931,-0.00015944,-0.0
 0031439,-0.00026019,0.00016376,-0.00000086,-0.00002385,-0.00000144,-0.
 00000017,-0.00000360,-0.00000049,-0.00000260,0.00000467,0.00000262,0.0
 0000164,0.00000409,-0.00000299,0.00010548,0.00007087,0.00011157,0.0000
 4912,-0.00002811,-0.00002084,-0.00001045,-0.00000043,0.00000120,-0.000
 00960,-0.00000199,0.00000006,0.00002778,0.00003520,-0.00006228,-0.0000
 0272,-0.00000251,-0.00000249,0.00001181,-0.00000863,0.00001997,-0.0000
 1334,-0.00000234,-0.00000768,-0.00011003,0.00006980,-0.00011657,0.0000
 1083,-0.00000085,-0.00000110,-0.00004955,-0.00003093,0.00002140,0.0000
 1000,-0.00000168,-0.00000011,-0.00003026,0.00003554,0.00006605,-0.0000
 1205,-0.00000923,-0.00002066,0.00000305,-0.00000322,0.00000228,0.00001
 396,-0.00000172,0.00000837,0.00000166,0.00000014,0.00000017,-0.0000013
 9,-0.00005775,0.00000023,0.00588796,0.05888540,0.00086665,-0.00070675,
 0.00625051,0.00083698,0.00074169,0.00625041,0.00230976,0.00057003,0.00
 186355,0.00233186,-0.00047772,0.00186426,0.04971325,0.00099802,-0.0408
 6866,-0.00080610,0.00006078,-0.00416049,-0.00080323,-0.00009300,-0.004
 16056,0.00007151,0.00006765,0.00072916,-0.00000726,0.00008955,0.000022
 43,0.00003581,-0.00001254,-0.00002981,0.00007418,-0.00006466,0.0007288
 5,-0.00000379,-0.00008972,0.00002286,0.00003535,0.00001375,-0.00002981
 ,0.00024370,-0.00018761,-0.00005536,0.00023531,0.00019844,-0.00005569,
 -0.00006438,-0.00000071,0.00004506,0.00001899,0.00000034,0.00001626,-0
 .00000142,0.00000413,-0.00000468,-0.00000098,-0.00000393,-0.00000497,-
 0.00000672,0.00002070,0.00004605,0.00001095,0.00000841,-0.00000742,0.0
 0000324,-0.00001445,-0.00000238,-0.00000479,-0.00000147,0.00000018,0.0
 0000240,0.00001268,-0.00003354,-0.00000222,-0.00000329,0.00000069,0.00
 000062,0.00000560,0.00000446,-0.00000581,0.00000161,-0.00000254,-0.000
 00568,-0.00002071,0.00004589,0.00000250,0.00001445,-0.00000234,0.00001
 128,-0.00000799,-0.00000744,-0.00000481,0.00000132,0.00000033,0.000002
 88,-0.00001271,-0.00003396,0.00000088,-0.00000556,0.00000458,-0.000002
 26,0.00000345,0.00000069,-0.00000578,-0.00000191,-0.00000236,0.0000206
 0,-0.00000041,-0.00001778,-0.00010491,-0.00000382,-0.00038057,-0.05448
 382,-0.00109352,0.03353435,-0.14825744,-0.09666297,0.01049758,-0.15473
 979,0.10155121,0.01041099,-0.02854391,-0.03391033,0.00521067,-0.033107
 41,0.03116732,0.00563888,0.00660160,0.00171542,-0.00271657,-0.00572385
 ,0.00064880,0.00223087,-0.00565621,-0.00094180,0.00227036,0.01543795,0
 .01420537,0.00153953,-0.00219886,0.00195215,0.00085853,-0.00340502,0.0
 0258538,0.00047442,0.01569788,-0.01200651,0.00151133,-0.00213166,-0.00
 199516,0.00088175,-0.00316359,-0.00254961,0.00045391,-0.00094586,0.002
 59633,-0.00023081,-0.00069549,-0.00243859,-0.00021996,-0.00553521,-0.0
 0031864,-0.01345679,-0.00347766,-0.00008739,-0.00030758,0.00039699,0.0
 0022570,-0.00001958,0.00033745,-0.00020465,-0.00010417,-0.00101773,-0.
 00042949,0.00032286,-0.00026468,0.00005641,-0.00002515,0.00029768,-0.0
 0094369,-0.00010112,0.00015699,0.00013129,0.00019567,-0.00096153,-0.00
 058473,-0.00120993,0.00003399,-0.00067401,0.00065109,-0.00008231,0.000
 04687,-0.00010256,0.00023591,0.00016137,0.00025421,-0.00105421,0.00040
 829,0.00032978,0.00026147,0.00096102,-0.00010527,-0.00026111,-0.000069
 85,-0.00002251,0.00015932,-0.00012287,0.00020191,-0.00098339,0.0005239
 1,-0.00121223,-0.00007690,-0.00004872,-0.00009832,0.00001115,0.0006626
 7,0.00064984,0.00024387,-0.00014984,0.00025606,-0.00311784,-0.00007657
 ,0.00098027,-0.16733170,-0.00233671,0.01395216,0.00072891,0.00004122,-
 0.00051474,0.53213219,-0.05970515,-0.27656624,-0.00192350,0.06459628,-
 0.27009710,0.00234395,-0.08253195,0.03516370,0.01077512,0.07979166,0.0
 3972843,-0.01055643,0.00171125,-0.07858419,-0.00005501,0.00074397,0.00
 163969,0.00103735,-0.00103686,0.00157175,-0.00094725,-0.00526370,-0.03
 930255,-0.00066457,-0.00032335,-0.00105608,0.00059266,0.00345687,-0.00
 404267,-0.00049636,0.00745692,-0.03959462,0.00072530,0.00028022,-0.001
 12335,-0.00055753,-0.00342175,-0.00428377,0.00051464,0.00373113,-0.004
 55710,0.00026716,-0.00356791,-0.00479387,-0.00027607,-0.00031956,0.010
 38525,-0.00027094,-0.00008729,0.00086375,-0.00000614,-0.00167179,-0.00
 020839,-0.00212251,0.00169366,-0.00014913,0.00211994,-0.00051658,-0.00
 056349,0.00018409,0.00002068,0.00007026,0.00005982,0.00006061,-0.00015
 181,-0.00010992,-0.00006514,-0.00004508,0.00015387,-0.00002825,0.00049
 089,-0.00011330,0.00009914,0.00030087,-0.00001420,0.00008952,-0.000031
 46,0.00010408,0.00004807,-0.00002397,0.00004293,0.00049661,-0.00052570
 ,-0.00017021,-0.00004384,-0.00011544,0.00010564,-0.00003389,0.00006689
 ,-0.00006084,0.00007329,-0.00004743,-0.00014585,-0.00003094,0.00052377
 ,0.00006702,-0.00009143,-0.00003698,-0.00010807,-0.00011066,0.00032348
 ,0.00004036,-0.00003701,-0.00003182,-0.00003262,-0.00007700,0.00065022
 ,0.00002174,-0.00233867,-0.05086193,0.00027848,0.00004143,-0.00132010,
 -0.00001011,-0.00308858,0.68633533,0.01073493,0.01076802,-0.07177232,0
 .01115811,-0.01032731,-0.07177370,0.00566367,0.00452699,0.00998917,0.0
 0583870,-0.00429592,0.00998824,-0.00061168,-0.00001257,-0.00684634,0.0
 0195215,-0.00009767,0.00738304,0.00194660,0.00017618,0.00738345,-0.001
 92111,-0.00750393,0.00395373,0.00008657,-0.00040259,0.00062979,0.00086
 833,-0.00016663,0.00031714,-0.00222087,0.00742225,0.00395412,0.0000703
 1,0.00040562,0.00062964,0.00086098,0.00020123,0.00031702,0.00040056,-0
 .00036896,0.00157188,0.00038400,0.00038189,0.00157255,-0.01233053,-0.0
 0024776,0.00287663,0.00205672,0.00004142,0.00154080,-0.00095886,-0.000
 19179,-0.00111321,-0.00096494,0.00015363,-0.00111321,0.00002154,-0.000
 04455,0.00017890,0.00002346,0.00007614,-0.00009783,0.00000720,-0.00018
 605,0.00004613,0.00012685,-0.00012464,0.00012180,0.00013952,-0.0008604
 0,-0.00054620,-0.00012170,-0.00001492,0.00014140,0.00001475,0.00003460
 ,0.00012140,-0.00027131,0.00029399,0.00008774,0.00002011,0.00004493,0.
 00017902,-0.00000009,0.00018611,0.00004614,0.00002647,-0.00007533,-0.0
 0009775,0.00012173,0.00012958,0.00012162,0.00010408,0.00086368,-0.0005
 4345,0.00001613,-0.00003401,0.00012141,-0.00012220,0.00000967,0.000141
 45,-0.00025899,-0.00030454,0.00008738,0.01780195,0.00035917,-0.0027137
 2,-0.00103634,-0.00001674,-0.04616910,-0.00030141,-0.00000609,-0.00157
 023,-0.03932539,-0.00079272,0.15085545\\-0.00000426,-0.00000759,0.0000
 0921,-0.00000212,0.00000833,0.00001115,-0.00000214,0.00000524,0.000005
 37,-0.00000072,-0.00000320,0.00000494,0.00000917,-0.00000005,0.0000189
 4,-0.00000043,-0.00000057,0.00001219,-0.00000052,0.00000076,0.00001210
 ,-0.00000281,0.00000614,0.00000703,-0.00000120,-0.00000004,-0.00000131
 ,-0.00000080,-0.00000517,0.00000569,-0.00000018,-0.00000707,0.00000620
 ,-0.00000216,-0.00000041,-0.00000143,-0.00000299,0.00000465,0.00000522
 ,0.00000161,-0.00000261,-0.00000953,-0.00000415,0.00000507,-0.00000644
 ,0.00001032,0.00000315,-0.00001779,-0.00000444,0.00000147,-0.00000768,
 0.00000584,0.00000375,-0.00001067,0.00000724,-0.00000225,-0.00000986,-
 0.00000768,-0.00000449,0.00000150,-0.00000089,0.00000158,-0.00000593,-
 0.00000439,-0.00000291,-0.00000293,-0.00000932,0.00000121,-0.00000548,
 0.00001323,0.00000187,0.00000012,0.00000306,-0.00000436,-0.00000182,0.
 00000582,-0.00000368,-0.00000428,0.00000491,0.00000010,-0.00000086,-0.
 00000500,-0.00000052,-0.00000370,-0.00000365,0.00000194,-0.00000342,0.
 00000013,-0.00000018,-0.00000594,-0.00000917,-0.00000138,-0.00000610,0
 .00000472,-0.00000950,0.00000115,0.00000595,0.00000035,-0.00000685,0.0
 0000365,0.00000489,-0.00000094,0.00000559,0.00000014,0.00000213,0.0000
 0176,0.00000334,-0.00001397,-0.00001793,-0.00000123,-0.00000191,0.0000
 0058,0.00000035,0.00001805,0.00000338,0.00000289,0.00000781\\\@
 The archive entry for this job was punched.



 WE LOSE BECAUSE WE WIN

 GAMBLERS,

 RECOLLECTING WHICH,

 TOSS THEIR DICE AGAIN....


                          EMILY DICKINSON  BOLTS OF MELODY NO. 533
 Job cpu time:       3 days 12 hours 56 minutes 41.7 seconds.
 Elapsed time:       0 days 11 hours  9 minutes 18.5 seconds.
 File lengths (MBytes):  RWF=   1823 Int=      0 D2E=      0 Chk=     67 Scr=      1
 Normal termination of Gaussian 16 at Fri Mar  8 09:49:24 2024.
