 Entering Gaussian System, Link 0=/cm/shared/apps//g16/g16
 Input=YRh.gjf
 Output=YRh.log
 Initial command:
 /cm/shared/apps//g16/l1.exe "/local/mvanvleet/pbs.14046.josephine/Gau-1993614.inp" -scrdir="/local/mvanvleet/pbs.14046.josephine/"
 Entering Link 1 = /cm/shared/apps//g16/l1.exe PID=   1993623.
  
 Copyright (c) 1988-2019, Gaussian, Inc.  All Rights Reserved.
  
 This is part of the Gaussian(R) 16 program.  It is based on
 the Gaussian(R) 09 system (copyright 2009, Gaussian, Inc.),
 the Gaussian(R) 03 system (copyright 2003, Gaussian, Inc.),
 the Gaussian(R) 98 system (copyright 1998, Gaussian, Inc.),
 the Gaussian(R) 94 system (copyright 1995, Gaussian, Inc.),
 the Gaussian 92(TM) system (copyright 1992, Gaussian, Inc.),
 the Gaussian 90(TM) system (copyright 1990, Gaussian, Inc.),
 the Gaussian 88(TM) system (copyright 1988, Gaussian, Inc.),
 the Gaussian 86(TM) system (copyright 1986, Carnegie Mellon
 University), and the Gaussian 82(TM) system (copyright 1983,
 Carnegie Mellon University). Gaussian is a federally registered
 trademark of Gaussian, Inc.
  
 This software contains proprietary and confidential information,
 including trade secrets, belonging to Gaussian, Inc.
  
 This software is provided under written license and may be
 used, copied, transmitted, or stored only in accord with that
 written license.
  
 The following legend is applicable only to US Government
 contracts under FAR:
  
                    RESTRICTED RIGHTS LEGEND
  
 Use, reproduction and disclosure by the US Government is
 subject to restrictions as set forth in subparagraphs (a)
 and (c) of the Commercial Computer Software - Restricted
 Rights clause in FAR 52.227-19.
  
 Gaussian, Inc.
 340 Quinnipiac St., Bldg. 40, Wallingford CT 06492
  
  
 ---------------------------------------------------------------
 Warning -- This program may not be used in any manner that
 competes with the business of Gaussian, Inc. or will provide
 assistance to any competitor of Gaussian, Inc.  The licensee
 of this program is prohibited from giving any competitor of
 Gaussian, Inc. access to this program.  By using this program,
 the user acknowledges that Gaussian, Inc. is engaged in the
 business of creating and licensing software in the field of
 computational chemistry and represents and warrants to the
 licensee that it is not a competitor of Gaussian, Inc. and that
 it will not use this program in any manner prohibited above.
 ---------------------------------------------------------------
  

 Cite this work as:
 Gaussian 16, Revision C.01,
 M. J. Frisch, G. W. Trucks, H. B. Schlegel, G. E. Scuseria, 
 M. A. Robb, J. R. Cheeseman, G. Scalmani, V. Barone, 
 G. A. Petersson, H. Nakatsuji, X. Li, M. Caricato, A. V. Marenich, 
 J. Bloino, B. G. Janesko, R. Gomperts, B. Mennucci, H. P. Hratchian, 
 J. V. Ortiz, A. F. Izmaylov, J. L. Sonnenberg, D. Williams-Young, 
 F. Ding, F. Lipparini, F. Egidi, J. Goings, B. Peng, A. Petrone, 
 T. Henderson, D. Ranasinghe, V. G. Zakrzewski, J. Gao, N. Rega, 
 G. Zheng, W. Liang, M. Hada, M. Ehara, K. Toyota, R. Fukuda, 
 J. Hasegawa, M. Ishida, T. Nakajima, Y. Honda, O. Kitao, H. Nakai, 
 T. Vreven, K. Throssell, J. A. Montgomery, Jr., J. E. Peralta, 
 F. Ogliaro, M. J. Bearpark, J. J. Heyd, E. N. Brothers, K. N. Kudin, 
 V. N. Staroverov, T. A. Keith, R. Kobayashi, J. Normand, 
 K. Raghavachari, A. P. Rendell, J. C. Burant, S. S. Iyengar, 
 J. Tomasi, M. Cossi, J. M. Millam, M. Klene, C. Adamo, R. Cammi, 
 J. W. Ochterski, R. L. Martin, K. Morokuma, O. Farkas, 
 J. B. Foresman, and D. J. Fox, Gaussian, Inc., Wallingford CT, 2019.
 
 ******************************************
 Gaussian 16:  ES64L-G16RevC.01  3-Jul-2019
                 7-Mar-2024 
 ******************************************
 %nprocshared=8
 Will use up to    8 processors via shared memory.
 %chk=YRh.chk
 %mem=1GB
 ----------------------------------------------------------
 # wb97xd def2TZVPP SCRF=(solvent=dichloromethane) opt freq
 ----------------------------------------------------------
 1/18=20,19=15,26=3,38=1/1,3;
 2/9=110,12=2,17=6,18=5,40=1/2;
 3/5=44,7=202,11=2,25=1,30=1,70=2201,71=1,72=9,74=-58/1,2,3;
 4//1;
 5/5=2,38=5,53=9/2;
 6/7=2,8=2,9=2,10=2,28=1/1;
 7//1,2,3,16;
 1/18=20,19=15,26=3/3(2);
 2/9=110/2;
 99//99;
 2/9=110/2;
 3/5=44,7=202,11=2,25=1,30=1,70=2205,71=1,72=9,74=-58/1,2,3;
 4/5=5,16=3,69=1/1;
 5/5=2,38=5,53=9/2;
 7//1,2,3,16;
 1/18=20,19=15,26=3/3(-5);
 2/9=110/2;
 6/7=2,8=2,9=2,10=2,19=2,28=1/1;
 99/9=1/99;
 ---
 YRh
 ---
 Symbolic Z-matrix:
 Charge =  0 Multiplicity = 1
 C                    -1.54025  -0.12714   1.22473 
 C                    -1.54025  -0.12714  -1.22473 
 C                    -2.93323  -0.00238   1.22198 
 C                    -2.93323  -0.00238  -1.22198 
 C                    -3.62455   0.08832   0. 
 H                    -3.49265   0.00923   2.16621 
 H                    -3.49265   0.00923  -2.16621 
 C                    -0.65353  -0.43153   2.40656 
 H                    -0.58666  -1.52823   2.54243 
 H                    -0.99735   0.00858   3.3702 
 C                    -0.65353  -0.43153  -2.40656 
 H                    -0.58666  -1.52823  -2.54243 
 H                    -0.99735   0.00858  -3.3702 
 N                     0.74309   0.03865   2.10708 
 N                     0.74309   0.03865  -2.10708 
 C                     1.69819  -0.67987   2.96956 
 H                     2.71245  -0.28942   2.78319 
 H                     1.44815  -0.53295   4.0451 
 H                     1.67011  -1.75226   2.72367 
 C                     0.81382   1.4867    2.41887 
 H                     0.6503    1.64725   3.50973 
 H                     1.80238   1.87757   2.13265 
 H                     0.03812   2.01245   1.84234 
 C                     1.69819  -0.67987  -2.96956 
 H                     1.44815  -0.53295  -4.0451 
 H                     2.71245  -0.28942  -2.78319 
 H                     1.67011  -1.75226  -2.72367 
 C                     0.81382   1.4867   -2.41887 
 H                     1.80238   1.87757  -2.13265 
 H                     0.6503    1.64725  -3.50973 
 H                     0.03812   2.01245  -1.84234 
 C                    -0.83963  -0.13035   0. 
 H                    -4.7124    0.20091   0. 
 Rh                    1.02188  -0.14097   0. 
 

 GradGradGradGradGradGradGradGradGradGradGradGradGradGradGradGradGradGrad
 Berny optimization.
 Initialization pass.
                           ----------------------------
                           !    Initial Parameters    !
                           ! (Angstroms and Degrees)  !
 --------------------------                            --------------------------
 ! Name  Definition              Value          Derivative Info.                !
 --------------------------------------------------------------------------------
 ! R1    R(1,3)                  1.3986         estimate D2E/DX2                !
 ! R2    R(1,8)                  1.5085         estimate D2E/DX2                !
 ! R3    R(1,32)                 1.411          estimate D2E/DX2                !
 ! R4    R(2,4)                  1.3986         estimate D2E/DX2                !
 ! R5    R(2,11)                 1.5085         estimate D2E/DX2                !
 ! R6    R(2,32)                 1.411          estimate D2E/DX2                !
 ! R7    R(3,5)                  1.4069         estimate D2E/DX2                !
 ! R8    R(3,6)                  1.0976         estimate D2E/DX2                !
 ! R9    R(4,5)                  1.4069         estimate D2E/DX2                !
 ! R10   R(4,7)                  1.0976         estimate D2E/DX2                !
 ! R11   R(5,33)                 1.0937         estimate D2E/DX2                !
 ! R12   R(8,9)                  1.1071         estimate D2E/DX2                !
 ! R13   R(8,10)                 1.1138         estimate D2E/DX2                !
 ! R14   R(8,14)                 1.5038         estimate D2E/DX2                !
 ! R15   R(11,12)                1.1071         estimate D2E/DX2                !
 ! R16   R(11,13)                1.1138         estimate D2E/DX2                !
 ! R17   R(11,15)                1.5038         estimate D2E/DX2                !
 ! R18   R(14,16)                1.4739         estimate D2E/DX2                !
 ! R19   R(14,20)                1.4829         estimate D2E/DX2                !
 ! R20   R(14,34)                2.133          estimate D2E/DX2                !
 ! R21   R(15,24)                1.4739         estimate D2E/DX2                !
 ! R22   R(15,28)                1.4829         estimate D2E/DX2                !
 ! R23   R(15,34)                2.133          estimate D2E/DX2                !
 ! R24   R(16,17)                1.1027         estimate D2E/DX2                !
 ! R25   R(16,18)                1.114          estimate D2E/DX2                !
 ! R26   R(16,19)                1.1006         estimate D2E/DX2                !
 ! R27   R(20,21)                1.1147         estimate D2E/DX2                !
 ! R28   R(20,22)                1.1009         estimate D2E/DX2                !
 ! R29   R(20,23)                1.1002         estimate D2E/DX2                !
 ! R30   R(24,25)                1.114          estimate D2E/DX2                !
 ! R31   R(24,26)                1.1027         estimate D2E/DX2                !
 ! R32   R(24,27)                1.1006         estimate D2E/DX2                !
 ! R33   R(28,29)                1.1009         estimate D2E/DX2                !
 ! R34   R(28,30)                1.1147         estimate D2E/DX2                !
 ! R35   R(28,31)                1.1002         estimate D2E/DX2                !
 ! R36   R(32,34)                1.8615         estimate D2E/DX2                !
 ! A1    A(3,1,8)              127.229          estimate D2E/DX2                !
 ! A2    A(3,1,32)             119.5424         estimate D2E/DX2                !
 ! A3    A(8,1,32)             112.8108         estimate D2E/DX2                !
 ! A4    A(4,2,11)             127.229          estimate D2E/DX2                !
 ! A5    A(4,2,32)             119.5424         estimate D2E/DX2                !
 ! A6    A(11,2,32)            112.8108         estimate D2E/DX2                !
 ! A7    A(1,3,5)              119.7935         estimate D2E/DX2                !
 ! A8    A(1,3,6)              120.4582         estimate D2E/DX2                !
 ! A9    A(5,3,6)              119.7412         estimate D2E/DX2                !
 ! A10   A(2,4,5)              119.7935         estimate D2E/DX2                !
 ! A11   A(2,4,7)              120.4582         estimate D2E/DX2                !
 ! A12   A(5,4,7)              119.7412         estimate D2E/DX2                !
 ! A13   A(3,5,4)              120.5831         estimate D2E/DX2                !
 ! A14   A(3,5,33)             119.6963         estimate D2E/DX2                !
 ! A15   A(4,5,33)             119.6963         estimate D2E/DX2                !
 ! A16   A(1,8,9)              109.3619         estimate D2E/DX2                !
 ! A17   A(1,8,10)             114.6225         estimate D2E/DX2                !
 ! A18   A(1,8,14)             109.0753         estimate D2E/DX2                !
 ! A19   A(9,8,10)             107.6919         estimate D2E/DX2                !
 ! A20   A(9,8,14)             106.1453         estimate D2E/DX2                !
 ! A21   A(10,8,14)            109.6004         estimate D2E/DX2                !
 ! A22   A(2,11,12)            109.3619         estimate D2E/DX2                !
 ! A23   A(2,11,13)            114.6225         estimate D2E/DX2                !
 ! A24   A(2,11,15)            109.0753         estimate D2E/DX2                !
 ! A25   A(12,11,13)           107.6919         estimate D2E/DX2                !
 ! A26   A(12,11,15)           106.1453         estimate D2E/DX2                !
 ! A27   A(13,11,15)           109.6004         estimate D2E/DX2                !
 ! A28   A(8,14,16)            109.4435         estimate D2E/DX2                !
 ! A29   A(8,14,20)            107.9231         estimate D2E/DX2                !
 ! A30   A(8,14,34)            106.9652         estimate D2E/DX2                !
 ! A31   A(16,14,20)           108.7895         estimate D2E/DX2                !
 ! A32   A(16,14,34)           116.8918         estimate D2E/DX2                !
 ! A33   A(20,14,34)           106.4806         estimate D2E/DX2                !
 ! A34   A(11,15,24)           109.4435         estimate D2E/DX2                !
 ! A35   A(11,15,28)           107.9231         estimate D2E/DX2                !
 ! A36   A(11,15,34)           106.9652         estimate D2E/DX2                !
 ! A37   A(24,15,28)           108.7895         estimate D2E/DX2                !
 ! A38   A(24,15,34)           116.8918         estimate D2E/DX2                !
 ! A39   A(28,15,34)           106.4806         estimate D2E/DX2                !
 ! A40   A(14,16,17)           108.9369         estimate D2E/DX2                !
 ! A41   A(14,16,18)           110.8083         estimate D2E/DX2                !
 ! A42   A(14,16,19)           109.1317         estimate D2E/DX2                !
 ! A43   A(17,16,18)           108.8413         estimate D2E/DX2                !
 ! A44   A(17,16,19)           109.313          estimate D2E/DX2                !
 ! A45   A(18,16,19)           109.7855         estimate D2E/DX2                !
 ! A46   A(14,20,21)           109.841          estimate D2E/DX2                !
 ! A47   A(14,20,22)           109.5644         estimate D2E/DX2                !
 ! A48   A(14,20,23)           108.8332         estimate D2E/DX2                !
 ! A49   A(21,20,22)           109.5742         estimate D2E/DX2                !
 ! A50   A(21,20,23)           109.911          estimate D2E/DX2                !
 ! A51   A(22,20,23)           109.0988         estimate D2E/DX2                !
 ! A52   A(15,24,25)           110.8083         estimate D2E/DX2                !
 ! A53   A(15,24,26)           108.9369         estimate D2E/DX2                !
 ! A54   A(15,24,27)           109.1317         estimate D2E/DX2                !
 ! A55   A(25,24,26)           108.8413         estimate D2E/DX2                !
 ! A56   A(25,24,27)           109.7855         estimate D2E/DX2                !
 ! A57   A(26,24,27)           109.313          estimate D2E/DX2                !
 ! A58   A(15,28,29)           109.5644         estimate D2E/DX2                !
 ! A59   A(15,28,30)           109.841          estimate D2E/DX2                !
 ! A60   A(15,28,31)           108.8332         estimate D2E/DX2                !
 ! A61   A(29,28,30)           109.5742         estimate D2E/DX2                !
 ! A62   A(29,28,31)           109.0988         estimate D2E/DX2                !
 ! A63   A(30,28,31)           109.911          estimate D2E/DX2                !
 ! A64   A(1,32,2)             120.4551         estimate D2E/DX2                !
 ! A65   A(1,32,34)            119.7724         estimate D2E/DX2                !
 ! A66   A(2,32,34)            119.7724         estimate D2E/DX2                !
 ! A67   A(14,34,15)           162.1107         estimate D2E/DX2                !
 ! A68   A(14,34,32)            82.4622         estimate D2E/DX2                !
 ! A69   A(15,34,32)            82.4622         estimate D2E/DX2                !
 ! D1    D(8,1,3,5)           -170.5937         estimate D2E/DX2                !
 ! D2    D(8,1,3,6)              8.4293         estimate D2E/DX2                !
 ! D3    D(32,1,3,5)             1.4236         estimate D2E/DX2                !
 ! D4    D(32,1,3,6)          -179.5534         estimate D2E/DX2                !
 ! D5    D(3,1,8,9)             86.0451         estimate D2E/DX2                !
 ! D6    D(3,1,8,10)           -34.9784         estimate D2E/DX2                !
 ! D7    D(3,1,8,14)          -158.2723         estimate D2E/DX2                !
 ! D8    D(32,1,8,9)           -86.4234         estimate D2E/DX2                !
 ! D9    D(32,1,8,10)          152.5531         estimate D2E/DX2                !
 ! D10   D(32,1,8,14)           29.2592         estimate D2E/DX2                !
 ! D11   D(3,1,32,2)            -5.5832         estimate D2E/DX2                !
 ! D12   D(3,1,32,34)          174.491          estimate D2E/DX2                !
 ! D13   D(8,1,32,2)           167.5272         estimate D2E/DX2                !
 ! D14   D(8,1,32,34)          -12.3987         estimate D2E/DX2                !
 ! D15   D(11,2,4,5)           170.5937         estimate D2E/DX2                !
 ! D16   D(11,2,4,7)            -8.4293         estimate D2E/DX2                !
 ! D17   D(32,2,4,5)            -1.4236         estimate D2E/DX2                !
 ! D18   D(32,2,4,7)           179.5534         estimate D2E/DX2                !
 ! D19   D(4,2,11,12)          -86.0451         estimate D2E/DX2                !
 ! D20   D(4,2,11,13)           34.9784         estimate D2E/DX2                !
 ! D21   D(4,2,11,15)          158.2723         estimate D2E/DX2                !
 ! D22   D(32,2,11,12)          86.4234         estimate D2E/DX2                !
 ! D23   D(32,2,11,13)        -152.5531         estimate D2E/DX2                !
 ! D24   D(32,2,11,15)         -29.2592         estimate D2E/DX2                !
 ! D25   D(4,2,32,1)             5.5832         estimate D2E/DX2                !
 ! D26   D(4,2,32,34)         -174.491          estimate D2E/DX2                !
 ! D27   D(11,2,32,1)         -167.5272         estimate D2E/DX2                !
 ! D28   D(11,2,32,34)          12.3987         estimate D2E/DX2                !
 ! D29   D(1,3,5,4)              2.7156         estimate D2E/DX2                !
 ! D30   D(1,3,5,33)          -179.0866         estimate D2E/DX2                !
 ! D31   D(6,3,5,4)           -176.3144         estimate D2E/DX2                !
 ! D32   D(6,3,5,33)             1.8834         estimate D2E/DX2                !
 ! D33   D(2,4,5,3)             -2.7156         estimate D2E/DX2                !
 ! D34   D(2,4,5,33)           179.0866         estimate D2E/DX2                !
 ! D35   D(7,4,5,3)            176.3144         estimate D2E/DX2                !
 ! D36   D(7,4,5,33)            -1.8834         estimate D2E/DX2                !
 ! D37   D(1,8,14,16)         -158.4558         estimate D2E/DX2                !
 ! D38   D(1,8,14,20)           83.304          estimate D2E/DX2                !
 ! D39   D(1,8,14,34)          -30.9258         estimate D2E/DX2                !
 ! D40   D(9,8,14,16)          -40.7258         estimate D2E/DX2                !
 ! D41   D(9,8,14,20)         -158.966          estimate D2E/DX2                !
 ! D42   D(9,8,14,34)           86.8042         estimate D2E/DX2                !
 ! D43   D(10,8,14,16)          75.3093         estimate D2E/DX2                !
 ! D44   D(10,8,14,20)         -42.9309         estimate D2E/DX2                !
 ! D45   D(10,8,14,34)        -157.1607         estimate D2E/DX2                !
 ! D46   D(2,11,15,24)         158.4558         estimate D2E/DX2                !
 ! D47   D(2,11,15,28)         -83.304          estimate D2E/DX2                !
 ! D48   D(2,11,15,34)          30.9258         estimate D2E/DX2                !
 ! D49   D(12,11,15,24)         40.7258         estimate D2E/DX2                !
 ! D50   D(12,11,15,28)        158.966          estimate D2E/DX2                !
 ! D51   D(12,11,15,34)        -86.8042         estimate D2E/DX2                !
 ! D52   D(13,11,15,24)        -75.3093         estimate D2E/DX2                !
 ! D53   D(13,11,15,28)         42.9309         estimate D2E/DX2                !
 ! D54   D(13,11,15,34)        157.1607         estimate D2E/DX2                !
 ! D55   D(8,14,16,17)        -176.8908         estimate D2E/DX2                !
 ! D56   D(8,14,16,18)         -57.179          estimate D2E/DX2                !
 ! D57   D(8,14,16,19)          63.8267         estimate D2E/DX2                !
 ! D58   D(20,14,16,17)        -59.1919         estimate D2E/DX2                !
 ! D59   D(20,14,16,18)         60.5199         estimate D2E/DX2                !
 ! D60   D(20,14,16,19)       -178.4744         estimate D2E/DX2                !
 ! D61   D(34,14,16,17)         61.3746         estimate D2E/DX2                !
 ! D62   D(34,14,16,18)       -178.9136         estimate D2E/DX2                !
 ! D63   D(34,14,16,19)        -57.9079         estimate D2E/DX2                !
 ! D64   D(8,14,20,21)          64.1264         estimate D2E/DX2                !
 ! D65   D(8,14,20,22)        -175.4607         estimate D2E/DX2                !
 ! D66   D(8,14,20,23)         -56.2449         estimate D2E/DX2                !
 ! D67   D(16,14,20,21)        -54.5321         estimate D2E/DX2                !
 ! D68   D(16,14,20,22)         65.8807         estimate D2E/DX2                !
 ! D69   D(16,14,20,23)       -174.9035         estimate D2E/DX2                !
 ! D70   D(34,14,20,21)        178.6773         estimate D2E/DX2                !
 ! D71   D(34,14,20,22)        -60.9098         estimate D2E/DX2                !
 ! D72   D(34,14,20,23)         58.306          estimate D2E/DX2                !
 ! D73   D(8,14,34,15)          53.1971         estimate D2E/DX2                !
 ! D74   D(8,14,34,32)          20.4126         estimate D2E/DX2                !
 ! D75   D(16,14,34,15)        176.2172         estimate D2E/DX2                !
 ! D76   D(16,14,34,32)        143.4327         estimate D2E/DX2                !
 ! D77   D(20,14,34,15)        -62.003          estimate D2E/DX2                !
 ! D78   D(20,14,34,32)        -94.7875         estimate D2E/DX2                !
 ! D79   D(11,15,24,25)         57.179          estimate D2E/DX2                !
 ! D80   D(11,15,24,26)        176.8908         estimate D2E/DX2                !
 ! D81   D(11,15,24,27)        -63.8267         estimate D2E/DX2                !
 ! D82   D(28,15,24,25)        -60.5199         estimate D2E/DX2                !
 ! D83   D(28,15,24,26)         59.1919         estimate D2E/DX2                !
 ! D84   D(28,15,24,27)        178.4744         estimate D2E/DX2                !
 ! D85   D(34,15,24,25)        178.9136         estimate D2E/DX2                !
 ! D86   D(34,15,24,26)        -61.3746         estimate D2E/DX2                !
 ! D87   D(34,15,24,27)         57.9079         estimate D2E/DX2                !
 ! D88   D(11,15,28,29)        175.4607         estimate D2E/DX2                !
 ! D89   D(11,15,28,30)        -64.1264         estimate D2E/DX2                !
 ! D90   D(11,15,28,31)         56.2449         estimate D2E/DX2                !
 ! D91   D(24,15,28,29)        -65.8807         estimate D2E/DX2                !
 ! D92   D(24,15,28,30)         54.5321         estimate D2E/DX2                !
 ! D93   D(24,15,28,31)        174.9035         estimate D2E/DX2                !
 ! D94   D(34,15,28,29)         60.9098         estimate D2E/DX2                !
 ! D95   D(34,15,28,30)       -178.6773         estimate D2E/DX2                !
 ! D96   D(34,15,28,31)        -58.306          estimate D2E/DX2                !
 ! D97   D(11,15,34,14)        -53.1971         estimate D2E/DX2                !
 ! D98   D(11,15,34,32)        -20.4126         estimate D2E/DX2                !
 ! D99   D(24,15,34,14)       -176.2172         estimate D2E/DX2                !
 ! D100  D(24,15,34,32)       -143.4327         estimate D2E/DX2                !
 ! D101  D(28,15,34,14)         62.003          estimate D2E/DX2                !
 ! D102  D(28,15,34,32)         94.7875         estimate D2E/DX2                !
 ! D103  D(1,32,34,14)          -4.8663         estimate D2E/DX2                !
 ! D104  D(1,32,34,15)        -175.2074         estimate D2E/DX2                !
 ! D105  D(2,32,34,14)         175.2074         estimate D2E/DX2                !
 ! D106  D(2,32,34,15)           4.8663         estimate D2E/DX2                !
 --------------------------------------------------------------------------------
 Trust Radius=3.00D-01 FncErr=1.00D-07 GrdErr=1.00D-06 EigMax=2.50D+02 EigMin=1.00D-04
 Number of steps in this run=    204 maximum allowed number of steps=    204.
 GradGradGradGradGradGradGradGradGradGradGradGradGradGradGradGradGradGrad

                          Input orientation:                          
 ---------------------------------------------------------------------
 Center     Atomic      Atomic             Coordinates (Angstroms)
 Number     Number       Type             X           Y           Z
 ---------------------------------------------------------------------
      1          6           0       -1.540250   -0.127140    1.224730
      2          6           0       -1.540250   -0.127140   -1.224730
      3          6           0       -2.933230   -0.002380    1.221980
      4          6           0       -2.933230   -0.002380   -1.221980
      5          6           0       -3.624550    0.088320    0.000000
      6          1           0       -3.492650    0.009230    2.166210
      7          1           0       -3.492650    0.009230   -2.166210
      8          6           0       -0.653530   -0.431530    2.406560
      9          1           0       -0.586660   -1.528230    2.542430
     10          1           0       -0.997350    0.008580    3.370200
     11          6           0       -0.653530   -0.431530   -2.406560
     12          1           0       -0.586660   -1.528230   -2.542430
     13          1           0       -0.997350    0.008580   -3.370200
     14          7           0        0.743090    0.038650    2.107080
     15          7           0        0.743090    0.038650   -2.107080
     16          6           0        1.698190   -0.679870    2.969560
     17          1           0        2.712450   -0.289420    2.783190
     18          1           0        1.448150   -0.532950    4.045100
     19          1           0        1.670110   -1.752260    2.723670
     20          6           0        0.813820    1.486700    2.418870
     21          1           0        0.650300    1.647250    3.509730
     22          1           0        1.802380    1.877570    2.132650
     23          1           0        0.038120    2.012450    1.842340
     24          6           0        1.698190   -0.679870   -2.969560
     25          1           0        1.448150   -0.532950   -4.045100
     26          1           0        2.712450   -0.289420   -2.783190
     27          1           0        1.670110   -1.752260   -2.723670
     28          6           0        0.813820    1.486700   -2.418870
     29          1           0        1.802380    1.877570   -2.132650
     30          1           0        0.650300    1.647250   -3.509730
     31          1           0        0.038120    2.012450   -1.842340
     32          6           0       -0.839630   -0.130350    0.000000
     33          1           0       -4.712400    0.200910    0.000000
     34         45           0        1.021880   -0.140970    0.000000
 ---------------------------------------------------------------------
                    Distance matrix (angstroms):
                    1          2          3          4          5
     1  C    0.000000
     2  C    2.449460   0.000000
     3  C    1.398559   2.818217   0.000000
     4  C    2.818217   1.398559   2.443960   0.000000
     5  C    2.427075   2.427075   1.406906   1.406906   0.000000
     6  H    2.171830   3.915219   1.097568   3.434082   2.171663
     7  H    3.915219   2.171830   3.434082   1.097568   2.171663
     8  C    1.508525   3.750359   2.604694   4.306681   3.858592
     9  H    2.146793   4.130845   3.094866   4.690990   4.278546
    10  H    2.217251   4.628881   2.891816   4.983560   4.273966
    11  C    3.750359   1.508525   4.306681   2.604694   3.858592
    12  H    4.130845   2.146793   4.690990   3.094866   4.278546
    13  H    4.628881   2.217251   4.983560   2.891816   4.273966
    14  N    2.453501   4.042535   3.781589   4.959804   4.849591
    15  N    4.042535   2.453501   4.959804   3.781589   4.849591
    16  C    3.719870   5.327764   4.996307   6.283156   6.143286
    17  H    4.532173   5.845957   5.864595   6.928021   6.931551
    18  H    4.129129   6.071765   5.239084   6.871690   6.517752
    19  H    3.897980   5.342030   5.148582   6.310386   6.232137
    20  C    3.093880   4.628385   4.205982   5.432636   5.244571
    21  H    3.628801   5.510180   4.560347   6.160523   5.746548
    22  H    4.002044   5.144321   5.175861   6.100308   6.099277
    23  H    2.729568   4.059066   3.643255   4.720012   4.528978
    24  C    5.327764   3.719870   6.283156   4.996307   6.143286
    25  H    6.071765   4.129129   6.871690   5.239084   6.517752
    26  H    5.845957   4.532173   6.928021   5.864595   6.931551
    27  H    5.342030   3.897980   6.310386   5.148582   6.232137
    28  C    4.628385   3.093880   5.432636   4.205982   5.244571
    29  H    5.144321   4.002044   6.100308   5.175861   6.099277
    30  H    5.510180   3.628801   6.160523   4.560347   5.746548
    31  H    4.059066   2.729568   4.720012   3.643255   4.528978
    32  C    1.410972   1.410972   2.427503   2.427503   2.793492
    33  H    3.416155   3.416155   2.167950   2.167950   1.093661
    34  Rh   2.839835   2.839835   4.141900   4.141900   4.652084
                    6          7          8          9         10
     6  H    0.000000
     7  H    4.332420   0.000000
     8  C    2.883165   5.400472   0.000000
     9  H    3.309094   5.742809   1.107106   0.000000
    10  H    2.770580   6.072755   1.113782   1.793225   0.000000
    11  C    5.400472   2.883165   4.813120   5.069490   5.803694
    12  H    5.742809   3.309094   5.069490   5.084860   6.122879
    13  H    6.072755   2.770580   5.803694   6.122879   6.740400
    14  N    4.236255   6.016923   1.503764   2.100685   2.150699
    15  N    6.016923   4.236255   4.748111   5.083433   5.747228
    16  C    5.297646   7.334563   2.430891   2.474408   2.810767
    17  H    6.242846   7.942860   3.389966   3.532243   3.767758
    18  H    5.313727   7.955240   2.666863   2.718281   2.594073
    19  H    5.483402   7.325835   2.691503   2.275093   3.260966
    20  C    4.559873   6.461545   2.415134   3.326622   2.523926
    21  H    4.653191   7.215500   2.690406   3.542515   2.327973
    22  H    5.615084   7.071650   3.382080   4.180300   3.586522
    23  H    4.072360   5.705059   2.601877   3.662907   2.724344
    24  C    7.334563   5.297646   5.873238   6.026797   6.923327
    25  H    7.955240   5.313727   6.786108   6.966103   7.826902
    26  H    7.942860   6.242846   6.187368   6.386001   7.191358
    27  H    7.325835   5.483402   5.784712   5.733673   6.881217
    28  C    6.461545   4.559873   5.396063   5.972072   6.243277
    29  H    7.071650   5.615084   5.654013   6.258063   6.450812
    30  H    7.215500   4.653191   6.404981   6.945674   7.261778
    31  H    5.705059   4.072360   4.950209   5.670359   5.679636
    32  C    3.427895   3.427895   2.432462   2.912390   3.376748
    33  H    2.493391   2.493391   4.760876   5.145445   5.019645
    34  Rh   5.009591   5.009591   2.946685   3.312981   3.931654
                   11         12         13         14         15
    11  C    0.000000
    12  H    1.107106   0.000000
    13  H    1.113782   1.793225   0.000000
    14  N    4.748111   5.083433   5.747228   0.000000
    15  N    1.503764   2.100685   2.150699   4.214160   0.000000
    16  C    5.873238   6.026797   6.923327   1.473892   5.215435
    17  H    6.187368   6.386001   7.191358   2.107874   5.282116
    18  H    6.786108   6.966103   7.826902   2.140037   6.218774
    19  H    5.784712   5.733673   6.881217   2.108769   5.234775
    20  C    5.396063   5.972072   6.243277   1.482924   4.752481
    21  H    6.404981   6.945674   7.261778   2.136266   5.843352
    22  H    5.654013   6.258063   6.450812   2.122352   4.741206
    23  H    4.950209   5.670359   5.679636   2.112571   4.471106
    24  C    2.430891   2.474408   2.810767   5.215435   1.473892
    25  H    2.666863   2.718281   2.594073   6.218774   2.140037
    26  H    3.389966   3.532243   3.767758   5.282116   2.107874
    27  H    2.691503   2.275093   3.260966   5.234775   2.108769
    28  C    2.415134   3.326622   2.523926   4.752481   1.482924
    29  H    3.382080   4.180300   3.586522   4.741206   2.122352
    30  H    2.690406   3.542515   2.327973   5.843352   2.136266
    31  H    2.601877   3.662907   2.724344   4.471106   2.112571
    32  C    2.432462   2.912390   3.376748   2.640710   2.640710
    33  H    4.760876   5.145445   5.019645   5.850512   5.850512
    34  Rh   2.946685   3.312981   3.931654   2.133020   2.133020
                   16         17         18         19         20
    16  C    0.000000
    17  H    1.102682   0.000000
    18  H    1.113953   1.802825   0.000000
    19  H    1.100577   1.797197   1.811673   0.000000
    20  C    2.404037   2.625286   2.669454   3.364075   0.000000
    21  H    2.608706   2.920790   2.382532   3.635185   1.114671
    22  H    2.692912   2.438704   3.097346   3.680009   1.100887
    23  H    3.357833   3.651828   3.649575   4.196805   1.100232
    24  C    5.939120   5.854512   7.020652   5.793417   5.874633
    25  H    7.020652   6.948619   8.090200   6.881296   6.801784
    26  H    5.854512   5.566380   6.948619   5.792399   5.815568
    27  H    5.793417   5.792399   6.881296   5.447340   6.137574
    28  C    5.874633   5.815568   6.801784   6.137574   4.837740
    29  H    5.708231   5.448812   6.640834   6.064405   4.674009
    30  H    6.963818   6.899565   7.903499   7.173002   5.933027
    31  H    5.758368   5.817746   6.567282   6.138801   4.363030
    32  C    3.944717   4.515387   4.664639   4.043237   3.346592
    33  H    7.119672   7.944493   7.406332   7.209000   6.167925
    34  Rh   3.092910   3.259787   4.086342   3.230300   2.922932
                   21         22         23         24         25
    21  H    0.000000
    22  H    1.810162   0.000000
    23  H    1.813374   1.793066   0.000000
    24  C    6.963818   5.708231   5.758368   0.000000
    25  H    7.903499   6.640834   6.567282   1.113953   0.000000
    26  H    6.899565   5.448812   5.817746   1.102682   1.802825
    27  H    7.173002   6.064405   6.138801   1.100577   1.811673
    28  C    5.933027   4.674009   4.363030   2.404037   2.669454
    29  H    5.763401   4.265300   4.351017   2.692912   3.097346
    30  H    7.019460   5.763401   5.399332   2.608706   2.382532
    31  H    5.399332   4.351017   3.684680   3.357833   3.649575
    32  C    4.206894   3.944636   2.959097   3.944717   4.664639
    33  H    6.570286   7.057035   5.407711   7.119672   7.406332
    34  Rh   3.956515   3.038401   2.999870   3.092910   4.086342
                   26         27         28         29         30
    26  H    0.000000
    27  H    1.797197   0.000000
    28  C    2.625286   3.364075   0.000000
    29  H    2.438704   3.680009   1.100887   0.000000
    30  H    2.920790   3.635185   1.114671   1.810162   0.000000
    31  H    3.651828   4.196805   1.100232   1.793066   1.813374
    32  C    4.515387   4.043237   3.346592   3.944636   4.206894
    33  H    7.944493   7.209000   6.167925   7.057035   6.570286
    34  Rh   3.259787   3.230300   2.922932   3.038401   3.956515
                   31         32         33         34
    31  H    0.000000
    32  C    2.959097   0.000000
    33  H    5.407711   3.886911   0.000000
    34  Rh   2.999870   1.861540   5.744462   0.000000
 Stoichiometry    C12H19N2Rh
 Framework group  CS[SG(C2HRh),X(C10H18N2)]
 Deg. of freedom    50
 Full point group                 CS      NOp   2
 Largest Abelian subgroup         CS      NOp   2
 Largest concise Abelian subgroup CS      NOp   2
                         Standard orientation:                         
 ---------------------------------------------------------------------
 Center     Atomic      Atomic             Coordinates (Angstroms)
 Number     Number       Type             X           Y           Z
 ---------------------------------------------------------------------
      1          6           0       -1.540251   -0.127140    1.224730
      2          6           0       -1.540251   -0.127140   -1.224730
      3          6           0       -2.933231   -0.002380    1.221980
      4          6           0       -2.933231   -0.002380   -1.221980
      5          6           0       -3.624551    0.088320   -0.000000
      6          1           0       -3.492651    0.009230    2.166210
      7          1           0       -3.492651    0.009230   -2.166210
      8          6           0       -0.653531   -0.431530    2.406560
      9          1           0       -0.586660   -1.528230    2.542430
     10          1           0       -0.997351    0.008580    3.370200
     11          6           0       -0.653531   -0.431530   -2.406560
     12          1           0       -0.586660   -1.528230   -2.542430
     13          1           0       -0.997351    0.008580   -3.370200
     14          7           0        0.743089    0.038650    2.107080
     15          7           0        0.743089    0.038650   -2.107080
     16          6           0        1.698189   -0.679870    2.969560
     17          1           0        2.712449   -0.289420    2.783190
     18          1           0        1.448149   -0.532950    4.045100
     19          1           0        1.670110   -1.752260    2.723670
     20          6           0        0.813819    1.486700    2.418870
     21          1           0        0.650299    1.647250    3.509730
     22          1           0        1.802379    1.877570    2.132650
     23          1           0        0.038119    2.012450    1.842340
     24          6           0        1.698189   -0.679870   -2.969560
     25          1           0        1.448149   -0.532950   -4.045100
     26          1           0        2.712449   -0.289420   -2.783190
     27          1           0        1.670110   -1.752260   -2.723670
     28          6           0        0.813819    1.486700   -2.418870
     29          1           0        1.802379    1.877570   -2.132650
     30          1           0        0.650299    1.647250   -3.509730
     31          1           0        0.038119    2.012450   -1.842340
     32          6           0       -0.839631   -0.130350   -0.000000
     33          1           0       -4.712401    0.200910   -0.000000
     34         45           0        1.021879   -0.140970    0.000000
 ---------------------------------------------------------------------
 Rotational constants (GHZ):           0.6068143           0.5372308           0.3226915
 Standard basis: def2TZVPP (5D, 7F)
 There are   459 symmetry adapted cartesian basis functions of A'  symmetry.
 There are   401 symmetry adapted cartesian basis functions of A"  symmetry.
 There are   400 symmetry adapted basis functions of A'  symmetry.
 There are   356 symmetry adapted basis functions of A"  symmetry.
   756 basis functions,  1136 primitive gaussians,   860 cartesian basis functions
    61 alpha electrons       61 beta electrons
       nuclear repulsion energy      1211.8945402723 Hartrees.
 NAtoms=   34 NActive=   34 NUniq=   19 SFac= 3.20D+00 NAtFMM=   60 NAOKFM=F Big=F
 Integral buffers will be    131072 words long.
 Raffenetti 2 integral format.
 Two-electron integral symmetry is turned on.
 Nuclear repulsion after empirical dispersion term =     1211.8628995047 Hartrees.
 ------------------------------------------------------------------------------
 Polarizable Continuum Model (PCM)
 =================================
 Model                : PCM.
 Atomic radii         : UFF (Universal Force Field).
 Polarization charges : Total charges.
 Charge compensation  : None.
 Solution method      : On-the-fly selection.
 Cavity type          : Scaled VdW (van der Waals Surface) (Alpha=1.100).
 Cavity algorithm     : GePol (No added spheres)
                        Default sphere list used, NSphG=   34.
                        Lebedev-Laikov grids with approx.  5.0 points / Ang**2.
                        Smoothing algorithm: York/Karplus (Gamma=1.0000).
                        Polarization charges: spherical gaussians, with
                                              point-specific exponents (IZeta= 3).
                        Self-potential: point-specific (ISelfS= 7).
                        Self-field    : sphere-specific E.n sum rule (ISelfD= 2).
 1st derivatives      : Analytical E(r).r(x)/FMM algorithm (CHGder, D1EAlg=3).
                        Cavity 1st derivative terms included.
 Solvent              : Dichloromethane, Eps=   8.930000 Eps(inf)=   2.028346
 ------------------------------------------------------------------------------
 One-electron integrals computed using PRISM.
 PrsmSu:  requested number of processors reduced to:   5 ShMem   1 Linda.
   2 Symmetry operations used in ECPInt.
 ECPInt:  NShTT=   40470 NPrTT=  104118 LenC2=   37062 LenP2D=   74034.
 LDataN:  DoStor=T MaxTD1= 8 Len=  415
 NBasis=   756 RedAO= T EigKep=  4.60D-06  NBF=   400   356
 NBsUse=   756 1.00D-06 EigRej= -1.00D+00 NBFU=   400   356
 Defaulting to unpruned grid for atomic number  45.
 ExpMin= 3.70D-02 ExpMax= 1.97D+04 ExpMxC= 6.73D+02 IAcc=3 IRadAn=         5 AccDes= 0.00D+00
 Harris functional with IExCor= 4639 and IRadAn=       5 diagonalized for initial guess.
 HarFok:  IExCor= 4639 AccDes= 0.00D+00 IRadAn=         5 IDoV= 1 UseB2=F ITyADJ=14
 ICtDFT=  3500011 ScaDFX=  1.000000  1.000000  1.000000  1.000000
 Defaulting to unpruned grid for atomic number  45.
 FoFCou: FMM=F IPFlag=           0 FMFlag=      100000 FMFlg1=           0
         NFxFlg=           0 DoJE=T BraDBF=F KetDBF=T FulRan=T
         wScrn=  0.000000 ICntrl=       500 IOpCl=  0 I1Cent=   200000004 NGrid=           0
         NMat0=    1 NMatS0=      1 NMatT0=    0 NMatD0=    1 NMtDS0=    0 NMtDT0=    0
 Petite list used in FoFCou.
 Initial guess orbital symmetries:
       Occupied  (A") (A') (A') (A") (A') (A') (A") (A") (A') (A")
                 (A') (A') (A") (A') (A') (A') (A") (A') (A') (A")
                 (A') (A") (A') (A') (A") (A') (A") (A') (A") (A")
                 (A') (A') (A") (A') (A") (A') (A") (A') (A") (A')
                 (A') (A") (A") (A') (A') (A") (A') (A") (A") (A')
                 (A') (A") (A') (A') (A') (A") (A") (A') (A') (A")
                 (A")
       Virtual   (A') (A") (A') (A') (A') (A") (A') (A') (A") (A')
                 (A") (A') (A') (A") (A") (A') (A") (A') (A') (A")
                 (A') (A') (A") (A') (A') (A") (A') (A") (A") (A')
                 (A") (A') (A") (A') (A') (A") (A') (A') (A') (A")
                 (A") (A') (A") (A') (A') (A') (A") (A") (A') (A")
                 (A') (A") (A") (A") (A') (A') (A') (A") (A') (A")
                 (A") (A') (A') (A') (A') (A") (A') (A") (A') (A")
                 (A') (A") (A') (A') (A') (A") (A") (A') (A') (A")
                 (A") (A') (A") (A') (A") (A') (A") (A') (A') (A")
                 (A") (A') (A") (A') (A") (A') (A") (A') (A') (A")
                 (A") (A') (A") (A') (A') (A') (A") (A") (A') (A")
                 (A') (A") (A') (A") (A') (A') (A") (A") (A') (A')
                 (A") (A") (A') (A") (A') (A") (A') (A") (A') (A")
                 (A') (A") (A') (A") (A') (A') (A") (A') (A") (A')
                 (A') (A") (A') (A") (A") (A') (A") (A') (A') (A")
                 (A') (A") (A') (A") (A') (A') (A') (A') (A") (A")
                 (A') (A") (A') (A") (A") (A') (A") (A') (A") (A')
                 (A") (A') (A') (A") (A") (A') (A') (A") (A') (A')
                 (A") (A") (A') (A") (A") (A') (A') (A") (A') (A")
                 (A') (A") (A') (A") (A') (A") (A") (A") (A') (A')
                 (A') (A') (A") (A') (A") (A") (A") (A') (A") (A')
                 (A') (A") (A") (A') (A") (A') (A') (A") (A') (A")
                 (A") (A') (A') (A') (A") (A') (A") (A') (A') (A")
                 (A') (A") (A") (A') (A') (A') (A") (A") (A') (A")
                 (A') (A") (A') (A') (A") (A") (A') (A") (A') (A")
                 (A') (A') (A") (A') (A") (A") (A') (A") (A') (A")
                 (A') (A') (A') (A') (A') (A") (A") (A") (A') (A')
                 (A') (A") (A') (A") (A") (A') (A") (A') (A') (A")
                 (A") (A') (A') (A") (A") (A') (A') (A") (A') (A")
                 (A') (A") (A') (A") (A') (A") (A") (A') (A") (A')
                 (A') (A") (A') (A") (A') (A") (A') (A") (A') (A")
                 (A') (A') (A") (A') (A") (A") (A') (A') (A") (A')
                 (A") (A') (A') (A") (A") (A') (A') (A") (A") (A')
                 (A") (A') (A") (A') (A') (A") (A') (A") (A') (A")
                 (A') (A') (A") (A") (A') (A") (A") (A') (A") (A')
                 (A") (A') (A') (A') (A") (A') (A") (A') (A") (A')
                 (A") (A") (A') (A') (A") (A') (A") (A") (A') (A')
                 (A") (A') (A') (A") (A") (A") (A') (A") (A') (A')
                 (A") (A') (A") (A') (A") (A') (A') (A') (A") (A')
                 (A") (A") (A') (A") (A') (A") (A") (A') (A') (A')
                 (A") (A') (A") (A') (A") (A") (A') (A") (A') (A")
                 (A') (A") (A") (A") (A') (A') (A') (A") (A") (A')
                 (A') (A") (A') (A") (A') (A') (A") (A') (A") (A")
                 (A') (A") (A') (A') (A") (A") (A') (A") (A') (A")
                 (A") (A') (A') (A") (A') (A') (A') (A") (A") (A')
                 (A") (A') (A") (A') (A') (A") (A") (A') (A') (A")
                 (A") (A') (A') (A") (A') (A") (A') (A") (A") (A')
                 (A") (A') (A") (A') (A") (A") (A') (A') (A') (A")
                 (A') (A") (A") (A') (A') (A') (A") (A") (A") (A')
                 (A') (A") (A") (A') (A") (A') (A") (A") (A") (A')
                 (A') (A') (A") (A') (A') (A") (A") (A') (A") (A')
                 (A') (A") (A') (A') (A") (A') (A") (A") (A') (A")
                 (A') (A") (A') (A") (A') (A") (A") (A') (A") (A')
                 (A') (A") (A') (A") (A') (A") (A') (A') (A") (A')
                 (A") (A') (A") (A') (A") (A') (A') (A") (A') (A")
                 (A') (A") (A') (A") (A') (A") (A") (A") (A') (A')
                 (A") (A') (A") (A') (A") (A') (A') (A') (A") (A")
                 (A') (A") (A') (A') (A') (A") (A') (A") (A") (A')
                 (A") (A') (A") (A') (A") (A') (A") (A") (A') (A")
                 (A') (A") (A') (A') (A") (A') (A") (A') (A') (A")
                 (A") (A') (A") (A") (A') (A') (A") (A") (A') (A")
                 (A') (A") (A') (A") (A') (A') (A") (A") (A') (A')
                 (A') (A") (A') (A') (A") (A') (A") (A") (A') (A")
                 (A') (A") (A") (A') (A') (A") (A') (A") (A') (A")
                 (A') (A") (A') (A") (A') (A') (A") (A') (A") (A')
                 (A") (A") (A') (A") (A') (A") (A') (A") (A') (A")
                 (A') (A") (A') (A") (A') (A") (A") (A') (A') (A")
                 (A') (A') (A") (A') (A') (A") (A') (A") (A") (A')
                 (A') (A") (A') (A") (A') (A") (A') (A") (A') (A")
                 (A') (A') (A') (A") (A')
 The electronic state of the initial guess is 1-A'.
 Requested convergence on RMS density matrix=1.00D-08 within 128 cycles.
 Requested convergence on MAX density matrix=1.00D-06.
 Requested convergence on             energy=1.00D-06.
 No special actions if energy rises.
 Defaulting to unpruned grid for atomic number  45.
 Defaulting to unpruned grid for atomic number  45.
 Defaulting to unpruned grid for atomic number  45.
 Defaulting to unpruned grid for atomic number  45.
 Defaulting to unpruned grid for atomic number  45.
 Defaulting to unpruned grid for atomic number  45.
 Defaulting to unpruned grid for atomic number  45.
 Defaulting to unpruned grid for atomic number  45.
 Inv3:  Mode=1 IEnd=    15980592.
 Iteration    1 A*A^-1 deviation from unit magnitude is 2.89D-15 for    193.
 Iteration    1 A*A^-1 deviation from orthogonality  is 2.01D-15 for   1859   1049.
 Iteration    1 A^-1*A deviation from unit magnitude is 2.89D-15 for    193.
 Iteration    1 A^-1*A deviation from orthogonality  is 2.69D-15 for   2192    246.
 Error on total polarization charges =  0.02044
 SCF Done:  E(RwB97XD) =  -688.839915641     A.U. after   18 cycles
            NFock= 18  Conv=0.83D-08     -V/T= 2.1189

 **********************************************************************

            Population analysis using the SCF Density.

 **********************************************************************

 Orbital symmetries:
       Occupied  (A") (A') (A") (A') (A') (A") (A") (A') (A') (A")
                 (A') (A") (A') (A') (A') (A') (A") (A') (A') (A")
                 (A') (A") (A') (A") (A') (A") (A') (A') (A") (A')
                 (A") (A') (A") (A') (A") (A') (A") (A') (A") (A')
                 (A') (A") (A') (A") (A') (A") (A') (A") (A") (A')
                 (A') (A") (A') (A') (A") (A') (A") (A") (A") (A')
                 (A')
       Virtual   (A') (A') (A") (A') (A') (A") (A') (A') (A") (A')
                 (A") (A') (A') (A") (A") (A') (A") (A') (A") (A')
                 (A') (A") (A') (A') (A') (A") (A") (A') (A") (A")
                 (A') (A') (A") (A') (A') (A") (A') (A') (A") (A')
                 (A") (A") (A') (A') (A") (A') (A') (A") (A') (A')
                 (A") (A") (A") (A") (A') (A') (A") (A') (A') (A")
                 (A') (A') (A") (A') (A') (A") (A") (A') (A") (A')
                 (A') (A") (A') (A') (A') (A") (A") (A") (A') (A")
                 (A') (A") (A') (A') (A") (A') (A") (A') (A") (A')
                 (A") (A') (A') (A") (A") (A') (A") (A") (A') (A')
                 (A") (A') (A") (A') (A') (A') (A") (A") (A') (A')
                 (A") (A") (A") (A') (A') (A") (A") (A') (A') (A")
                 (A') (A") (A') (A") (A') (A") (A") (A') (A') (A")
                 (A') (A") (A') (A') (A") (A') (A") (A') (A") (A')
                 (A') (A') (A") (A") (A') (A") (A") (A') (A') (A')
                 (A") (A") (A') (A") (A') (A') (A') (A') (A") (A")
                 (A") (A') (A") (A') (A") (A') (A") (A') (A") (A')
                 (A") (A') (A") (A') (A") (A') (A') (A") (A') (A")
                 (A') (A") (A') (A") (A") (A') (A') (A") (A') (A")
                 (A') (A") (A') (A") (A') (A") (A") (A') (A") (A')
                 (A") (A') (A') (A') (A") (A") (A") (A') (A") (A')
                 (A") (A') (A") (A') (A") (A') (A") (A') (A') (A")
                 (A") (A') (A') (A') (A") (A') (A') (A') (A") (A")
                 (A') (A") (A") (A') (A') (A') (A") (A") (A') (A')
                 (A") (A") (A') (A") (A') (A') (A") (A') (A") (A')
                 (A") (A') (A") (A') (A') (A") (A") (A") (A') (A')
                 (A") (A') (A') (A') (A') (A") (A") (A") (A') (A')
                 (A') (A") (A") (A') (A") (A') (A") (A') (A') (A")
                 (A") (A') (A') (A") (A") (A') (A") (A') (A') (A")
                 (A') (A") (A') (A") (A') (A") (A') (A") (A") (A')
                 (A') (A') (A") (A") (A') (A") (A') (A") (A') (A")
                 (A') (A") (A') (A') (A") (A") (A') (A") (A') (A')
                 (A") (A') (A') (A") (A") (A") (A') (A') (A") (A')
                 (A") (A') (A") (A') (A') (A') (A") (A") (A') (A")
                 (A') (A') (A") (A") (A') (A") (A") (A') (A") (A')
                 (A') (A") (A') (A") (A') (A") (A') (A') (A") (A")
                 (A') (A") (A') (A') (A") (A') (A") (A") (A') (A')
                 (A") (A') (A') (A") (A") (A') (A") (A") (A') (A")
                 (A') (A') (A") (A') (A") (A') (A') (A') (A') (A")
                 (A") (A') (A") (A") (A') (A") (A') (A") (A') (A')
                 (A") (A') (A") (A') (A") (A') (A") (A") (A') (A")
                 (A') (A") (A") (A') (A") (A') (A') (A") (A") (A')
                 (A') (A') (A") (A") (A') (A') (A") (A') (A") (A")
                 (A') (A') (A") (A') (A") (A") (A") (A') (A') (A")
                 (A") (A') (A") (A') (A') (A') (A") (A') (A") (A")
                 (A') (A') (A") (A') (A") (A') (A") (A') (A') (A")
                 (A') (A") (A') (A") (A") (A') (A') (A") (A") (A')
                 (A") (A') (A") (A') (A") (A') (A") (A') (A') (A")
                 (A') (A") (A") (A') (A') (A") (A') (A") (A') (A")
                 (A') (A") (A") (A') (A') (A") (A") (A") (A') (A")
                 (A') (A') (A") (A') (A') (A") (A') (A") (A") (A')
                 (A") (A') (A') (A') (A") (A") (A') (A") (A") (A')
                 (A') (A") (A") (A') (A") (A') (A") (A') (A') (A")
                 (A") (A') (A') (A") (A') (A") (A') (A') (A") (A')
                 (A') (A") (A') (A") (A') (A") (A') (A") (A') (A')
                 (A") (A') (A") (A") (A') (A") (A") (A') (A") (A')
                 (A") (A') (A") (A') (A") (A') (A') (A") (A') (A")
                 (A') (A') (A") (A') (A') (A") (A') (A") (A") (A')
                 (A") (A') (A") (A') (A") (A') (A") (A") (A') (A")
                 (A') (A") (A') (A') (A") (A') (A") (A') (A') (A")
                 (A") (A') (A") (A") (A') (A') (A") (A") (A') (A")
                 (A') (A") (A') (A") (A') (A') (A") (A") (A') (A')
                 (A") (A') (A') (A') (A") (A') (A") (A") (A') (A")
                 (A') (A") (A") (A') (A') (A") (A') (A") (A') (A")
                 (A') (A") (A') (A') (A") (A') (A') (A") (A") (A')
                 (A") (A") (A') (A') (A") (A") (A') (A') (A") (A")
                 (A') (A") (A') (A") (A') (A") (A") (A') (A') (A")
                 (A') (A") (A') (A') (A') (A") (A') (A") (A") (A')
                 (A') (A") (A') (A") (A') (A") (A') (A") (A') (A")
                 (A') (A') (A') (A") (A')
 The electronic state is 1-A'.
 Alpha  occ. eigenvalues --  -14.47598 -14.47597 -10.31549 -10.31548 -10.31049
 Alpha  occ. eigenvalues --  -10.31049 -10.30759 -10.30759 -10.27751 -10.27750
 Alpha  occ. eigenvalues --  -10.27342 -10.27342 -10.27089 -10.25836  -3.24541
 Alpha  occ. eigenvalues --   -2.01094  -2.00297  -1.97873  -1.04263  -1.03952
 Alpha  occ. eigenvalues --   -0.93726  -0.86525  -0.84186  -0.80718  -0.80708
 Alpha  occ. eigenvalues --   -0.78133  -0.77525  -0.70784  -0.69953  -0.65799
 Alpha  occ. eigenvalues --   -0.65586  -0.59079  -0.57457  -0.56921  -0.56613
 Alpha  occ. eigenvalues --   -0.55959  -0.54553  -0.54448  -0.52133  -0.49625
 Alpha  occ. eigenvalues --   -0.49405  -0.48878  -0.47828  -0.47345  -0.46312
 Alpha  occ. eigenvalues --   -0.45938  -0.45372  -0.45122  -0.44821  -0.43557
 Alpha  occ. eigenvalues --   -0.42030  -0.40058  -0.39675  -0.35704  -0.35169
 Alpha  occ. eigenvalues --   -0.32843  -0.30784  -0.25913  -0.24229  -0.22745
 Alpha  occ. eigenvalues --   -0.22146
 Alpha virt. eigenvalues --    0.05583   0.05748   0.06557   0.09768   0.09925
 Alpha virt. eigenvalues --    0.10752   0.11845   0.13914   0.15232   0.15254
 Alpha virt. eigenvalues --    0.15831   0.15885   0.16550   0.17093   0.17678
 Alpha virt. eigenvalues --    0.17856   0.18007   0.18483   0.20151   0.20203
 Alpha virt. eigenvalues --    0.20807   0.21184   0.21396   0.21853   0.22261
 Alpha virt. eigenvalues --    0.22819   0.24075   0.24108   0.24489   0.25051
 Alpha virt. eigenvalues --    0.25146   0.25666   0.26084   0.26705   0.27239
 Alpha virt. eigenvalues --    0.28657   0.29191   0.30309   0.30940   0.31592
 Alpha virt. eigenvalues --    0.33233   0.33660   0.33690   0.34385   0.35235
 Alpha virt. eigenvalues --    0.35552   0.36216   0.36416   0.37403   0.37817
 Alpha virt. eigenvalues --    0.38217   0.38331   0.39669   0.39890   0.40521
 Alpha virt. eigenvalues --    0.41492   0.42063   0.42470   0.42634   0.42661
 Alpha virt. eigenvalues --    0.44608   0.44786   0.45358   0.45709   0.47185
 Alpha virt. eigenvalues --    0.47533   0.48765   0.48828   0.49182   0.49431
 Alpha virt. eigenvalues --    0.49710   0.49944   0.50485   0.50829   0.51132
 Alpha virt. eigenvalues --    0.51417   0.51423   0.52370   0.52374   0.52567
 Alpha virt. eigenvalues --    0.53051   0.53369   0.53468   0.53825   0.54638
 Alpha virt. eigenvalues --    0.55159   0.55472   0.56383   0.57675   0.58062
 Alpha virt. eigenvalues --    0.58292   0.58973   0.59028   0.59655   0.60867
 Alpha virt. eigenvalues --    0.61972   0.62827   0.63238   0.63652   0.64595
 Alpha virt. eigenvalues --    0.64830   0.66621   0.68123   0.68485   0.69192
 Alpha virt. eigenvalues --    0.69378   0.69794   0.71417   0.71983   0.73620
 Alpha virt. eigenvalues --    0.73958   0.74606   0.75712   0.75837   0.76505
 Alpha virt. eigenvalues --    0.78504   0.79807   0.80002   0.81123   0.82603
 Alpha virt. eigenvalues --    0.82749   0.83691   0.84212   0.85094   0.86217
 Alpha virt. eigenvalues --    0.86934   0.88545   0.89238   0.89884   0.92480
 Alpha virt. eigenvalues --    0.92521   0.93201   0.93730   0.94295   0.94363
 Alpha virt. eigenvalues --    0.95478   0.96122   0.96344   0.97155   0.97755
 Alpha virt. eigenvalues --    0.98799   1.00249   1.00667   1.01261   1.02459
 Alpha virt. eigenvalues --    1.02804   1.03112   1.03131   1.04146   1.05693
 Alpha virt. eigenvalues --    1.05763   1.06681   1.06829   1.07730   1.08161
 Alpha virt. eigenvalues --    1.09498   1.09820   1.10398   1.10634   1.12234
 Alpha virt. eigenvalues --    1.12639   1.12721   1.13692   1.13979   1.14279
 Alpha virt. eigenvalues --    1.14873   1.15633   1.17438   1.17760   1.19327
 Alpha virt. eigenvalues --    1.19502   1.20539   1.21802   1.22340   1.22644
 Alpha virt. eigenvalues --    1.23474   1.23591   1.24502   1.26094   1.27106
 Alpha virt. eigenvalues --    1.27200   1.28280   1.28842   1.29447   1.30542
 Alpha virt. eigenvalues --    1.30715   1.31005   1.31455   1.33306   1.33934
 Alpha virt. eigenvalues --    1.34856   1.35250   1.35712   1.36148   1.36915
 Alpha virt. eigenvalues --    1.38258   1.38832   1.39805   1.39969   1.40730
 Alpha virt. eigenvalues --    1.43285   1.43296   1.44307   1.44757   1.44942
 Alpha virt. eigenvalues --    1.46245   1.46833   1.47671   1.47816   1.48390
 Alpha virt. eigenvalues --    1.49355   1.49895   1.51217   1.51855   1.52282
 Alpha virt. eigenvalues --    1.53031   1.53383   1.53722   1.54291   1.54716
 Alpha virt. eigenvalues --    1.55451   1.55802   1.56656   1.57033   1.57425
 Alpha virt. eigenvalues --    1.58863   1.59666   1.59962   1.60305   1.60897
 Alpha virt. eigenvalues --    1.61463   1.62712   1.63951   1.64054   1.66661
 Alpha virt. eigenvalues --    1.67724   1.68072   1.68913   1.69071   1.70156
 Alpha virt. eigenvalues --    1.70186   1.71739   1.72109   1.73500   1.73989
 Alpha virt. eigenvalues --    1.75793   1.76224   1.76651   1.77191   1.79920
 Alpha virt. eigenvalues --    1.80009   1.82299   1.82850   1.84195   1.84813
 Alpha virt. eigenvalues --    1.84982   1.85229   1.87097   1.87598   1.87829
 Alpha virt. eigenvalues --    1.88529   1.89362   1.93223   1.93569   1.93861
 Alpha virt. eigenvalues --    1.94318   1.95623   1.97809   1.98853   2.00071
 Alpha virt. eigenvalues --    2.00635   2.01616   2.04694   2.05283   2.06617
 Alpha virt. eigenvalues --    2.08130   2.09182   2.10035   2.10639   2.12971
 Alpha virt. eigenvalues --    2.15439   2.17534   2.18170   2.18838   2.20943
 Alpha virt. eigenvalues --    2.21188   2.22932   2.23209   2.25022   2.26675
 Alpha virt. eigenvalues --    2.26804   2.28265   2.28694   2.30204   2.33188
 Alpha virt. eigenvalues --    2.35056   2.36607   2.37043   2.38748   2.39548
 Alpha virt. eigenvalues --    2.41767   2.43766   2.43803   2.46968   2.49379
 Alpha virt. eigenvalues --    2.51435   2.53193   2.55161   2.58294   2.59308
 Alpha virt. eigenvalues --    2.61816   2.62615   2.63549   2.65206   2.65950
 Alpha virt. eigenvalues --    2.66957   2.67188   2.68569   2.68689   2.69851
 Alpha virt. eigenvalues --    2.71698   2.72736   2.72854   2.73505   2.75667
 Alpha virt. eigenvalues --    2.76965   2.77097   2.78271   2.78679   2.79441
 Alpha virt. eigenvalues --    2.80036   2.81321   2.84461   2.84728   2.85380
 Alpha virt. eigenvalues --    2.86287   2.86733   2.87874   2.87913   2.89660
 Alpha virt. eigenvalues --    2.90138   2.90678   2.91407   2.91802   2.92343
 Alpha virt. eigenvalues --    2.93724   2.95204   2.96137   2.96654   2.97744
 Alpha virt. eigenvalues --    2.98284   2.98426   2.99509   2.99806   3.00289
 Alpha virt. eigenvalues --    3.01369   3.01433   3.02816   3.03585   3.04653
 Alpha virt. eigenvalues --    3.04934   3.06460   3.07237   3.09251   3.09615
 Alpha virt. eigenvalues --    3.09663   3.10280   3.11752   3.12507   3.13201
 Alpha virt. eigenvalues --    3.13290   3.14234   3.14712   3.15046   3.16681
 Alpha virt. eigenvalues --    3.16972   3.17192   3.18473   3.19502   3.19984
 Alpha virt. eigenvalues --    3.20004   3.21539   3.21833   3.22680   3.23587
 Alpha virt. eigenvalues --    3.24409   3.25215   3.26247   3.27093   3.27185
 Alpha virt. eigenvalues --    3.29048   3.29765   3.29958   3.30171   3.31058
 Alpha virt. eigenvalues --    3.32680   3.33146   3.33866   3.34166   3.35595
 Alpha virt. eigenvalues --    3.36321   3.37360   3.38023   3.38180   3.38847
 Alpha virt. eigenvalues --    3.40004   3.40012   3.41773   3.42417   3.43245
 Alpha virt. eigenvalues --    3.43782   3.44854   3.46317   3.46579   3.47086
 Alpha virt. eigenvalues --    3.47686   3.49453   3.50081   3.50641   3.50926
 Alpha virt. eigenvalues --    3.51274   3.52710   3.52757   3.53789   3.54413
 Alpha virt. eigenvalues --    3.56160   3.56295   3.56496   3.57085   3.57362
 Alpha virt. eigenvalues --    3.57645   3.59886   3.60046   3.60159   3.60959
 Alpha virt. eigenvalues --    3.61834   3.63527   3.63939   3.64426   3.65558
 Alpha virt. eigenvalues --    3.66386   3.66963   3.68057   3.68435   3.69838
 Alpha virt. eigenvalues --    3.70517   3.71071   3.71249   3.72158   3.73559
 Alpha virt. eigenvalues --    3.73687   3.74663   3.75588   3.76296   3.77901
 Alpha virt. eigenvalues --    3.77956   3.78195   3.78602   3.80853   3.82033
 Alpha virt. eigenvalues --    3.82950   3.82986   3.85311   3.85674   3.86222
 Alpha virt. eigenvalues --    3.86612   3.86862   3.87746   3.88918   3.89163
 Alpha virt. eigenvalues --    3.90888   3.92195   3.93115   3.94393   3.95234
 Alpha virt. eigenvalues --    3.96588   3.97048   3.97065   3.98685   3.99316
 Alpha virt. eigenvalues --    3.99803   4.00856   4.01706   4.03357   4.05606
 Alpha virt. eigenvalues --    4.06339   4.07173   4.07463   4.09560   4.09831
 Alpha virt. eigenvalues --    4.11910   4.12451   4.13431   4.13543   4.14217
 Alpha virt. eigenvalues --    4.15055   4.16609   4.17112   4.17140   4.17829
 Alpha virt. eigenvalues --    4.18156   4.18418   4.18853   4.20848   4.21094
 Alpha virt. eigenvalues --    4.21963   4.22290   4.22427   4.23611   4.24052
 Alpha virt. eigenvalues --    4.25020   4.25327   4.25981   4.26596   4.26944
 Alpha virt. eigenvalues --    4.28121   4.28842   4.29234   4.29342   4.29571
 Alpha virt. eigenvalues --    4.30617   4.31263   4.32973   4.33116   4.33134
 Alpha virt. eigenvalues --    4.34146   4.34575   4.34919   4.36056   4.36066
 Alpha virt. eigenvalues --    4.36401   4.37563   4.37975   4.38059   4.38826
 Alpha virt. eigenvalues --    4.39654   4.41430   4.42296   4.43057   4.44115
 Alpha virt. eigenvalues --    4.44885   4.45395   4.46246   4.47304   4.47357
 Alpha virt. eigenvalues --    4.48284   4.50236   4.51752   4.52813   4.53288
 Alpha virt. eigenvalues --    4.53694   4.54291   4.55856   4.56523   4.56550
 Alpha virt. eigenvalues --    4.57556   4.59154   4.61349   4.61391   4.62167
 Alpha virt. eigenvalues --    4.62587   4.66638   4.68336   4.70127   4.71595
 Alpha virt. eigenvalues --    4.72299   4.73663   4.74427   4.74550   4.76144
 Alpha virt. eigenvalues --    4.76546   4.78715   4.78872   4.79655   4.80521
 Alpha virt. eigenvalues --    4.80950   4.83411   4.83845   4.84125   4.88993
 Alpha virt. eigenvalues --    4.89036   4.89533   4.89944   4.91714   4.92195
 Alpha virt. eigenvalues --    4.93475   4.94321   4.95383   4.97258   4.98319
 Alpha virt. eigenvalues --    4.99022   5.00820   5.02659   5.05072   5.06283
 Alpha virt. eigenvalues --    5.07593   5.08855   5.09193   5.10155   5.11893
 Alpha virt. eigenvalues --    5.12414   5.13887   5.14596   5.16837   5.17671
 Alpha virt. eigenvalues --    5.18703   5.19077   5.20503   5.21991   5.22482
 Alpha virt. eigenvalues --    5.24134   5.24744   5.26360   5.27019   5.27143
 Alpha virt. eigenvalues --    5.29134   5.29417   5.30301   5.30995   5.32178
 Alpha virt. eigenvalues --    5.34126   5.34179   5.35555   5.36885   5.36958
 Alpha virt. eigenvalues --    5.37411   5.37651   5.39461   5.40156   5.40931
 Alpha virt. eigenvalues --    5.41472   5.43510   5.44867   5.45057   5.46467
 Alpha virt. eigenvalues --    5.49952   5.50373   5.52007   5.53084   5.54114
 Alpha virt. eigenvalues --    5.54941   5.57422   5.58681   5.61062   5.61182
 Alpha virt. eigenvalues --    5.64816   5.65410   5.66014   5.66656   5.67147
 Alpha virt. eigenvalues --    5.68366   5.69583   5.69780   5.73226   5.73787
 Alpha virt. eigenvalues --    5.74180   5.75594   5.76841   5.77095   5.79144
 Alpha virt. eigenvalues --    5.79738   5.80370   5.81745   5.82724   5.85802
 Alpha virt. eigenvalues --    5.88323   5.92765   5.95566   5.98643   5.99799
 Alpha virt. eigenvalues --    6.03802   6.09734   6.10354   6.11446   6.14585
 Alpha virt. eigenvalues --    6.19338   6.33634   6.34748   6.54215  22.60381
 Alpha virt. eigenvalues --   23.20257  23.21411  23.24688  23.29902  23.44649
 Alpha virt. eigenvalues --   23.54174  23.74496  23.75207  23.83872  23.84327
 Alpha virt. eigenvalues --   23.94240  31.16668  32.92590  32.95998 102.37871
          Condensed to atoms (all electrons):
               1          2          3          4          5          6
     1  C    5.698023   0.073657   0.373970  -0.135912  -0.020676  -0.037949
     2  C    0.073657   5.698023  -0.135912   0.373970  -0.020676  -0.000766
     3  C    0.373970  -0.135912   5.104406   0.031466   0.457607   0.429157
     4  C   -0.135912   0.373970   0.031466   5.104406   0.457607   0.006847
     5  C   -0.020676  -0.020676   0.457607   0.457607   4.997732  -0.038295
     6  H   -0.037949  -0.000766   0.429157   0.006847  -0.038295   0.522217
     7  H   -0.000766  -0.037949   0.006847   0.429157  -0.038295  -0.000233
     8  C    0.320493   0.026964  -0.087245  -0.008569   0.015099  -0.004544
     9  H   -0.035587   0.001314  -0.001674   0.000334  -0.000022   0.000313
    10  H   -0.064722  -0.002533   0.001605   0.000392  -0.000004   0.001310
    11  C    0.026964   0.320493  -0.008569  -0.087245   0.015099   0.000100
    12  H    0.001314  -0.035587   0.000334  -0.001674  -0.000022  -0.000000
    13  H   -0.002533  -0.064722   0.000392   0.001605  -0.000004  -0.000001
    14  N   -0.000166  -0.022770   0.010167   0.001292  -0.001270   0.000069
    15  N   -0.022770  -0.000166   0.001292   0.010167  -0.001270   0.000005
    16  C    0.008479   0.001243  -0.001056  -0.000055   0.000065  -0.000020
    17  H   -0.000850   0.000157  -0.000003  -0.000001   0.000001   0.000001
    18  H    0.001913  -0.000165   0.000200   0.000005  -0.000006   0.000007
    19  H   -0.001252  -0.000057  -0.000156   0.000000   0.000006  -0.000006
    20  C   -0.002212   0.003023  -0.001282  -0.000388   0.000229  -0.000028
    21  H   -0.004774  -0.000353   0.000141   0.000034  -0.000054  -0.000005
    22  H    0.001583  -0.000059  -0.000034  -0.000004   0.000005   0.000000
    23  H    0.015863   0.001724   0.001872  -0.000185   0.000219   0.000099
    24  C    0.001243   0.008479  -0.000055  -0.001056   0.000065   0.000000
    25  H   -0.000165   0.001913   0.000005   0.000200  -0.000006   0.000000
    26  H    0.000157  -0.000850  -0.000001  -0.000003   0.000001  -0.000000
    27  H   -0.000057  -0.001252   0.000000  -0.000156   0.000006   0.000000
    28  C    0.003023  -0.002212  -0.000388  -0.001282   0.000229  -0.000003
    29  H   -0.000059   0.001583  -0.000004  -0.000034   0.000005  -0.000000
    30  H   -0.000353  -0.004774   0.000034   0.000141  -0.000054   0.000000
    31  H    0.001724   0.015863  -0.000185   0.001872   0.000219   0.000003
    32  C    0.050506   0.050506   0.062528   0.062528  -0.111095   0.012938
    33  H    0.010472   0.010472  -0.047727  -0.047727   0.450563  -0.004505
    34  Rh  -0.156120  -0.156120   0.017587   0.017587  -0.003219  -0.001198
               7          8          9         10         11         12
     1  C   -0.000766   0.320493  -0.035587  -0.064722   0.026964   0.001314
     2  C   -0.037949   0.026964   0.001314  -0.002533   0.320493  -0.035587
     3  C    0.006847  -0.087245  -0.001674   0.001605  -0.008569   0.000334
     4  C    0.429157  -0.008569   0.000334   0.000392  -0.087245  -0.001674
     5  C   -0.038295   0.015099  -0.000022  -0.000004   0.015099  -0.000022
     6  H   -0.000233  -0.004544   0.000313   0.001310   0.000100  -0.000000
     7  H    0.522217   0.000100  -0.000000  -0.000001  -0.004544   0.000313
     8  C    0.000100   4.914658   0.427261   0.443357   0.000684  -0.000049
     9  H   -0.000000   0.427261   0.579129  -0.024682  -0.000049   0.000028
    10  H   -0.000001   0.443357  -0.024682   0.570807  -0.000006  -0.000004
    11  C   -0.004544   0.000684  -0.000049  -0.000006   4.914658   0.427261
    12  H    0.000313  -0.000049   0.000028  -0.000004   0.427261   0.579129
    13  H    0.001310  -0.000006  -0.000004   0.000000   0.443357  -0.024682
    14  N    0.000005   0.260634  -0.036831  -0.028643  -0.000835   0.000019
    15  N    0.000069  -0.000835   0.000019  -0.000014   0.260634  -0.036831
    16  C    0.000000  -0.042755  -0.004466  -0.007897  -0.000003  -0.000002
    17  H   -0.000000   0.009856   0.000786  -0.000723  -0.000001   0.000002
    18  H    0.000000  -0.012130  -0.004137   0.007655  -0.000000  -0.000000
    19  H    0.000000  -0.007424   0.002904  -0.000250  -0.000014  -0.000001
    20  C   -0.000003  -0.026994   0.007393  -0.017570   0.000274  -0.000017
    21  H    0.000000  -0.012709  -0.000525   0.009014  -0.000002  -0.000000
    22  H   -0.000000   0.007297  -0.000204  -0.000064  -0.000015   0.000002
    23  H    0.000003  -0.010643   0.000617  -0.003692   0.000159   0.000002
    24  C   -0.000020  -0.000003  -0.000002  -0.000000  -0.042755  -0.004466
    25  H    0.000007  -0.000000  -0.000000   0.000000  -0.012130  -0.004137
    26  H    0.000001  -0.000001   0.000002  -0.000000   0.009856   0.000786
    27  H   -0.000006  -0.000014  -0.000001   0.000000  -0.007424   0.002904
    28  C   -0.000028   0.000274  -0.000017   0.000009  -0.026994   0.007393
    29  H    0.000000  -0.000015   0.000002   0.000001   0.007297  -0.000204
    30  H   -0.000005  -0.000002  -0.000000   0.000000  -0.012709  -0.000525
    31  H    0.000099   0.000159   0.000002  -0.000008  -0.010643   0.000617
    32  C    0.012938  -0.119194  -0.004161   0.006350  -0.119194  -0.004161
    33  H   -0.004505  -0.000212   0.000004  -0.000010  -0.000212   0.000004
    34  Rh  -0.001198  -0.032486  -0.010291   0.012666  -0.032486  -0.010291
              13         14         15         16         17         18
     1  C   -0.002533  -0.000166  -0.022770   0.008479  -0.000850   0.001913
     2  C   -0.064722  -0.022770  -0.000166   0.001243   0.000157  -0.000165
     3  C    0.000392   0.010167   0.001292  -0.001056  -0.000003   0.000200
     4  C    0.001605   0.001292   0.010167  -0.000055  -0.000001   0.000005
     5  C   -0.000004  -0.001270  -0.001270   0.000065   0.000001  -0.000006
     6  H   -0.000001   0.000069   0.000005  -0.000020   0.000001   0.000007
     7  H    0.001310   0.000005   0.000069   0.000000  -0.000000   0.000000
     8  C   -0.000006   0.260634  -0.000835  -0.042755   0.009856  -0.012130
     9  H   -0.000004  -0.036831   0.000019  -0.004466   0.000786  -0.004137
    10  H    0.000000  -0.028643  -0.000014  -0.007897  -0.000723   0.007655
    11  C    0.443357  -0.000835   0.260634  -0.000003  -0.000001  -0.000000
    12  H   -0.024682   0.000019  -0.036831  -0.000002   0.000002  -0.000000
    13  H    0.570807  -0.000014  -0.028643  -0.000000  -0.000000   0.000000
    14  N   -0.000014   6.411012  -0.005813   0.256910  -0.031255  -0.022552
    15  N   -0.028643  -0.005813   6.411012   0.000111   0.000029  -0.000011
    16  C   -0.000000   0.256910   0.000111   4.810741   0.416887   0.405926
    17  H   -0.000000  -0.031255   0.000029   0.416887   0.561644  -0.024766
    18  H    0.000000  -0.022552  -0.000011   0.405926  -0.024766   0.570358
    19  H    0.000000  -0.036770   0.000038   0.429814  -0.018769  -0.023975
    20  C    0.000009   0.222876   0.001497  -0.038809  -0.005964  -0.014794
    21  H    0.000000  -0.027776  -0.000029  -0.009972  -0.002291   0.009528
    22  H    0.000001  -0.029971   0.000138  -0.008658   0.003164  -0.001320
    23  H   -0.000008  -0.030966  -0.000010   0.007941   0.000301  -0.000564
    24  C   -0.007897   0.000111   0.256910   0.000010  -0.000016   0.000002
    25  H    0.007655  -0.000011  -0.022552   0.000002   0.000000  -0.000000
    26  H   -0.000723   0.000029  -0.031255  -0.000016  -0.000002   0.000000
    27  H   -0.000250   0.000038  -0.036770  -0.000012   0.000001   0.000000
    28  C   -0.017570   0.001497   0.222876  -0.000040  -0.000004   0.000004
    29  H   -0.000064   0.000138  -0.029971  -0.000010  -0.000004   0.000000
    30  H    0.009014  -0.000029  -0.027776   0.000001  -0.000001   0.000000
    31  H   -0.003692  -0.000010  -0.030966  -0.000002   0.000001   0.000000
    32  C    0.006350  -0.096505  -0.096505   0.001978   0.000458  -0.000879
    33  H   -0.000010   0.000006   0.000006  -0.000001   0.000000   0.000000
    34  Rh   0.012666   0.270730   0.270730  -0.050558  -0.012038   0.014234
              19         20         21         22         23         24
     1  C   -0.001252  -0.002212  -0.004774   0.001583   0.015863   0.001243
     2  C   -0.000057   0.003023  -0.000353  -0.000059   0.001724   0.008479
     3  C   -0.000156  -0.001282   0.000141  -0.000034   0.001872  -0.000055
     4  C    0.000000  -0.000388   0.000034  -0.000004  -0.000185  -0.001056
     5  C    0.000006   0.000229  -0.000054   0.000005   0.000219   0.000065
     6  H   -0.000006  -0.000028  -0.000005   0.000000   0.000099   0.000000
     7  H    0.000000  -0.000003   0.000000  -0.000000   0.000003  -0.000020
     8  C   -0.007424  -0.026994  -0.012709   0.007297  -0.010643  -0.000003
     9  H    0.002904   0.007393  -0.000525  -0.000204   0.000617  -0.000002
    10  H   -0.000250  -0.017570   0.009014  -0.000064  -0.003692  -0.000000
    11  C   -0.000014   0.000274  -0.000002  -0.000015   0.000159  -0.042755
    12  H   -0.000001  -0.000017  -0.000000   0.000002   0.000002  -0.004466
    13  H    0.000000   0.000009   0.000000   0.000001  -0.000008  -0.007897
    14  N   -0.036770   0.222876  -0.027776  -0.029971  -0.030966   0.000111
    15  N    0.000038   0.001497  -0.000029   0.000138  -0.000010   0.256910
    16  C    0.429814  -0.038809  -0.009972  -0.008658   0.007941   0.000010
    17  H   -0.018769  -0.005964  -0.002291   0.003164   0.000301  -0.000016
    18  H   -0.023975  -0.014794   0.009528  -0.001320  -0.000564   0.000002
    19  H    0.550977   0.008212  -0.000340   0.000095  -0.000189  -0.000012
    20  C    0.008212   4.844207   0.397019   0.420796   0.428252  -0.000040
    21  H   -0.000340   0.397019   0.584923  -0.022532  -0.024406   0.000001
    22  H    0.000095   0.420796  -0.022532   0.551217  -0.018044  -0.000010
    23  H   -0.000189   0.428252  -0.024406  -0.018044   0.538452  -0.000002
    24  C   -0.000012  -0.000040   0.000001  -0.000010  -0.000002   4.810741
    25  H    0.000000   0.000004   0.000000   0.000000   0.000000   0.405926
    26  H    0.000001  -0.000004  -0.000001  -0.000004   0.000001   0.416887
    27  H   -0.000008  -0.000010   0.000000   0.000001  -0.000001   0.429814
    28  C   -0.000010  -0.001217   0.000052   0.000029  -0.000120  -0.038809
    29  H    0.000001   0.000029  -0.000009   0.000046   0.000021  -0.008658
    30  H    0.000000   0.000052   0.000000  -0.000009  -0.000023  -0.009972
    31  H   -0.000001  -0.000120  -0.000023   0.000021   0.000528   0.007941
    32  C   -0.000294  -0.004878   0.001548  -0.002076  -0.007979   0.001978
    33  H   -0.000000   0.000000  -0.000000   0.000000  -0.000003  -0.000001
    34  Rh  -0.005049  -0.049976   0.016788  -0.003658  -0.018543  -0.050558
              25         26         27         28         29         30
     1  C   -0.000165   0.000157  -0.000057   0.003023  -0.000059  -0.000353
     2  C    0.001913  -0.000850  -0.001252  -0.002212   0.001583  -0.004774
     3  C    0.000005  -0.000001   0.000000  -0.000388  -0.000004   0.000034
     4  C    0.000200  -0.000003  -0.000156  -0.001282  -0.000034   0.000141
     5  C   -0.000006   0.000001   0.000006   0.000229   0.000005  -0.000054
     6  H    0.000000  -0.000000   0.000000  -0.000003  -0.000000   0.000000
     7  H    0.000007   0.000001  -0.000006  -0.000028   0.000000  -0.000005
     8  C   -0.000000  -0.000001  -0.000014   0.000274  -0.000015  -0.000002
     9  H   -0.000000   0.000002  -0.000001  -0.000017   0.000002  -0.000000
    10  H    0.000000  -0.000000   0.000000   0.000009   0.000001   0.000000
    11  C   -0.012130   0.009856  -0.007424  -0.026994   0.007297  -0.012709
    12  H   -0.004137   0.000786   0.002904   0.007393  -0.000204  -0.000525
    13  H    0.007655  -0.000723  -0.000250  -0.017570  -0.000064   0.009014
    14  N   -0.000011   0.000029   0.000038   0.001497   0.000138  -0.000029
    15  N   -0.022552  -0.031255  -0.036770   0.222876  -0.029971  -0.027776
    16  C    0.000002  -0.000016  -0.000012  -0.000040  -0.000010   0.000001
    17  H    0.000000  -0.000002   0.000001  -0.000004  -0.000004  -0.000001
    18  H   -0.000000   0.000000   0.000000   0.000004   0.000000   0.000000
    19  H    0.000000   0.000001  -0.000008  -0.000010   0.000001   0.000000
    20  C    0.000004  -0.000004  -0.000010  -0.001217   0.000029   0.000052
    21  H    0.000000  -0.000001   0.000000   0.000052  -0.000009   0.000000
    22  H    0.000000  -0.000004   0.000001   0.000029   0.000046  -0.000009
    23  H    0.000000   0.000001  -0.000001  -0.000120   0.000021  -0.000023
    24  C    0.405926   0.416887   0.429814  -0.038809  -0.008658  -0.009972
    25  H    0.570358  -0.024766  -0.023975  -0.014794  -0.001320   0.009528
    26  H   -0.024766   0.561644  -0.018769  -0.005964   0.003164  -0.002291
    27  H   -0.023975  -0.018769   0.550977   0.008212   0.000095  -0.000340
    28  C   -0.014794  -0.005964   0.008212   4.844207   0.420796   0.397019
    29  H   -0.001320   0.003164   0.000095   0.420796   0.551217  -0.022532
    30  H    0.009528  -0.002291  -0.000340   0.397019  -0.022532   0.584923
    31  H   -0.000564   0.000301  -0.000189   0.428252  -0.018044  -0.024406
    32  C   -0.000879   0.000458  -0.000294  -0.004878  -0.002076   0.001548
    33  H    0.000000   0.000000  -0.000000   0.000000   0.000000  -0.000000
    34  Rh   0.014234  -0.012038  -0.005049  -0.049976  -0.003658   0.016788
              31         32         33         34
     1  C    0.001724   0.050506   0.010472  -0.156120
     2  C    0.015863   0.050506   0.010472  -0.156120
     3  C   -0.000185   0.062528  -0.047727   0.017587
     4  C    0.001872   0.062528  -0.047727   0.017587
     5  C    0.000219  -0.111095   0.450563  -0.003219
     6  H    0.000003   0.012938  -0.004505  -0.001198
     7  H    0.000099   0.012938  -0.004505  -0.001198
     8  C    0.000159  -0.119194  -0.000212  -0.032486
     9  H    0.000002  -0.004161   0.000004  -0.010291
    10  H   -0.000008   0.006350  -0.000010   0.012666
[...]
 95,0.00015026,0.00004959,-0.00007283,0.00000611,-0.00002699,0.00016595
 ,-0.03281539,-0.01563569,-0.00585564,-0.00002208,0.00000726,0.00001280
 ,0.00000734,0.00000064,0.00000522,0.00000913,-0.00000655,0.00000702,0.
 00000201,-0.00000413,0.00000256,-0.00000671,-0.00002551,-0.00002902,0.
 00000531,-0.00000457,0.00000060,0.00000016,0.00001565,0.00000195,0.000
 00486,0.00000138,0.00000048,-0.00221945,0.00115061,0.00014910,0.000214
 55,-0.00011166,-0.00005917,0.00075818,-0.00050157,-0.00021216,0.000115
 38,0.00028714,0.00025514,-0.07260106,-0.07496265,-0.02119970,0.0889971
 6,0.08845486,-0.00010477,0.00000605,0.00007414,-0.00030482,-0.00026086
 ,0.00016448,0.00006318,0.00001527,0.00001827,-0.00002320,0.00005832,-0
 .00003363,-0.00003554,0.00001289,-0.00003724,-0.00000443,0.00000133,0.
 00000279,-0.00000609,-0.00000456,-0.00000376,0.00002571,0.00000186,-0.
 00000258,0.00000300,-0.00000911,-0.00000133,-0.00001496,0.00000081,0.0
 0000769,-0.00081054,0.00156752,0.00034779,0.00055638,0.00020421,0.0004
 4263,0.00038976,-0.00009757,0.00039162,-0.00011832,-0.00008410,0.00005
 306,0.00991703,0.00447174,0.00113317,-0.00000938,0.00001027,-0.0000087
 9,-0.00000276,-0.00000098,-0.00000653,0.00000021,0.00000477,0.00001638
 ,-0.00000009,0.00000379,-0.00000074,0.00002125,-0.00002010,-0.00003464
 ,-0.00000506,-0.00000395,0.00001292,-0.00000219,-0.00000195,-0.0000225
 9,0.00000478,0.00000243,-0.00000562,-0.00021004,-0.00036648,-0.0001872
 8,-0.00020560,0.00014712,-0.00003608,0.00008291,-0.00039190,0.00011758
 ,0.00013263,0.00004913,-0.00009594,-0.06554433,-0.02398899,-0.06580796
 ,0.06866630,0.02128538,0.06644435,0.00026514,-0.00007246,-0.00014216,-
 0.00039898,0.00001893,0.00034241,-0.00015125,-0.00000604,-0.00010359,0
 .00016986,-0.00001674,-0.00009097,0.00003041,0.00000870,0.00015340,0.0
 0001322,0.00001543,-0.00000582,-0.00001007,-0.00002195,-0.00000157,-0.
 00001424,-0.00000555,0.00003709,-0.00000264,0.00000197,0.00000451,0.00
 000405,-0.00000415,-0.00001392,0.00144372,-0.00064225,0.00237768,0.000
 02256,0.00011539,-0.00004058,-0.00017277,0.00002331,-0.00033708,-0.000
 10744,-0.00004816,-0.00005457,0.00004566,-0.00003711,0.00236761,0.0000
 1814,-0.00003264,0.00000782,-0.00000024,-0.00000495,-0.00000133,-0.000
 00299,0.00001022,-0.00001329,0.00000538,0.00000818,0.00000396,-0.00000
 910,0.00003579,-0.00002496,0.00000883,-0.00001476,-0.00001182,-0.00000
 086,0.00000531,0.00000506,0.00000374,-0.00000022,-0.00000069,0.0001451
 8,0.00031350,-0.00116665,0.00000102,0.00015680,0.00005605,-0.00009563,
 -0.00011989,-0.00013909,-0.00007664,-0.00006262,0.00017784,-0.05731756
 ,0.00323603,-0.03499727,-0.00226537,0.00305930,-0.02817453,0.05306762,
 -0.00014909,0.00001305,0.00007105,-0.00033575,0.00013666,-0.00014731,0
 .00011981,-0.00002304,0.00005267,-0.00015008,0.00002116,0.00006627,-0.
 00003887,0.00000676,-0.00012425,-0.00000683,-0.00000967,0.00000611,-0.
 00001990,0.00001046,0.00000113,0.00013687,0.00005305,-0.00002503,-0.00
 000871,-0.00000641,-0.00000221,-0.00001832,0.00000009,0.00001460,0.003
 59476,0.00060705,0.00215609,0.00010671,0.00024746,-0.00018103,-0.00056
 779,0.00046239,-0.00082556,0.00012072,0.00064756,0.00036617,0.00381016
 ,-0.01774297,0.03710633,-0.00008640,0.00008880,-0.00006967,0.00000856,
 0.00000184,0.00000156,0.00000551,-0.00001864,0.00003373,0.00000032,-0.
 00001727,-0.00001856,-0.00004089,-0.00010333,0.00020766,-0.00001476,0.
 00007717,0.00006318,0.00000091,-0.00000457,0.00000395,-0.00000342,0.00
 000026,0.00000367,-0.00131633,0.00185010,0.00383197,-0.00020488,0.0001
 4614,-0.00136113,0.00008205,-0.00010625,-0.00027974,-0.00014998,0.0002
 7520,-0.00046061,0.00266383,-0.05200723,0.01790107,-0.00026389,0.00172
 479,-0.00984463,-0.00299677,0.06250267,0.00035181,-0.00003987,0.000022
 04,0.00027954,-0.00001585,0.00032329,-0.00008086,-0.00004470,-0.000096
 70,-0.00012921,-0.00004524,-0.00000258,0.00019414,-0.00002213,-0.00001
 378,0.00005022,-0.00000382,-0.00002886,0.00005448,0.00000785,0.0000320
 8,-0.00012047,-0.00001811,0.00011647,-0.00002388,0.00002007,0.00001731
 ,0.00002919,-0.00001803,-0.00005307,-0.00095141,-0.00117399,0.00073042
 ,0.00025541,-0.00011278,0.00035556,0.00107079,0.00043052,0.00020553,-0
 .00020106,-0.00021375,-0.00018494,-0.00098234,0.00893280,-0.01142524,0
 .00011993,-0.00008588,0.00004709,-0.00001423,-0.00000238,0.00001046,-0
 .00000951,0.00000298,-0.00008639,0.00000217,-0.00001643,0.00002952,0.0
 0002939,0.00016124,-0.00007563,0.00001182,-0.00006318,-0.00005581,-0.0
 0001544,-0.00000060,0.00001292,0.00000597,-0.00000244,0.00002042,0.000
 93277,-0.00140783,0.00220118,-0.00087285,0.00080569,0.00036293,-0.0000
 9569,0.00004463,-0.00018464,-0.00000833,-0.00006671,0.00040074,-0.0343
 6813,0.02119334,-0.28501993,-0.00005148,0.00002313,-0.00647701,0.03866
 316,-0.03205337,0.31282479,-0.00006780,0.00000609,0.00000109,-0.000003
 20,-0.00013898,0.00018132,0.00006790,0.00002864,-0.00001916,0.00003498
 ,0.00012287,-0.00010654,-0.00006867,-0.00002208,-0.00001256,-0.0000028
 8,0.00002299,-0.00000171,-0.00000758,-0.00001753,-0.00000582,0.0000137
 5,-0.00002497,-0.00003166,0.00000732,-0.00001090,-0.00001370,-0.000008
 25,0.00000388,-0.00000147,0.00017619,-0.00080548,-0.00074347,0.0001075
 4,0.00016174,0.00002309,0.00008230,-0.00011619,-0.00004935,-0.00001399
 ,-0.00010280,-0.00003588,0.00236230,-0.00252855,-0.00231116,-0.0000067
 4,-0.00002019,0.00000595,0.00000092,0.00000061,0.00000039,0.00000285,0
 .00001189,0.00001226,0.00000120,0.00001321,-0.00000043,-0.00000388,0.0
 0000263,-0.00004364,0.00000374,-0.00000342,-0.00000597,-0.00000450,0.0
 0000486,-0.00000478,0.00000713,0.00000853,-0.00002428,0.00044259,-0.00
 051472,-0.00046985,-0.00006087,0.00000465,0.00014036,0.00046833,-0.000
 08072,0.00000346,0.00041122,-0.00002256,0.00023585,-0.18283556,0.09973
 091,0.09787478,-0.01729410,0.01483852,0.01497425,0.00474313,-0.0040251
 0,-0.00392818,0.19106041,-0.00030261,-0.00001137,0.00019132,-0.0004150
 8,0.00003624,0.00023716,0.00027945,-0.00003702,0.00008429,-0.00037806,
 0.00004533,0.00016579,-0.00000837,-0.00001512,-0.00030410,0.00000660,0
 .00000300,-0.00001000,0.00000227,0.00000428,0.00001462,0.00004038,0.00
 002799,0.00001742,-0.00001268,-0.00000048,-0.00000659,-0.00001376,-0.0
 0000767,-0.00001040,0.00150611,0.00064062,-0.00055034,0.00014940,0.000
 21004,-0.00004195,-0.00024060,-0.00008392,-0.00018938,-0.00001334,0.00
 004346,0.00015604,0.02491725,-0.02234295,-0.01643969,-0.00001676,0.000
 01413,-0.00000022,-0.00000124,0.00000456,0.00000347,0.00000734,-0.0000
 1573,-0.00000595,0.00000095,-0.00001772,0.00000077,-0.00001202,-0.0000
 1894,-0.00000664,-0.00000022,0.00000026,0.00000244,-0.00000168,0.00000
 138,-0.00000243,0.00000853,0.00000769,-0.00000081,-0.00232838,-0.00592
 357,0.00272953,-0.00012435,0.00005473,-0.00008739,0.00006299,0.0002764
 2,0.00018607,0.00128830,-0.00119358,-0.00110604,0.09125802,-0.11775372
 ,-0.06852632,-0.00709748,0.00674046,0.00620322,-0.00295727,0.00281126,
 0.00146413,-0.10592290,0.13704581,-0.00005205,-0.00003732,0.00003080,0
 .00001602,0.00020348,0.00024098,0.00002826,-0.00001102,-0.00000822,-0.
 00001506,-0.00003340,-0.00004502,-0.00003218,0.00001849,0.00000945,-0.
 00000475,-0.00000567,-0.00000075,-0.00002002,-0.00000679,-0.00000851,0
 .00002993,0.00001129,0.00000047,-0.00000350,0.00000008,0.00000591,-0.0
 0000521,0.00000450,0.00000577,0.00028413,-0.00035426,0.00036561,-0.000
 12388,0.00006434,-0.00014963,0.00008175,0.00002361,-0.00042619,0.00002
 485,0.00000006,0.00014087,-0.00803328,0.00550361,0.00453805,-0.0000261
 3,0.00001925,0.00000058,0.00000033,0.00000172,0.00000284,0.00000780,-0
 .00000718,0.00001442,-0.00000049,-0.00000983,0.00000328,-0.00001544,-0
 .00000368,0.00000208,0.00000069,-0.00000367,0.00002042,-0.00000625,-0.
 00000048,-0.00000562,0.00002428,0.00000081,-0.00000827,0.00023262,0.00
 081789,0.00038059,-0.00010799,0.00036961,0.00051054,0.00017435,0.00008
 245,-0.00015268,0.00002783,0.00035644,0.00047097,0.10001529,-0.0750408
 9,-0.12132350,-0.00652174,0.00536165,0.00436297,0.02099963,-0.01505292
 ,-0.01378306,-0.10623325,0.07640372,0.12634017,-0.14930307,0.00105863,
 0.09033996,-0.14930307,0.00105861,-0.09033999,-0.03210703,0.00134042,0
 .03170975,-0.03210701,0.00134042,-0.03170976,0.00873360,-0.00174797,0.
 ,-0.00565676,0.00114485,-0.00094067,-0.00565675,0.00114485,0.00094069,
 0.01634023,0.00254979,-0.01310961,-0.00263539,0.00064024,-0.00237510,-
 0.00297597,0.00033220,-0.00264671,0.01634019,0.00254981,0.01310963,-0.
 00263539,0.00064024,0.00237510,-0.00297597,0.00033220,0.00264671,0.000
 18283,-0.00012436,-0.00221483,0.00018285,-0.00012437,0.00221482,-0.001
 14586,0.00019567,0.00046404,-0.00030719,0.00013216,-0.00038089,0.00019
 284,-0.00012578,0.00085987,0.00015936,0.00009471,-0.00022339,-0.000266
 06,-0.00120211,-0.00055783,-0.00036218,0.00033521,0.00061163,-0.000167
 34,-0.00044066,-0.00023852,0.00017778,0.00028230,-0.00022783,-0.001145
 84,0.00019567,-0.00046404,0.00019285,-0.00012578,-0.00085986,-0.000307
 20,0.00013217,0.00038090,0.00015936,0.00009471,0.00022338,-0.00026605,
 -0.00120208,0.00055785,-0.00016735,-0.00044067,0.00023851,-0.00036218,
 0.00033521,-0.00061163,0.00017779,0.00028229,0.00022782,0.51865087,0.0
 0249468,-0.06423272,0.00138465,0.00249464,-0.06423269,-0.00138461,0.00
 270941,0.01190413,-0.00102361,0.00270941,0.01190411,0.00102363,0.00016
 962,-0.00746961,0.,0.00068143,0.00742040,0.00010547,0.00068142,0.00742
 041,-0.00010549,-0.00289984,0.00319949,0.00551025,0.00023937,0.0002968
 9,-0.00009343,0.00072707,0.00030483,-0.00028072,-0.00289982,0.00319946
 ,-0.00551027,0.00023936,0.00029690,0.00009342,0.00072706,0.00030484,0.
 00028071,-0.00022170,0.00090201,-0.00004996,-0.00022173,0.00090204,0.0
 0004988,0.00046993,-0.00036522,0.00009351,-0.00000844,-0.00016077,0.00
 004869,-0.00010554,0.00017722,0.00013240,0.00011532,0.00034057,0.00001
 398,-0.00034620,-0.00103446,-0.00055693,0.00030342,0.00020587,-0.00034
 609,0.00040696,0.00031334,0.00012612,-0.00034303,-0.00019126,-0.000015
 92,0.00046992,-0.00036523,-0.00009354,-0.00010555,0.00017723,-0.000132
 40,-0.00000844,-0.00016078,-0.00004869,0.00011534,0.00034056,-0.000013
 97,-0.00034622,-0.00103446,0.00055693,0.00040698,0.00031334,-0.0001261
 2,0.00030342,0.00020585,0.00034611,-0.00034303,-0.00019126,0.00001592,
 -0.00442836,0.10455770,0.06381298,0.00823103,-0.26390614,-0.06381306,-
 0.00823101,-0.26390620,0.07721427,-0.00282587,0.03547340,-0.07721426,0
 .00282586,0.03547339,0.00000001,0.,-0.07411943,-0.00087163,-0.00100549
 ,0.00154424,0.00087164,0.00100549,0.00154423,0.00753336,0.00105686,-0.
 03655651,0.00045827,-0.00037651,-0.00099835,-0.00315464,0.00010695,-0.
 00423419,-0.00753338,-0.00105676,-0.03655651,-0.00045827,0.00037647,-0
 .00099834,0.00315463,-0.00010696,-0.00423419,-0.00789797,-0.00113198,-
 0.00290706,0.00789800,0.00113197,-0.00290710,0.00057307,-0.00051432,-0
 .00058580,0.00029542,-0.00006616,0.00015696,0.00040703,0.00023052,-0.0
 0065501,-0.00000272,-0.00010413,-0.00000057,-0.00037416,-0.00003635,-0
 .00004073,0.00034468,0.00027127,-0.00019823,0.00012962,0.00007485,0.00
 001177,-0.00017208,0.00004064,-0.00021208,-0.00057311,0.00051434,-0.00
 058585,-0.00040703,-0.00023052,-0.00065500,-0.00029538,0.00006617,0.00
 015698,0.00000271,0.00010410,-0.00000057,0.00037409,0.00003634,-0.0000
 4072,-0.00012960,-0.00007484,0.00001179,-0.00034468,-0.00027127,-0.000
 19822,0.00017212,-0.00004066,-0.00021210,0.00000021,-0.00000002,0.6536
 2903,0.00046668,0.00058368,-0.00308710,0.00046668,0.00058368,0.0030871
 0,-0.01118306,0.00088092,0.00341813,-0.01118306,0.00088092,-0.00341813
 ,-0.33832667,0.02297415,0.,0.00082982,-0.00037854,-0.00036592,0.000829
 82,-0.00037854,0.00036592,-0.00028449,-0.00001522,0.00057895,-0.000082
 82,0.00004160,-0.00007817,-0.00001537,-0.00003524,-0.00005790,-0.00028
 449,-0.00001522,-0.00057894,-0.00008282,0.00004160,0.00007817,-0.00001
 537,-0.00003524,0.00005790,-0.00021709,0.00008844,-0.00024445,-0.00021
 709,0.00008844,0.00024445,-0.00003221,-0.00012505,0.00007671,-0.000045
 66,0.00001420,-0.00001717,0.00000786,0.00000107,-0.00003253,0.00000641
 ,-0.00000163,0.00000002,-0.00002578,0.00009714,0.00002847,0.00000629,-
 0.00000649,-0.00003366,-0.00001726,-0.00001878,-0.00000014,0.00001032,
 0.00001541,-0.00000051,-0.00003221,-0.00012504,-0.00007671,0.00000786,
 0.00000107,0.00003253,-0.00004567,0.00001420,0.00001717,0.00000640,-0.
 00000163,-0.00000002,-0.00002578,0.00009714,-0.00002847,-0.00001726,-0
 .00001878,0.00000014,0.00000629,-0.00000649,0.00003366,0.00001032,0.00
 001541,0.00000051,0.00088084,-0.00011262,0.,0.35870689,0.00025641,0.00
 640800,0.00052877,0.00025641,0.00640800,-0.00052876,0.00128230,0.00197
 670,-0.00013255,0.00128230,0.00197670,0.00013255,0.02277005,-0.0337552
 1,0.,-0.00035831,-0.00420806,-0.00014735,-0.00035831,-0.00420806,0.000
 14735,-0.00007950,0.00072944,-0.00001886,-0.00000823,0.00001067,-0.000
 08551,0.00004974,-0.00003016,0.00002145,-0.00007950,0.00072944,0.00001
 886,-0.00000823,0.00001067,0.00008551,0.00004974,-0.00003017,-0.000021
 45,0.00021129,-0.00009039,0.00009235,0.00021129,-0.00009039,-0.0000923
 5,0.00001497,0.00002142,-0.00000044,0.00000436,-0.00000946,0.00000262,
 0.00000352,-0.00000041,0.00001399,-0.00000492,0.00000457,0.00000117,0.
 00000516,-0.00002072,-0.00003180,0.,-0.00000211,-0.00000779,-0.0000014
 6,0.00000852,0.00000698,-0.00001207,0.00000008,-0.00000775,0.00001497,
 0.00002142,0.00000044,0.00000352,-0.00000041,-0.00001400,0.00000436,-0
 .00000946,-0.00000262,-0.00000492,0.00000457,-0.00000117,0.00000516,-0
 .00002072,0.00003180,-0.00000146,0.00000852,-0.00000698,0.,-0.00000211
 ,0.00000779,-0.00001207,0.00000008,0.00000775,-0.00037493,-0.00171731,
 0.,-0.02510994,0.02606539,-0.00231175,0.00054942,-0.00460014,0.0023117
 5,-0.00054942,-0.00460014,-0.02828005,0.00199502,0.00432502,0.02828005
 ,-0.00199502,0.00432502,0.,0.,-0.05932102,0.00060175,-0.00014268,0.001
 07468,-0.00060175,0.00014268,0.00107468,-0.00079962,-0.00012421,0.0006
 5796,-0.00002959,0.00005278,-0.00005145,-0.00000206,-0.00003949,-0.000
 02422,0.00079962,0.00012422,0.00065796,0.00002959,-0.00005278,-0.00005
 145,0.00000206,0.00003949,-0.00002422,-0.00034641,0.00013612,-0.000274
 69,0.00034641,-0.00013612,-0.00027469,-0.00009084,-0.00011901,0.000064
 98,-0.00005539,0.00001761,-0.00002468,0.00000770,0.00000052,-0.0000072
 0,0.00000947,0.00000163,-0.00000187,-0.00002329,0.00007148,0.00002681,
 -0.00000045,-0.00000216,-0.00000774,-0.00001698,-0.00002275,-0.0000055
 2,0.00001237,0.00000881,-0.00000352,0.00009084,0.00011901,0.00006498,-
 0.00000770,-0.00000052,-0.00000720,0.00005539,-0.00001761,-0.00002468,
 -0.00000947,-0.00000163,-0.00000187,0.00002329,-0.00007149,0.00002680,
 0.00001698,0.00002275,-0.00000552,0.00000045,0.00000216,-0.00000774,-0
 .00001237,-0.00000881,-0.00000352,0.,0.,-0.00124627,0.,0.,0.05830349,-
 0.02574745,-0.00002200,0.02042663,-0.02574745,-0.00002201,-0.02042657,
 0.00605736,0.00000984,0.00055045,0.00605739,0.00000983,-0.00055048,-0.
 00685121,0.00038961,0.00000002,-0.00004326,0.00004463,0.00036054,-0.00
 004327,0.00004463,-0.00036055,-0.00726418,-0.00091014,0.00828840,0.001
 19832,0.00010139,0.00066061,-0.00166226,-0.00045922,0.00005478,-0.0072
 6416,-0.00091014,-0.00828840,0.00119832,0.00010138,-0.00066062,-0.0016
 6226,-0.00045921,-0.00005478,-0.03154077,-0.00124028,-0.00425801,-0.03
 154076,-0.00124028,0.00425809,0.00250614,-0.00134686,-0.00683729,0.000
 40001,-0.00020063,-0.00048803,-0.00067716,0.00124702,-0.00249254,-0.00
 005418,0.00004487,0.00001176,0.00042263,0.00184886,0.00071921,0.000993
 96,-0.00058115,-0.00038025,0.00031575,0.00014936,-0.00050058,0.0001961
 5,0.00002152,0.00097486,0.00250611,-0.00134687,0.00683728,-0.00067715,
 0.00124702,0.00249253,0.00040003,-0.00020063,0.00048803,-0.00005416,0.
 00004488,-0.00001175,0.00042263,0.00184884,-0.00071924,0.00031577,0.00
 014937,0.00050060,0.00099396,-0.00058114,0.00038024,0.00019613,0.00002
 153,-0.00097485,-0.17251776,-0.00407427,-0.00000017,-0.00010830,-0.000
 01170,0.,0.28927506,0.00002456,0.00667848,0.00036961,0.00002462,0.0066
 7847,-0.00036966,0.00016595,0.00198964,-0.00001061,0.00016594,0.001989
 66,0.00001060,0.00003925,-0.00031497,0.,-0.00000385,-0.00033883,0.0000
 4250,-0.00000385,-0.00033884,-0.00004249,-0.00051038,-0.00026128,0.002
 94009,0.00044512,0.00017746,0.00021164,-0.00121751,0.00021314,0.000272
 90,-0.00051040,-0.00026127,-0.00294007,0.00044513,0.00017745,-0.000211
 63,-0.00121750,0.00021313,-0.00027290,-0.00117265,-0.02925586,0.001408
 45,-0.00117263,-0.02925588,-0.00140836,-0.00124195,0.00042958,0.006034
 40,0.00019402,0.00017088,-0.00007580,0.00116566,-0.00023082,0.00137853
 ,-0.00027131,0.00010214,0.00057856,0.00279580,-0.00227962,-0.01107639,
 -0.00026873,-0.00184829,-0.00196680,-0.00006057,-0.00053272,-0.0011621
 9,-0.00024983,-0.00035468,-0.00130044,-0.00124194,0.00042959,-0.006034
 37,0.00116566,-0.00023082,-0.00137853,0.00019403,0.00017090,0.00007580
 ,-0.00027132,0.00010214,-0.00057856,0.00279580,-0.00227962,0.01107638,
 -0.00006058,-0.00053273,0.00116218,-0.00026872,-0.00184828,0.00196678,
 -0.00024984,-0.00035467,0.00130044,-0.00587524,-0.01353139,-0.00000001
 ,-0.00003464,-0.00018906,0.,0.00628191,0.06471697,0.01591424,0.0000527
 1,0.00009846,-0.01591414,-0.00005274,0.00009856,-0.00027292,-0.0000691
 5,-0.00446136,0.00027289,0.00006918,-0.00446136,-0.00000002,-0.0000000
 3,0.00162720,0.00078686,-0.00014308,0.00012303,-0.00078686,0.00014307,
 0.00012304,0.01339167,0.00263172,-0.00698695,-0.00057315,-0.00072977,0
 .00034634,-0.00063889,0.00016020,0.00034152,-0.01339164,-0.00263182,-0
 .00698695,0.00057315,0.00072981,0.00034634,0.00063889,-0.00016019,0.00
 034152,0.01090013,-0.00103371,-0.03222648,-0.01090016,0.00103374,-0.03
 222639,-0.00364114,0.00466245,-0.00694176,0.00008407,-0.00049573,0.000
 08408,0.00037412,-0.00121888,0.00147488,0.00057606,-0.00091702,-0.0001
 0417,0.00082941,-0.00968069,-0.00735063,-0.00046787,0.00117210,-0.0000
 1917,0.00049338,-0.00001742,-0.00083436,-0.00043033,0.00052228,-0.0013
 1974,0.00364120,-0.00466247,-0.00694173,-0.00037413,0.00121888,0.00147
 486,-0.00008411,0.00049573,0.00008407,-0.00057605,0.00091704,-0.000104
 16,-0.00082934,0.00968068,-0.00735063,-0.00049341,0.00001741,-0.000834
 39,0.00046787,-0.00117209,-0.00001917,0.00043030,-0.00052226,-0.001319
 71,-0.00000030,0.00000010,-0.03204661,0.,0.,-0.00003302,0.00000016,-0.
 00000006,0.14600477\\0.00001358,0.00000296,0.00001118,0.00001358,0.000
 00296,-0.00001118,-0.00000809,0.00000924,-0.00000973,-0.00000809,0.000
 00924,0.00000973,0.00000498,-0.00000934,0.,0.00000014,0.00000183,0.000
 00663,0.00000014,0.00000183,-0.00000663,0.00001136,0.00000878,-0.00003
 025,0.00000058,-0.00000774,0.00000779,-0.00000343,0.00000508,0.0000105
 1,0.00001136,0.00000878,0.00003025,0.00000058,-0.00000774,-0.00000779,
 -0.00000343,0.00000508,-0.00001051,-0.00003323,-0.00001623,0.00007167,
 -0.00003323,-0.00001623,-0.00007167,-0.00000195,-0.00000165,-0.0000290
 4,0.00000268,0.00000103,-0.00000010,-0.00000044,0.00000240,0.00001190,
 -0.00000497,-0.00000603,-0.00000121,0.00000203,-0.00000823,-0.00004202
 ,-0.00000017,0.00000281,0.00001741,0.00000533,-0.00000066,0.00000175,-
 0.00000161,0.00000143,0.00000044,-0.00000195,-0.00000165,0.00002904,-0
 .00000044,0.00000240,-0.00001190,0.00000268,0.00000103,0.00000010,-0.0
 0000497,-0.00000603,0.00000121,0.00000203,-0.00000823,0.00004202,0.000
 00533,-0.00000066,-0.00000175,-0.00000017,0.00000281,-0.00001741,-0.00
 000161,0.00000143,-0.00000044,0.00000893,0.00001072,0.,-0.00000396,0.0
 0000524,0.,0.00002644,0.00000336,0.\\\@
 The archive entry for this job was punched.


 TO BEHOLD HARMS OF OUR OWN HANDS DOING,
 WHERE NONE BESIDE US WROUGHT,
 CAUSES SHARP RUING...

                                         SOPHOCLES
 Job cpu time:       1 days 14 hours 45 minutes 46.2 seconds.
 Elapsed time:       0 days  5 hours  4 minutes 16.4 seconds.
 File lengths (MBytes):  RWF=   1282 Int=      0 D2E=      0 Chk=     56 Scr=      1
 Normal termination of Gaussian 16 at Thu Mar  7 21:26:21 2024.
