 Entering Gaussian System, Link 0=/cm/shared/apps//g16/g16
 Input=YRhMeH_sigma.gjf
 Output=YRhMeH_sigma.log
 Initial command:
 /cm/shared/apps//g16/l1.exe "/local/mvanvleet/pbs.14060.josephine/Gau-294783.inp" -scrdir="/local/mvanvleet/pbs.14060.josephine/"
 Entering Link 1 = /cm/shared/apps//g16/l1.exe PID=    294785.
  
 Copyright (c) 1988-2019, Gaussian, Inc.  All Rights Reserved.
  
 This is part of the Gaussian(R) 16 program.  It is based on
 the Gaussian(R) 09 system (copyright 2009, Gaussian, Inc.),
 the Gaussian(R) 03 system (copyright 2003, Gaussian, Inc.),
 the Gaussian(R) 98 system (copyright 1998, Gaussian, Inc.),
 the Gaussian(R) 94 system (copyright 1995, Gaussian, Inc.),
 the Gaussian 92(TM) system (copyright 1992, Gaussian, Inc.),
 the Gaussian 90(TM) system (copyright 1990, Gaussian, Inc.),
 the Gaussian 88(TM) system (copyright 1988, Gaussian, Inc.),
 the Gaussian 86(TM) system (copyright 1986, Carnegie Mellon
 University), and the Gaussian 82(TM) system (copyright 1983,
 Carnegie Mellon University). Gaussian is a federally registered
 trademark of Gaussian, Inc.
  
 This software contains proprietary and confidential information,
 including trade secrets, belonging to Gaussian, Inc.
  
 This software is provided under written license and may be
 used, copied, transmitted, or stored only in accord with that
 written license.
  
 The following legend is applicable only to US Government
 contracts under FAR:
  
                    RESTRICTED RIGHTS LEGEND
  
 Use, reproduction and disclosure by the US Government is
 subject to restrictions as set forth in subparagraphs (a)
 and (c) of the Commercial Computer Software - Restricted
 Rights clause in FAR 52.227-19.
  
 Gaussian, Inc.
 340 Quinnipiac St., Bldg. 40, Wallingford CT 06492
  
  
 ---------------------------------------------------------------
 Warning -- This program may not be used in any manner that
 competes with the business of Gaussian, Inc. or will provide
 assistance to any competitor of Gaussian, Inc.  The licensee
 of this program is prohibited from giving any competitor of
 Gaussian, Inc. access to this program.  By using this program,
 the user acknowledges that Gaussian, Inc. is engaged in the
 business of creating and licensing software in the field of
 computational chemistry and represents and warrants to the
 licensee that it is not a competitor of Gaussian, Inc. and that
 it will not use this program in any manner prohibited above.
 ---------------------------------------------------------------
  

 Cite this work as:
 Gaussian 16, Revision C.01,
 M. J. Frisch, G. W. Trucks, H. B. Schlegel, G. E. Scuseria, 
 M. A. Robb, J. R. Cheeseman, G. Scalmani, V. Barone, 
 G. A. Petersson, H. Nakatsuji, X. Li, M. Caricato, A. V. Marenich, 
 J. Bloino, B. G. Janesko, R. Gomperts, B. Mennucci, H. P. Hratchian, 
 J. V. Ortiz, A. F. Izmaylov, J. L. Sonnenberg, D. Williams-Young, 
 F. Ding, F. Lipparini, F. Egidi, J. Goings, B. Peng, A. Petrone, 
 T. Henderson, D. Ranasinghe, V. G. Zakrzewski, J. Gao, N. Rega, 
 G. Zheng, W. Liang, M. Hada, M. Ehara, K. Toyota, R. Fukuda, 
 J. Hasegawa, M. Ishida, T. Nakajima, Y. Honda, O. Kitao, H. Nakai, 
 T. Vreven, K. Throssell, J. A. Montgomery, Jr., J. E. Peralta, 
 F. Ogliaro, M. J. Bearpark, J. J. Heyd, E. N. Brothers, K. N. Kudin, 
 V. N. Staroverov, T. A. Keith, R. Kobayashi, J. Normand, 
 K. Raghavachari, A. P. Rendell, J. C. Burant, S. S. Iyengar, 
 J. Tomasi, M. Cossi, J. M. Millam, M. Klene, C. Adamo, R. Cammi, 
 J. W. Ochterski, R. L. Martin, K. Morokuma, O. Farkas, 
 J. B. Foresman, and D. J. Fox, Gaussian, Inc., Wallingford CT, 2019.
 
 ******************************************
 Gaussian 16:  ES64L-G16RevC.01  3-Jul-2019
                 7-Mar-2024 
 ******************************************
 %nprocshared=8
 Will use up to    8 processors via shared memory.
 %chk=YRhMeH_sigma.chk
 %mem=1GB
 ----------------------------------------------------------
 # wb97xd def2TZVPP SCRF=(solvent=dichloromethane) opt freq
 ----------------------------------------------------------
 1/18=20,19=15,26=3,38=1/1,3;
 2/9=110,12=2,17=6,18=5,40=1/2;
 3/5=44,7=202,11=2,25=1,30=1,70=2201,71=1,72=9,74=-58/1,2,3;
 4//1;
 5/5=2,38=5,53=9/2;
 6/7=2,8=2,9=2,10=2,28=1/1;
 7//1,2,3,16;
 1/18=20,19=15,26=3/3(2);
 2/9=110/2;
 99//99;
 2/9=110/2;
 3/5=44,7=202,11=2,25=1,30=1,70=2205,71=1,72=9,74=-58/1,2,3;
 4/5=5,16=3,69=1/1;
 5/5=2,38=5,53=9/2;
 7//1,2,3,16;
 1/18=20,19=15,26=3/3(-5);
 2/9=110/2;
 6/7=2,8=2,9=2,10=2,19=2,28=1/1;
 99/9=1/99;
 ------------
 YRhMeH_sigma
 ------------
 Symbolic Z-matrix:
 Charge =  0 Multiplicity = 1
 C                     1.78576   1.22246  -0.13017 
 C                     1.7857   -1.22254  -0.13017 
 C                     3.17733   1.22213   0.00962 
 C                     3.17727  -1.22228   0.00962 
 C                     3.86793  -0.00009   0.10486 
 H                     3.73731   2.16595   0.03176 
 H                     3.73721  -2.16612   0.03175 
 C                     0.90033   2.40671  -0.42998 
 H                     0.83762   2.54961  -1.52621 
 H                     1.24006   3.36896   0.01627 
 C                     0.90022  -2.40674  -0.42999 
 H                     0.8375   -2.54965  -1.52621 
 H                     1.2399   -3.36902   0.01626 
 N                    -0.50143   2.10654   0.03052 
 N                    -0.50153  -2.10651   0.03052 
 C                    -3.54183   0.00005   0.03019 
 H                    -2.88545   0.00009   0.92635 
 H                    -4.17249   0.90016   0.04787 
 H                    -4.17245  -0.90009   0.04791 
 C                    -1.45362   2.95991  -0.70261 
 H                    -2.46823   2.78271  -0.30817 
 H                    -1.20077   4.03691  -0.57458 
 H                    -1.42713   2.69491  -1.7708 
 C                    -0.59184   2.42658   1.47463 
 H                    -0.43506   3.5186    1.63328 
 H                    -1.5874    2.14003   1.8509 
 H                     0.1776    1.85479   2.01478 
 C                    -1.45376  -2.95983  -0.7026 
 H                    -1.20097  -4.03685  -0.57457 
 H                    -2.46836  -2.78258  -0.30816 
 H                    -1.42726  -2.69485  -1.7708 
 C                    -0.59195  -2.42654   1.47463 
 H                    -1.5875   -2.13995   1.8509 
 H                    -0.43522  -3.51858   1.63328 
 H                     0.17752  -1.85479   2.01478 
 H                    -2.94102   0.00005  -0.90775 
 H                     4.95462  -0.00011   0.22932 
 C                     1.08013  -0.00002  -0.14776 
 Rh                   -0.79465   0.00002  -0.13527 
 
 Add virtual bond connecting atoms Rh39       and H17        Dist= 4.43D+00.
 Add virtual bond connecting atoms Rh39       and H36        Dist= 4.31D+00.

 GradGradGradGradGradGradGradGradGradGradGradGradGradGradGradGradGradGrad
 Berny optimization.
 Initialization pass.
                           ----------------------------
                           !    Initial Parameters    !
                           ! (Angstroms and Degrees)  !
 --------------------------                            --------------------------
 ! Name  Definition              Value          Derivative Info.                !
 --------------------------------------------------------------------------------
 ! R1    R(1,3)                  1.3986         estimate D2E/DX2                !
 ! R2    R(1,8)                  1.5087         estimate D2E/DX2                !
 ! R3    R(1,38)                 1.4116         estimate D2E/DX2                !
 ! R4    R(2,4)                  1.3986         estimate D2E/DX2                !
 ! R5    R(2,11)                 1.5087         estimate D2E/DX2                !
 ! R6    R(2,38)                 1.4116         estimate D2E/DX2                !
 ! R7    R(3,5)                  1.4071         estimate D2E/DX2                !
 ! R8    R(3,6)                  1.0977         estimate D2E/DX2                !
 ! R9    R(4,5)                  1.4071         estimate D2E/DX2                !
 ! R10   R(4,7)                  1.0977         estimate D2E/DX2                !
 ! R11   R(5,37)                 1.0938         estimate D2E/DX2                !
 ! R12   R(8,9)                  1.1073         estimate D2E/DX2                !
 ! R13   R(8,10)                 1.1138         estimate D2E/DX2                !
 ! R14   R(8,14)                 1.5057         estimate D2E/DX2                !
 ! R15   R(11,12)                1.1073         estimate D2E/DX2                !
 ! R16   R(11,13)                1.1138         estimate D2E/DX2                !
 ! R17   R(11,15)                1.5057         estimate D2E/DX2                !
 ! R18   R(14,20)                1.4739         estimate D2E/DX2                !
 ! R19   R(14,24)                1.4819         estimate D2E/DX2                !
 ! R20   R(14,39)                2.1333         estimate D2E/DX2                !
 ! R21   R(15,28)                1.4739         estimate D2E/DX2                !
 ! R22   R(15,32)                1.4819         estimate D2E/DX2                !
 ! R23   R(15,39)                2.1333         estimate D2E/DX2                !
 ! R24   R(16,17)                1.1108         estimate D2E/DX2                !
 ! R25   R(16,18)                1.0992         estimate D2E/DX2                !
 ! R26   R(16,19)                1.0992         estimate D2E/DX2                !
 ! R27   R(16,36)                1.1139         estimate D2E/DX2                !
 ! R28   R(17,39)                2.3449         estimate D2E/DX2                !
 ! R29   R(20,21)                1.1029         estimate D2E/DX2                !
 ! R30   R(20,22)                1.1137         estimate D2E/DX2                !
 ! R31   R(20,23)                1.1009         estimate D2E/DX2                !
 ! R32   R(24,25)                1.1146         estimate D2E/DX2                !
 ! R33   R(24,26)                1.1022         estimate D2E/DX2                !
 ! R34   R(24,27)                1.1003         estimate D2E/DX2                !
 ! R35   R(28,29)                1.1137         estimate D2E/DX2                !
 ! R36   R(28,30)                1.1029         estimate D2E/DX2                !
 ! R37   R(28,31)                1.1009         estimate D2E/DX2                !
 ! R38   R(32,33)                1.1022         estimate D2E/DX2                !
 ! R39   R(32,34)                1.1146         estimate D2E/DX2                !
 ! R40   R(32,35)                1.1003         estimate D2E/DX2                !
 ! R41   R(36,39)                2.2811         estimate D2E/DX2                !
 ! R42   R(38,39)                1.8748         estimate D2E/DX2                !
 ! A1    A(3,1,8)              127.1549         estimate D2E/DX2                !
 ! A2    A(3,1,38)             119.8948         estimate D2E/DX2                !
 ! A3    A(8,1,38)             112.5766         estimate D2E/DX2                !
 ! A4    A(4,2,11)             127.1547         estimate D2E/DX2                !
 ! A5    A(4,2,38)             119.8948         estimate D2E/DX2                !
 ! A6    A(11,2,38)            112.5767         estimate D2E/DX2                !
 ! A7    A(1,3,5)              119.691          estimate D2E/DX2                !
 ! A8    A(1,3,6)              120.6249         estimate D2E/DX2                !
 ! A9    A(5,3,6)              119.6786         estimate D2E/DX2                !
 ! A10   A(2,4,5)              119.6909         estimate D2E/DX2                !
 ! A11   A(2,4,7)              120.6254         estimate D2E/DX2                !
 ! A12   A(5,4,7)              119.6783         estimate D2E/DX2                !
 ! A13   A(3,5,4)              120.5977         estimate D2E/DX2                !
 ! A14   A(3,5,37)             119.6922         estimate D2E/DX2                !
 ! A15   A(4,5,37)             119.6928         estimate D2E/DX2                !
 ! A16   A(1,8,9)              109.3456         estimate D2E/DX2                !
 ! A17   A(1,8,10)             114.8038         estimate D2E/DX2                !
 ! A18   A(1,8,14)             109.2143         estimate D2E/DX2                !
 ! A19   A(9,8,10)             107.6045         estimate D2E/DX2                !
 ! A20   A(9,8,14)             106.0091         estimate D2E/DX2                !
 ! A21   A(10,8,14)            109.4917         estimate D2E/DX2                !
 ! A22   A(2,11,12)            109.3468         estimate D2E/DX2                !
 ! A23   A(2,11,13)            114.8041         estimate D2E/DX2                !
 ! A24   A(2,11,15)            109.2142         estimate D2E/DX2                !
 ! A25   A(12,11,13)           107.6036         estimate D2E/DX2                !
 ! A26   A(12,11,15)           106.0094         estimate D2E/DX2                !
 ! A27   A(13,11,15)           109.491          estimate D2E/DX2                !
 ! A28   A(8,14,20)            109.505          estimate D2E/DX2                !
 ! A29   A(8,14,24)            108.1667         estimate D2E/DX2                !
 ! A30   A(8,14,39)            107.5207         estimate D2E/DX2                !
 ! A31   A(20,14,24)           108.679          estimate D2E/DX2                !
 ! A32   A(20,14,39)           116.3766         estimate D2E/DX2                !
 ! A33   A(24,14,39)           106.2962         estimate D2E/DX2                !
 ! A34   A(11,15,28)           109.5053         estimate D2E/DX2                !
 ! A35   A(11,15,32)           108.167          estimate D2E/DX2                !
 ! A36   A(11,15,39)           107.5204         estimate D2E/DX2                !
 ! A37   A(28,15,32)           108.679          estimate D2E/DX2                !
 ! A38   A(28,15,39)           116.3766         estimate D2E/DX2                !
 ! A39   A(32,15,39)           106.296          estimate D2E/DX2                !
 ! A40   A(17,16,18)           109.0271         estimate D2E/DX2                !
 ! A41   A(17,16,19)           109.0276         estimate D2E/DX2                !
 ! A42   A(17,16,36)           111.1375         estimate D2E/DX2                !
 ! A43   A(18,16,19)           109.9476         estimate D2E/DX2                !
 ! A44   A(18,16,36)           108.8454         estimate D2E/DX2                !
 ! A45   A(19,16,36)           108.846          estimate D2E/DX2                !
 ! A46   A(16,17,39)            99.3009         estimate D2E/DX2                !
 ! A47   A(14,20,21)           108.8685         estimate D2E/DX2                !
 ! A48   A(14,20,22)           110.8587         estimate D2E/DX2                !
 ! A49   A(14,20,23)           109.1303         estimate D2E/DX2                !
 ! A50   A(21,20,22)           108.8521         estimate D2E/DX2                !
 ! A51   A(21,20,23)           109.2975         estimate D2E/DX2                !
 ! A52   A(22,20,23)           109.8083         estimate D2E/DX2                !
 ! A53   A(14,24,25)           109.9821         estimate D2E/DX2                !
 ! A54   A(14,24,26)           109.3681         estimate D2E/DX2                !
 ! A55   A(14,24,27)           108.8738         estimate D2E/DX2                !
 ! A56   A(25,24,26)           109.4622         estimate D2E/DX2                !
 ! A57   A(25,24,27)           109.9317         estimate D2E/DX2                !
 ! A58   A(26,24,27)           109.2045         estimate D2E/DX2                !
 ! A59   A(15,28,29)           110.8591         estimate D2E/DX2                !
 ! A60   A(15,28,30)           108.8686         estimate D2E/DX2                !
 ! A61   A(15,28,31)           109.1309         estimate D2E/DX2                !
 ! A62   A(29,28,30)           108.8517         estimate D2E/DX2                !
 ! A63   A(29,28,31)           109.8073         estimate D2E/DX2                !
 ! A64   A(30,28,31)           109.2977         estimate D2E/DX2                !
 ! A65   A(15,32,33)           109.368          estimate D2E/DX2                !
 ! A66   A(15,32,34)           109.9818         estimate D2E/DX2                !
 ! A67   A(15,32,35)           108.8742         estimate D2E/DX2                !
 ! A68   A(33,32,34)           109.4619         estimate D2E/DX2                !
 ! A69   A(33,32,35)           109.205          estimate D2E/DX2                !
 ! A70   A(34,32,35)           109.9315         estimate D2E/DX2                !
 ! A71   A(16,36,39)           102.8483         estimate D2E/DX2                !
 ! A72   A(1,38,2)             119.9994         estimate D2E/DX2                !
 ! A73   A(1,38,39)            119.984          estimate D2E/DX2                !
 ! A74   A(2,38,39)            119.9836         estimate D2E/DX2                !
 ! A75   A(14,39,15)           161.8323         estimate D2E/DX2                !
 ! A76   A(14,39,17)            95.0107         estimate D2E/DX2                !
 ! A77   A(14,39,36)            98.9536         estimate D2E/DX2                !
 ! A78   A(14,39,38)            82.131          estimate D2E/DX2                !
 ! A79   A(15,39,17)            95.0117         estimate D2E/DX2                !
 ! A80   A(15,39,36)            98.9525         estimate D2E/DX2                !
 ! A81   A(15,39,38)            82.1313         estimate D2E/DX2                !
 ! A82   A(17,39,36)            46.7134         estimate D2E/DX2                !
 ! A83   A(17,39,38)           153.4622         estimate D2E/DX2                !
 ! A84   A(36,39,38)           159.8245         estimate D2E/DX2                !
 ! D1    D(8,1,3,5)           -171.1581         estimate D2E/DX2                !
 ! D2    D(8,1,3,6)              7.9891         estimate D2E/DX2                !
 ! D3    D(38,1,3,5)             1.2769         estimate D2E/DX2                !
 ! D4    D(38,1,3,6)          -179.5759         estimate D2E/DX2                !
 ! D5    D(3,1,8,9)             86.5892         estimate D2E/DX2                !
 ! D6    D(3,1,8,10)           -34.4332         estimate D2E/DX2                !
 ! D7    D(3,1,8,14)          -157.8227         estimate D2E/DX2                !
 ! D8    D(38,1,8,9)           -86.3106         estimate D2E/DX2                !
 ! D9    D(38,1,8,10)          152.6671         estimate D2E/DX2                !
 ! D10   D(38,1,8,14)           29.2775         estimate D2E/DX2                !
 ! D11   D(3,1,38,2)            -4.9712         estimate D2E/DX2                !
 ! D12   D(3,1,38,39)          172.9394         estimate D2E/DX2                !
 ! D13   D(8,1,38,2)           168.504          estimate D2E/DX2                !
 ! D14   D(8,1,38,39)          -13.5855         estimate D2E/DX2                !
 ! D15   D(11,2,4,5)           171.1575         estimate D2E/DX2                !
 ! D16   D(11,2,4,7)            -7.989          estimate D2E/DX2                !
 ! D17   D(38,2,4,5)            -1.2769         estimate D2E/DX2                !
 ! D18   D(38,2,4,7)           179.5766         estimate D2E/DX2                !
 ! D19   D(4,2,11,12)          -86.5886         estimate D2E/DX2                !
 ! D20   D(4,2,11,13)           34.4336         estimate D2E/DX2                !
 ! D21   D(4,2,11,15)          157.8225         estimate D2E/DX2                !
 ! D22   D(38,2,11,12)          86.3106         estimate D2E/DX2                !
 ! D23   D(38,2,11,13)        -152.6671         estimate D2E/DX2                !
 ! D24   D(38,2,11,15)         -29.2783         estimate D2E/DX2                !
 ! D25   D(4,2,38,1)             4.9712         estimate D2E/DX2                !
 ! D26   D(4,2,38,39)         -172.9394         estimate D2E/DX2                !
 ! D27   D(11,2,38,1)         -168.5035         estimate D2E/DX2                !
 ! D28   D(11,2,38,39)          13.586          estimate D2E/DX2                !
 ! D29   D(1,3,5,4)              2.4352         estimate D2E/DX2                !
 ! D30   D(1,3,5,37)          -179.0821         estimate D2E/DX2                !
 ! D31   D(6,3,5,4)           -176.7201         estimate D2E/DX2                !
 ! D32   D(6,3,5,37)             1.7626         estimate D2E/DX2                !
 ! D33   D(2,4,5,3)             -2.4352         estimate D2E/DX2                !
 ! D34   D(2,4,5,37)           179.0821         estimate D2E/DX2                !
 ! D35   D(7,4,5,3)            176.7194         estimate D2E/DX2                !
 ! D36   D(7,4,5,37)            -1.7633         estimate D2E/DX2                !
 ! D37   D(1,8,14,20)         -157.5343         estimate D2E/DX2                !
 ! D38   D(1,8,14,24)           84.183          estimate D2E/DX2                !
 ! D39   D(1,8,14,39)          -30.2283         estimate D2E/DX2                !
 ! D40   D(9,8,14,20)          -39.8269         estimate D2E/DX2                !
 ! D41   D(9,8,14,24)         -158.1095         estimate D2E/DX2                !
 ! D42   D(9,8,14,39)           87.4791         estimate D2E/DX2                !
 ! D43   D(10,8,14,20)          75.9796         estimate D2E/DX2                !
 ! D44   D(10,8,14,24)         -42.3031         estimate D2E/DX2                !
 ! D45   D(10,8,14,39)        -156.7144         estimate D2E/DX2                !
 ! D46   D(2,11,15,28)         157.5349         estimate D2E/DX2                !
 ! D47   D(2,11,15,32)         -84.1821         estimate D2E/DX2                !
 ! D48   D(2,11,15,39)          30.229          estimate D2E/DX2                !
 ! D49   D(12,11,15,28)         39.826          estimate D2E/DX2                !
 ! D50   D(12,11,15,32)        158.109          estimate D2E/DX2                !
 ! D51   D(12,11,15,39)        -87.4799         estimate D2E/DX2                !
 ! D52   D(13,11,15,28)        -75.9791         estimate D2E/DX2                !
 ! D53   D(13,11,15,32)         42.3039         estimate D2E/DX2                !
 ! D54   D(13,11,15,39)        156.7149         estimate D2E/DX2                !
 ! D55   D(8,14,20,21)        -176.0778         estimate D2E/DX2                !
 ! D56   D(8,14,20,22)         -56.3653         estimate D2E/DX2                !
 ! D57   D(8,14,20,23)          64.6997         estimate D2E/DX2                !
 ! D58   D(24,14,20,21)        -58.1144         estimate D2E/DX2                !
 ! D59   D(24,14,20,22)         61.5981         estimate D2E/DX2                !
 ! D60   D(24,14,20,23)       -177.3369         estimate D2E/DX2                !
 ! D61   D(39,14,20,21)         61.7715         estimate D2E/DX2                !
 ! D62   D(39,14,20,22)       -178.516          estimate D2E/DX2                !
 ! D63   D(39,14,20,23)        -57.451          estimate D2E/DX2                !
 ! D64   D(8,14,24,25)          64.1537         estimate D2E/DX2                !
 ! D65   D(8,14,24,26)        -175.6067         estimate D2E/DX2                !
 ! D66   D(8,14,24,27)         -56.3541         estimate D2E/DX2                !
 ! D67   D(20,14,24,25)        -54.6546         estimate D2E/DX2                !
 ! D68   D(20,14,24,26)         65.585          estimate D2E/DX2                !
 ! D69   D(20,14,24,27)       -175.1623         estimate D2E/DX2                !
 ! D70   D(39,14,24,25)        179.3701         estimate D2E/DX2                !
 ! D71   D(39,14,24,26)        -60.3903         estimate D2E/DX2                !
 ! D72   D(39,14,24,27)         58.8623         estimate D2E/DX2                !
 ! D73   D(8,14,39,15)          49.4409         estimate D2E/DX2                !
 ! D74   D(8,14,39,17)         172.7005         estimate D2E/DX2                !
 ! D75   D(8,14,39,36)        -140.3745         estimate D2E/DX2                !
 ! D76   D(8,14,39,38)          19.2574         estimate D2E/DX2                !
 ! D77   D(20,14,39,15)        172.6279         estimate D2E/DX2                !
 ! D78   D(20,14,39,17)        -64.1125         estimate D2E/DX2                !
 ! D79   D(20,14,39,36)        -17.1875         estimate D2E/DX2                !
 ! D80   D(20,14,39,38)        142.4444         estimate D2E/DX2                !
 ! D81   D(24,14,39,15)        -66.2127         estimate D2E/DX2                !
 ! D82   D(24,14,39,17)         57.0468         estimate D2E/DX2                !
 ! D83   D(24,14,39,36)        103.9718         estimate D2E/DX2                !
 ! D84   D(24,14,39,38)        -96.3963         estimate D2E/DX2                !
 ! D85   D(11,15,28,29)         56.3659         estimate D2E/DX2                !
 ! D86   D(11,15,28,30)        176.0783         estimate D2E/DX2                !
 ! D87   D(11,15,28,31)        -64.6985         estimate D2E/DX2                !
 ! D88   D(32,15,28,29)        -61.598          estimate D2E/DX2                !
 ! D89   D(32,15,28,30)         58.1145         estimate D2E/DX2                !
 ! D90   D(32,15,28,31)        177.3376         estimate D2E/DX2                !
 ! D91   D(39,15,28,29)        178.5163         estimate D2E/DX2                !
 ! D92   D(39,15,28,30)        -61.7712         estimate D2E/DX2                !
 ! D93   D(39,15,28,31)         57.4519         estimate D2E/DX2                !
 ! D94   D(11,15,32,33)        175.607          estimate D2E/DX2                !
 ! D95   D(11,15,32,34)        -64.1541         estimate D2E/DX2                !
 ! D96   D(11,15,32,35)         56.3535         estimate D2E/DX2                !
 ! D97   D(28,15,32,33)        -65.5843         estimate D2E/DX2                !
 ! D98   D(28,15,32,34)         54.6546         estimate D2E/DX2                !
 ! D99   D(28,15,32,35)        175.1622         estimate D2E/DX2                !
 ! D100  D(39,15,32,33)         60.3909         estimate D2E/DX2                !
 ! D101  D(39,15,32,34)       -179.3702         estimate D2E/DX2                !
 ! D102  D(39,15,32,35)        -58.8625         estimate D2E/DX2                !
 ! D103  D(11,15,39,14)        -49.4412         estimate D2E/DX2                !
 ! D104  D(11,15,39,17)       -172.7007         estimate D2E/DX2                !
 ! D105  D(11,15,39,36)        140.3742         estimate D2E/DX2                !
 ! D106  D(11,15,39,38)        -19.2577         estimate D2E/DX2                !
 ! D107  D(28,15,39,14)       -172.6282         estimate D2E/DX2                !
 ! D108  D(28,15,39,17)         64.1123         estimate D2E/DX2                !
 ! D109  D(28,15,39,36)         17.1872         estimate D2E/DX2                !
 ! D110  D(28,15,39,38)       -142.4447         estimate D2E/DX2                !
 ! D111  D(32,15,39,14)         66.2125         estimate D2E/DX2                !
 ! D112  D(32,15,39,17)        -57.0469         estimate D2E/DX2                !
 ! D113  D(32,15,39,36)       -103.9721         estimate D2E/DX2                !
 ! D114  D(32,15,39,38)         96.396          estimate D2E/DX2                !
 ! D115  D(18,16,17,39)       -119.9804         estimate D2E/DX2                !
 ! D116  D(19,16,17,39)        119.9757         estimate D2E/DX2                !
 ! D117  D(36,16,17,39)         -0.0029         estimate D2E/DX2                !
 ! D118  D(17,16,36,39)          0.003          estimate D2E/DX2                !
 ! D119  D(18,16,36,39)        120.0883         estimate D2E/DX2                !
 ! D120  D(19,16,36,39)       -120.0833         estimate D2E/DX2                !
 ! D121  D(16,17,39,14)         97.5892         estimate D2E/DX2                !
 ! D122  D(16,17,39,15)        -97.5833         estimate D2E/DX2                !
 ! D123  D(16,17,39,36)          0.0018         estimate D2E/DX2                !
 ! D124  D(16,17,39,38)       -179.9983         estimate D2E/DX2                !
 ! D125  D(16,36,39,14)        -88.4584         estimate D2E/DX2                !
 ! D126  D(16,36,39,15)         88.4571         estimate D2E/DX2                !
 ! D127  D(16,36,39,17)         -0.0018         estimate D2E/DX2                !
 ! D128  D(16,36,39,38)        179.9983         estimate D2E/DX2                !
 ! D129  D(1,38,39,14)          -3.5082         estimate D2E/DX2                !
 ! D130  D(1,38,39,15)        -174.4026         estimate D2E/DX2                !
 ! D131  D(1,38,39,17)         -88.954          estimate D2E/DX2                !
 ! D132  D(1,38,39,36)          91.0457         estimate D2E/DX2                !
 ! D133  D(2,38,39,14)         174.4027         estimate D2E/DX2                !
 ! D134  D(2,38,39,15)           3.5082         estimate D2E/DX2                !
 ! D135  D(2,38,39,17)          88.9568         estimate D2E/DX2                !
 ! D136  D(2,38,39,36)         -91.0434         estimate D2E/DX2                !
 --------------------------------------------------------------------------------
 Trust Radius=3.00D-01 FncErr=1.00D-07 GrdErr=1.00D-06 EigMax=2.50D+02 EigMin=1.00D-04
 Number of steps in this run=    234 maximum allowed number of steps=    234.
 GradGradGradGradGradGradGradGradGradGradGradGradGradGradGradGradGradGrad

                          Input orientation:                          
 ---------------------------------------------------------------------
 Center     Atomic      Atomic             Coordinates (Angstroms)
 Number     Number       Type             X           Y           Z
 ---------------------------------------------------------------------
      1          6           0        1.785760    1.222460   -0.130170
      2          6           0        1.785700   -1.222540   -0.130170
      3          6           0        3.177330    1.222130    0.009620
      4          6           0        3.177270   -1.222280    0.009620
      5          6           0        3.867930   -0.000090    0.104860
      6          1           0        3.737310    2.165950    0.031760
      7          1           0        3.737210   -2.166120    0.031750
      8          6           0        0.900330    2.406710   -0.429980
      9          1           0        0.837620    2.549610   -1.526210
     10          1           0        1.240060    3.368960    0.016270
     11          6           0        0.900220   -2.406740   -0.429990
     12          1           0        0.837500   -2.549650   -1.526210
     13          1           0        1.239900   -3.369020    0.016260
     14          7           0       -0.501430    2.106540    0.030520
     15          7           0       -0.501530   -2.106510    0.030520
     16          6           0       -3.541830    0.000050    0.030190
     17          1           0       -2.885450    0.000090    0.926350
     18          1           0       -4.172490    0.900160    0.047870
     19          1           0       -4.172450   -0.900090    0.047910
     20          6           0       -1.453620    2.959910   -0.702610
     21          1           0       -2.468230    2.782710   -0.308170
     22          1           0       -1.200770    4.036910   -0.574580
     23          1           0       -1.427130    2.694910   -1.770800
     24          6           0       -0.591840    2.426580    1.474630
     25          1           0       -0.435060    3.518600    1.633280
     26          1           0       -1.587400    2.140030    1.850900
     27          1           0        0.177600    1.854790    2.014780
     28          6           0       -1.453760   -2.959830   -0.702600
     29          1           0       -1.200970   -4.036850   -0.574570
     30          1           0       -2.468360   -2.782580   -0.308160
     31          1           0       -1.427260   -2.694850   -1.770800
     32          6           0       -0.591950   -2.426540    1.474630
     33          1           0       -1.587500   -2.139950    1.850900
     34          1           0       -0.435220   -3.518580    1.633280
     35          1           0        0.177520   -1.854790    2.014780
     36          1           0       -2.941020    0.000050   -0.907750
     37          1           0        4.954620   -0.000110    0.229320
     38          6           0        1.080130   -0.000020   -0.147760
     39         45           0       -0.794650    0.000020   -0.135270
 ---------------------------------------------------------------------
                    Distance matrix (angstroms):
                    1          2          3          4          5
     1  C    0.000000
     2  C    2.445000   0.000000
     3  C    1.398574   2.816485   0.000000
     4  C    2.816486   1.398574   2.444410   0.000000
     5  C    2.425964   2.425965   1.407061   1.407064   0.000000
     6  H    2.173693   3.913677   1.097663   3.434274   2.171206
     7  H    3.913675   2.173696   3.434268   1.097660   2.171202
     8  C    1.508748   3.747696   2.604075   4.306654   3.858159
     9  H    2.146910   4.132420   3.097615   4.696796   4.283006
    10  H    2.219616   4.626126   2.891702   4.983203   4.273646
    11  C    3.747688   1.508740   4.306644   2.604066   3.858151
    12  H    4.132425   2.146912   4.696797   3.097613   4.283007
    13  H    4.626132   2.219621   4.983206   2.891702   4.273650
    14  N    2.457368   4.042222   3.783635   4.961281   4.851260
    15  N    4.042222   2.457366   4.961279   3.783632   4.851259
    16  C    5.468383   5.468365   6.829423   6.829408   7.410136
    17  H    4.942735   4.942742   6.252286   6.252292   6.803160
    18  H    5.969616   6.327526   7.356968   7.650176   8.090862
    19  H    6.327495   5.969526   7.650134   7.356878   8.090794
    20  C    3.720215   5.321068   4.997284   6.280376   6.142679
    21  H    4.534589   5.845480   5.865897   6.929113   6.932640
    22  H    4.127710   6.064513   5.237560   6.867867   6.515422
    23  H    3.896465   5.325444   5.151701   6.301966   6.230472
    24  C    3.110992   4.641568   4.219431   5.446708   5.258759
    25  H    3.648843   5.524485   4.578145   6.177471   5.764804
    26  H    4.018057   5.158422   5.189943   6.115351   6.114687
    27  H    2.754420   4.081269   3.663237   4.742051   4.550485
    28  C    5.321063   3.720209   6.280370   4.997277   6.142673
    29  H    6.064519   4.127715   6.867872   5.237563   6.515428
    30  H    5.845474   4.534582   6.929105   5.865889   6.932633
    31  H    5.325456   3.896470   6.301974   5.151704   6.230479
    32  C    4.641561   3.110984   5.446698   4.219421   5.258751
    33  H    5.158422   4.018054   6.115349   5.189939   6.114685
    34  H    5.524488   3.648841   6.177469   4.578138   5.764802
    35  H    4.081264   2.754413   4.742042   3.663227   4.550476
    36  H    4.943821   4.943808   6.306287   6.306277   6.883835
    37  H    3.415492   3.415497   2.168156   2.168165   1.093794
    38  C    1.411623   1.411628   2.432420   2.432424   2.799222
    39  Rh   2.855329   2.855326   4.158265   4.158264   4.668759
                    6          7          8          9         10
     6  H    0.000000
     7  H    4.332070   0.000000
     8  C    2.884376   5.401098   0.000000
     9  H    3.314011   5.750910   1.107282   0.000000
    10  H    2.771954   6.072323   1.113769   1.792355   0.000000
    11  C    5.401091   2.884374   4.813450   5.076517   5.802874
    12  H    5.750917   3.314009   5.076532   5.099260   6.129539
    13  H    6.072330   2.771961   5.802887   6.129537   6.737980
    14  N    4.239157   6.018446   1.505687   2.100660   2.150975
    15  N    6.018445   4.239159   4.748308   5.088829   5.745791
    16  C    7.594538   7.594519   5.073121   5.301153   5.849463
    17  H    7.025111   7.025126   4.686532   5.135791   5.403458
    18  H    8.010457   8.483259   5.313336   5.504509   5.949090
    19  H    8.483228   8.010357   6.074241   6.283238   6.893552
    20  C    5.302398   7.332134   2.433400   2.469098   2.817805
    21  H    6.245372   7.944429   3.391668   3.530807   3.768337
    22  H    5.315334   7.951658   2.663284   2.696793   2.598637
    23  H    5.495495   7.317732   2.701468   2.282549   3.280528
    24  C    4.570705   6.474216   2.419609   3.326189   2.524035
    25  H    4.669390   7.231098   2.697519   3.541332   2.333054
    26  H    5.626942   7.085457   3.385607   4.177721   3.587571
    27  H    4.086652   5.724592   2.608411   3.668380   2.723155
    28  C    7.332129   5.302397   5.866499   6.023511   6.915708
    29  H    7.951665   5.315343   6.779073   6.960095   7.820086
    30  H    7.944422   6.245371   6.188024   6.391041   7.190207
    31  H    7.317744   5.495497   5.765534   5.717855   6.861341
    32  C    6.474205   4.570705   5.405067   5.984211   6.250672
    33  H    7.085453   5.626947   5.662493   6.267220   6.458255
    34  H    7.231096   4.669392   6.414811   6.958838   7.270453
    35  H    5.724581   4.086652   4.965852   5.689735   5.693031
    36  H    7.083353   7.083340   4.558097   4.600094   5.448376
    37  H    2.492527   2.492533   4.760749   5.150985   5.019360
    38  C    3.432821   3.432825   2.429882   2.908530   3.376760
    39  Rh   5.025715   5.025715   2.958373   3.331580   3.938625
                   11         12         13         14         15
    11  C    0.000000
    12  H    1.107274   0.000000
    13  H    1.113779   1.792347   0.000000
    14  N    4.748304   5.088836   5.745798   0.000000
    15  N    1.505693   2.100662   2.150980   4.213050   0.000000
    16  C    5.073087   5.301121   5.849425   3.698829   3.698786
    17  H    4.686554   5.135814   5.403488   3.305026   3.305049
    18  H    6.074234   6.283225   6.893538   3.864238   4.745136
    19  H    5.313225   5.504407   5.948962   4.745157   3.864118
    20  C    5.866500   6.023520   6.915720   1.473902   5.206973
    21  H    6.188028   6.391051   7.190220   2.107183   5.280823
    22  H    6.779063   6.960095   7.820087   2.140456   6.212624
    23  H    5.765515   5.717848   6.861332   2.108993   5.211058
    24  C    5.405072   5.984222   6.250687   1.481909   4.758415
    25  H    6.414804   6.958839   7.270458   2.137091   5.849369
    26  H    5.662493   6.267225   6.458263   2.119961   4.746156
    27  H    4.965855   5.689743   5.693044   2.112285   4.482232
    28  C    2.433402   2.469100   2.817801   5.206967   1.473893
    29  H    2.663299   2.696802   2.598639   6.212627   2.140459
    30  H    3.391671   3.530809   3.768335   5.280815   2.107177
    31  H    2.701470   2.282552   3.280523   5.211071   2.108998
    32  C    2.419616   3.326188   2.524042   4.758410   1.481907
    33  H    3.385615   4.177721   3.587577   4.746157   2.119960
    34  H    2.697531   3.541330   2.333056   5.849376   2.137096
    35  H    2.608418   3.668380   2.723165   4.482231   2.112288
    36  H    4.558072   4.600074   5.448350   3.356970   3.356942
    37  H    4.760748   5.150992   5.019372   5.852006   5.852010
    38  C    2.429881   2.908540   3.376772   2.640210   2.640214
    39  Rh   2.958367   3.331583   3.938627   2.133282   2.133278
                   16         17         18         19         20
    16  C    0.000000
    17  H    1.110827   0.000000
    18  H    1.099201   1.799535   0.000000
    19  H    1.099203   1.799542   1.800250   0.000000
    20  C    3.695726   3.669357   3.492570   4.780682   0.000000
    21  H    3.001716   3.072635   2.564227   4.073595   1.102913
    22  H    4.705587   4.624592   4.365520   5.795890   1.113667
    23  H    3.870115   4.082079   3.750425   4.875296   1.100889
    24  C    4.083736   3.383654   4.145679   5.091467   2.401558
    25  H    4.960052   4.345581   4.830956   6.000525   2.608828
    26  H    3.422615   2.668158   3.386870   4.378994   2.685240
    27  H    4.605737   3.742575   4.868607   5.511885   3.356542
    28  C    3.695661   3.669379   4.780609   3.492430   5.919740
    29  H    4.705520   4.624621   5.795811   4.365368   7.002491
    30  H    3.001641   3.072659   4.073499   2.564074   5.844782
    31  H    3.870072   4.082112   4.875238   3.750325   5.754827
    32  C    4.083692   3.383679   5.091448   4.145547   5.873389
    33  H    3.422571   2.668190   4.378968   3.386738   5.704990
    34  H    4.960008   4.345620   6.000498   4.830815   6.961634
    35  H    4.605713   3.742599   5.511903   4.868498   5.764214
    36  H    1.113869   1.834942   1.799979   1.799988   3.318917
    37  H    8.498783   7.870994   9.173197   9.173128   7.120095
    38  C    4.625384   4.108471   5.332787   5.332730   3.935598
    39  Rh   2.752158   2.344884   3.500514   3.500469   3.084974
                   21         22         23         24         25
    21  H    0.000000
    22  H    1.802900   0.000000
    23  H    1.797466   1.811945   0.000000
    24  C    2.612670   2.676419   3.361923   0.000000
    25  H    2.905949   2.393659   3.640114   1.114566   0.000000
    26  H    2.418777   3.103319   3.667464   1.102193   1.809890
    27  H    3.641092   3.656000   4.196615   1.100338   1.813604
    28  C    5.844783   7.002483   5.754811   5.873385   6.961619
    29  H    6.941420   8.073760   6.840958   6.807803   7.908606
    30  H    5.565290   6.941413   5.764232   5.816787   6.899882
    31  H    5.764249   6.840967   5.389760   6.120440   7.153963
    32  C    5.816794   6.807798   6.120424   4.853120   5.949326
    33  H    5.447004   6.647264   6.043037   4.688935   5.778812
    34  H    6.899900   7.908612   7.153957   5.949338   7.037180
    35  H    5.822585   6.581535   6.132315   4.383356   5.421634
    36  H    2.885520   4.408595   3.209204   4.133090   5.011673
    37  H    7.945545   7.404905   7.210433   6.180845   6.587949
    38  C    4.512225   4.656338   4.022842   3.363929   4.224759
    39  Rh   3.251788   4.080981   3.215186   2.919093   3.954425
                   26         27         28         29         30
    26  H    0.000000
    27  H    1.795395   0.000000
    28  C    5.704980   5.764205   0.000000
    29  H    6.647261   6.581536   1.113673   0.000000
    30  H    5.446992   5.822573   1.102911   1.802899   0.000000
    31  H    6.043047   6.132325   1.100894   1.811943   1.797471
    32  C    4.688930   4.383350   2.401551   2.676420   2.612665
    33  H    4.279980   4.370398   2.685228   3.103311   2.418766
    34  H    5.778819   5.421641   2.608824   2.393654   2.905950
    35  H    4.370399   3.709580   3.356537   3.656002   3.641089
    36  H    3.744590   4.659081   3.318873   4.408554   2.885471
    37  H    7.071616   5.426642   7.120095   7.404917   7.945543
    38  C    3.961082   2.988555   3.935597   4.656348   4.512222
    39  Rh   3.025387   3.001359   3.084964   4.080980   3.251778
                   31         32         33         34         35
    31  H    0.000000
    32  C    3.361926   0.000000
    33  H    3.667465   1.102195   0.000000
    34  H    3.640115   1.114579   1.809897   0.000000
    35  H    4.196622   1.100338   1.795402   1.813612   0.000000
    36  H    3.209176   4.133062   3.744565   5.011649   4.659067
    37  H    7.210444   6.180841   7.071617   6.587952   5.426637
    38  C    4.022856   3.363926   3.961085   4.224767   2.988554
    39  Rh   3.215195   2.919085   3.025385   3.954429   3.001358
                   36         37         38         39
    36  H    0.000000
    37  H    7.977096   0.000000
    38  C    4.092338   3.892796   0.000000
    39  Rh   2.281147   5.760819   1.874822   0.000000
 Stoichiometry    C13H23N2Rh
 Framework group  C1[X(C13H23N2Rh)]
 Deg. of freedom   111
 Full point group                 C1      NOp   1
 Largest Abelian subgroup         C1      NOp   1
 Largest concise Abelian subgroup C1      NOp   1
                         Standard orientation:                         
 ---------------------------------------------------------------------
 Center     Atomic      Atomic             Coordinates (Angstroms)
 Number     Number       Type             X           Y           Z
 ---------------------------------------------------------------------
      1          6           0        1.785762    1.222456   -0.130169
      2          6           0        1.785697   -1.222544   -0.130169
      3          6           0        3.177332    1.222123    0.009621
      4          6           0        3.177267   -1.222287    0.009621
      5          6           0        3.867929   -0.000098    0.104861
      6          1           0        3.737314    2.165942    0.031761
      7          1           0        3.737205   -2.166128    0.031751
      8          6           0        0.900334    2.406708   -0.429979
      9          1           0        0.837624    2.549608   -1.526209
     10          1           0        1.240066    3.368957    0.016271
     11          6           0        0.900215   -2.406742   -0.429989
     12          1           0        0.837495   -2.549652   -1.526209
     13          1           0        1.239893   -3.369023    0.016261
     14          7           0       -0.501427    2.106540    0.030521
     15          7           0       -0.501534   -2.106510    0.030521
     16          6           0       -3.541830    0.000056    0.030191
     17          1           0       -2.885450    0.000095    0.926351
     18          1           0       -4.172489    0.900167    0.047871
     19          1           0       -4.172452   -0.900083    0.047911
     20          6           0       -1.453615    2.959912   -0.702609
     21          1           0       -2.468225    2.782714   -0.308169
     22          1           0       -1.200763    4.036912   -0.574579
     23          1           0       -1.427125    2.694912   -1.770799
     24          6           0       -0.591836    2.426581    1.474631
     25          1           0       -0.435054    3.518600    1.633281
     26          1           0       -1.587396    2.140032    1.850901
     27          1           0        0.177603    1.854789    2.014781
     28          6           0       -1.453766   -2.959828   -0.702599
     29          1           0       -1.200978   -4.036848   -0.574569
     30          1           0       -2.468366   -2.782576   -0.308159
     31          1           0       -1.427266   -2.694848   -1.770799
     32          6           0       -0.591955   -2.426539    1.474631
     33          1           0       -1.587505   -2.139948    1.850901
     34          1           0       -0.435227   -3.518580    1.633281
     35          1           0        0.177516   -1.854791    2.014781
     36          1           0       -2.941020    0.000055   -0.907749
     37          1           0        4.954619   -0.000120    0.229321
     38          6           0        1.080129   -0.000023   -0.147759
     39         45           0       -0.794650    0.000021   -0.135269
 ---------------------------------------------------------------------
 Rotational constants (GHZ):           0.5358796           0.4798881           0.2830021
 Standard basis: def2TZVPP (5D, 7F)
 There are   956 symmetry adapted cartesian basis functions of A   symmetry.
 There are   843 symmetry adapted basis functions of A   symmetry.
   843 basis functions,  1255 primitive gaussians,   956 cartesian basis functions
    66 alpha electrons       66 beta electrons
       nuclear repulsion energy      1375.5943128023 Hartrees.
 NAtoms=   39 NActive=   39 NUniq=   39 SFac= 1.00D+00 NAtFMM=   60 NAOKFM=F Big=F
 Integral buffers will be    131072 words long.
 Raffenetti 2 integral format.
 Two-electron integral symmetry is turned on.
 Nuclear repulsion after empirical dispersion term =     1375.5559492312 Hartrees.
 ------------------------------------------------------------------------------
 Polarizable Continuum Model (PCM)
 =================================
 Model                : PCM.
 Atomic radii         : UFF (Universal Force Field).
 Polarization charges : Total charges.
 Charge compensation  : None.
 Solution method      : On-the-fly selection.
 Cavity type          : Scaled VdW (van der Waals Surface) (Alpha=1.100).
 Cavity algorithm     : GePol (No added spheres)
                        Default sphere list used, NSphG=   39.
                        Lebedev-Laikov grids with approx.  5.0 points / Ang**2.
                        Smoothing algorithm: York/Karplus (Gamma=1.0000).
                        Polarization charges: spherical gaussians, with
                                              point-specific exponents (IZeta= 3).
                        Self-potential: point-specific (ISelfS= 7).
                        Self-field    : sphere-specific E.n sum rule (ISelfD= 2).
 1st derivatives      : Analytical E(r).r(x)/FMM algorithm (CHGder, D1EAlg=3).
                        Cavity 1st derivative terms included.
 Solvent              : Dichloromethane, Eps=   8.930000 Eps(inf)=   2.028346
 ------------------------------------------------------------------------------
 One-electron integrals computed using PRISM.
 PrsmSu:  requested number of processors reduced to:   5 ShMem   1 Linda.
   1 Symmetry operations used in ECPInt.
 ECPInt:  NShTT=   51040 NPrTT=  129190 LenC2=   46475 LenP2D=   90621.
 LDataN:  DoStor=T MaxTD1= 8 Len=  415
 NBasis=   843 RedAO= T EigKep=  4.54D-06  NBF=   843
 NBsUse=   843 1.00D-06 EigRej= -1.00D+00 NBFU=   843
 Defaulting to unpruned grid for atomic number  45.
 ExpMin= 3.70D-02 ExpMax= 1.97D+04 ExpMxC= 6.73D+02 IAcc=3 IRadAn=         5 AccDes= 0.00D+00
 Harris functional with IExCor= 4639 and IRadAn=       5 diagonalized for initial guess.
 HarFok:  IExCor= 4639 AccDes= 0.00D+00 IRadAn=         5 IDoV= 1 UseB2=F ITyADJ=14
 ICtDFT=  3500011 ScaDFX=  1.000000  1.000000  1.000000  1.000000
 Defaulting to unpruned grid for atomic number  45.
 FoFCou: FMM=F IPFlag=           0 FMFlag=      100000 FMFlg1=           0
         NFxFlg=           0 DoJE=T BraDBF=F KetDBF=T FulRan=T
         wScrn=  0.000000 ICntrl=       500 IOpCl=  0 I1Cent=   200000004 NGrid=           0
         NMat0=    1 NMatS0=      1 NMatT0=    0 NMatD0=    1 NMtDS0=    0 NMtDT0=    0
 Petite list used in FoFCou.
 Requested convergence on RMS density matrix=1.00D-08 within 128 cycles.
 Requested convergence on MAX density matrix=1.00D-06.
 Requested convergence on             energy=1.00D-06.
 No special actions if energy rises.
 Defaulting to unpruned grid for atomic number  45.
 Defaulting to unpruned grid for atomic number  45.
 Defaulting to unpruned grid for atomic number  45.
 Defaulting to unpruned grid for atomic number  45.
 Defaulting to unpruned grid for atomic number  45.
 Defaulting to unpruned grid for atomic number  45.
 Defaulting to unpruned grid for atomic number  45.
 Defaulting to unpruned grid for atomic number  45.
 Inv3:  Mode=1 IEnd=    19187523.
 Iteration    1 A*A^-1 deviation from unit magnitude is 3.44D-15 for   1488.
 Iteration    1 A*A^-1 deviation from orthogonality  is 3.11D-15 for   2495    372.
 Iteration    1 A^-1*A deviation from unit magnitude is 3.44D-15 for   1488.
 Iteration    1 A^-1*A deviation from orthogonality  is 3.55D-15 for   2367    937.
 Error on total polarization charges =  0.01820
 SCF Done:  E(RwB97XD) =  -729.371476985     A.U. after   18 cycles
            NFock= 18  Conv=0.30D-08     -V/T= 2.1122

 **********************************************************************

            Population analysis using the SCF Density.

 **********************************************************************

 Orbital symmetries:
       Occupied  (A) (A) (A) (A) (A) (A) (A) (A) (A) (A) (A) (A)
                 (A) (A) (A) (A) (A) (A) (A) (A) (A) (A) (A) (A)
                 (A) (A) (A) (A) (A) (A) (A) (A) (A) (A) (A) (A)
                 (A) (A) (A) (A) (A) (A) (A) (A) (A) (A) (A) (A)
                 (A) (A) (A) (A) (A) (A) (A) (A) (A) (A) (A) (A)
                 (A) (A) (A) (A) (A) (A)
       Virtual   (A) (A) (A) (A) (A) (A) (A) (A) (A) (A) (A) (A)
                 (A) (A) (A) (A) (A) (A) (A) (A) (A) (A) (A) (A)
                 (A) (A) (A) (A) (A) (A) (A) (A) (A) (A) (A) (A)
                 (A) (A) (A) (A) (A) (A) (A) (A) (A) (A) (A) (A)
                 (A) (A) (A) (A) (A) (A) (A) (A) (A) (A) (A) (A)
                 (A) (A) (A) (A) (A) (A) (A) (A) (A) (A) (A) (A)
                 (A) (A) (A) (A) (A) (A) (A) (A) (A) (A) (A) (A)
                 (A) (A) (A) (A) (A) (A) (A) (A) (A) (A) (A) (A)
                 (A) (A) (A) (A) (A) (A) (A) (A) (A) (A) (A) (A)
                 (A) (A) (A) (A) (A) (A) (A) (A) (A) (A) (A) (A)
                 (A) (A) (A) (A) (A) (A) (A) (A) (A) (A) (A) (A)
                 (A) (A) (A) (A) (A) (A) (A) (A) (A) (A) (A) (A)
                 (A) (A) (A) (A) (A) (A) (A) (A) (A) (A) (A) (A)
                 (A) (A) (A) (A) (A) (A) (A) (A) (A) (A) (A) (A)
                 (A) (A) (A) (A) (A) (A) (A) (A) (A) (A) (A) (A)
                 (A) (A) (A) (A) (A) (A) (A) (A) (A) (A) (A) (A)
                 (A) (A) (A) (A) (A) (A) (A) (A) (A) (A) (A) (A)
                 (A) (A) (A) (A) (A) (A) (A) (A) (A) (A) (A) (A)
                 (A) (A) (A) (A) (A) (A) (A) (A) (A) (A) (A) (A)
                 (A) (A) (A) (A) (A) (A) (A) (A) (A) (A) (A) (A)
                 (A) (A) (A) (A) (A) (A) (A) (A) (A) (A) (A) (A)
                 (A) (A) (A) (A) (A) (A) (A) (A) (A) (A) (A) (A)
                 (A) (A) (A) (A) (A) (A) (A) (A) (A) (A) (A) (A)
                 (A) (A) (A) (A) (A) (A) (A) (A) (A) (A) (A) (A)
                 (A) (A) (A) (A) (A) (A) (A) (A) (A) (A) (A) (A)
                 (A) (A) (A) (A) (A) (A) (A) (A) (A) (A) (A) (A)
                 (A) (A) (A) (A) (A) (A) (A) (A) (A) (A) (A) (A)
                 (A) (A) (A) (A) (A) (A) (A) (A) (A) (A) (A) (A)
                 (A) (A) (A) (A) (A) (A) (A) (A) (A) (A) (A) (A)
                 (A) (A) (A) (A) (A) (A) (A) (A) (A) (A) (A) (A)
                 (A) (A) (A) (A) (A) (A) (A) (A) (A) (A) (A) (A)
                 (A) (A) (A) (A) (A) (A) (A) (A) (A) (A) (A) (A)
                 (A) (A) (A) (A) (A) (A) (A) (A) (A) (A) (A) (A)
                 (A) (A) (A) (A) (A) (A) (A) (A) (A) (A) (A) (A)
                 (A) (A) (A) (A) (A) (A) (A) (A) (A) (A) (A) (A)
                 (A) (A) (A) (A) (A) (A) (A) (A) (A) (A) (A) (A)
                 (A) (A) (A) (A) (A) (A) (A) (A) (A) (A) (A) (A)
                 (A) (A) (A) (A) (A) (A) (A) (A) (A) (A) (A) (A)
                 (A) (A) (A) (A) (A) (A) (A) (A) (A) (A) (A) (A)
                 (A) (A) (A) (A) (A) (A) (A) (A) (A) (A) (A) (A)
                 (A) (A) (A) (A) (A) (A) (A) (A) (A) (A) (A) (A)
                 (A) (A) (A) (A) (A) (A) (A) (A) (A) (A) (A) (A)
                 (A) (A) (A) (A) (A) (A) (A) (A) (A) (A) (A) (A)
                 (A) (A) (A) (A) (A) (A) (A) (A) (A) (A) (A) (A)
                 (A) (A) (A) (A) (A) (A) (A) (A) (A) (A) (A) (A)
                 (A) (A) (A) (A) (A) (A) (A) (A) (A) (A) (A) (A)
                 (A) (A) (A) (A) (A) (A) (A) (A) (A) (A) (A) (A)
                 (A) (A) (A) (A) (A) (A) (A) (A) (A) (A) (A) (A)
                 (A) (A) (A) (A) (A) (A) (A) (A) (A) (A) (A) (A)
                 (A) (A) (A) (A) (A) (A) (A) (A) (A) (A) (A) (A)
                 (A) (A) (A) (A) (A) (A) (A) (A) (A) (A) (A) (A)
                 (A) (A) (A) (A) (A) (A) (A) (A) (A) (A) (A) (A)
                 (A) (A) (A) (A) (A) (A) (A) (A) (A) (A) (A) (A)
                 (A) (A) (A) (A) (A) (A) (A) (A) (A) (A) (A) (A)
                 (A) (A) (A) (A) (A) (A) (A) (A) (A) (A) (A) (A)
                 (A) (A) (A) (A) (A) (A) (A) (A) (A) (A) (A) (A)
                 (A) (A) (A) (A) (A) (A) (A) (A) (A) (A) (A) (A)
                 (A) (A) (A) (A) (A) (A) (A) (A) (A) (A) (A) (A)
                 (A) (A) (A) (A) (A) (A) (A) (A) (A) (A) (A) (A)
                 (A) (A) (A) (A) (A) (A) (A) (A) (A) (A) (A) (A)
                 (A) (A) (A) (A) (A) (A) (A) (A) (A) (A) (A) (A)
                 (A) (A) (A) (A) (A) (A) (A) (A) (A) (A) (A) (A)
                 (A) (A) (A) (A) (A) (A) (A) (A) (A) (A) (A) (A)
                 (A) (A) (A) (A) (A) (A) (A) (A) (A) (A) (A) (A)
                 (A) (A) (A) (A) (A) (A) (A) (A) (A)
 The electronic state is 1-A.
 Alpha  occ. eigenvalues --  -14.47712 -14.47712 -10.31593 -10.31592 -10.31038
 Alpha  occ. eigenvalues --  -10.31038 -10.30829 -10.30829 -10.28144 -10.27790
 Alpha  occ. eigenvalues --  -10.27788 -10.27419 -10.27419 -10.27214 -10.25632
 Alpha  occ. eigenvalues --   -3.25039  -2.01564  -2.00860  -1.98320  -1.04316
 Alpha  occ. eigenvalues --   -1.04004  -0.93746  -0.86558  -0.84243  -0.80759
 Alpha  occ. eigenvalues --   -0.80752  -0.80160  -0.78179  -0.77476  -0.70818
 Alpha  occ. eigenvalues --   -0.69992  -0.65849  -0.65587  -0.59154  -0.57500
 Alpha  occ. eigenvalues --   -0.56931  -0.56646  -0.56021  -0.54695  -0.54514
 Alpha  occ. eigenvalues --   -0.52190  -0.50102  -0.49856  -0.49322  -0.49038
 Alpha  occ. eigenvalues --   -0.48865  -0.48325  -0.47672  -0.47287  -0.46288
 Alpha  occ. eigenvalues --   -0.45927  -0.45374  -0.45129  -0.44763  -0.43517
 Alpha  occ. eigenvalues --   -0.42044  -0.39996  -0.39792  -0.35447  -0.35296
 Alpha  occ. eigenvalues --   -0.32784  -0.30824  -0.26467  -0.24704  -0.23091
 Alpha  occ. eigenvalues --   -0.22584
 Alpha virt. eigenvalues --    0.05494   0.06530   0.08178   0.09749   0.09948
 Alpha virt. eigenvalues --    0.10665   0.11215   0.13687   0.14832   0.15086
 Alpha virt. eigenvalues --    0.15374   0.15811   0.15837   0.16613   0.16755
 Alpha virt. eigenvalues --    0.17177   0.17871   0.17925   0.18557   0.19629
 Alpha virt. eigenvalues --    0.20049   0.20149   0.20488   0.21419   0.21457
 Alpha virt. eigenvalues --    0.21599   0.23048   0.23189   0.23705   0.23901
 Alpha virt. eigenvalues --    0.24592   0.24662   0.25064   0.25307   0.25911
 Alpha virt. eigenvalues --    0.25997   0.26404   0.27741   0.28690   0.29437
 Alpha virt. eigenvalues --    0.29827   0.30442   0.30776   0.31197   0.32711
 Alpha virt. eigenvalues --    0.32858   0.33527   0.34117   0.34159   0.35000
 Alpha virt. eigenvalues --    0.35809   0.35840   0.36271   0.37236   0.37828
 Alpha virt. eigenvalues --    0.38293   0.39051   0.39404   0.39541   0.40777
 Alpha virt. eigenvalues --    0.41241   0.41342   0.41485   0.42490   0.42556
 Alpha virt. eigenvalues --    0.43560   0.44601   0.45073   0.45772   0.46182
 Alpha virt. eigenvalues --    0.47592   0.47610   0.48324   0.48451   0.48522
 Alpha virt. eigenvalues --    0.49140   0.49334   0.50008   0.50272   0.50481
 Alpha virt. eigenvalues --    0.50982   0.51184   0.51394   0.51445   0.51719
 Alpha virt. eigenvalues --    0.52198   0.52283   0.52853   0.53319   0.53490
 Alpha virt. eigenvalues --    0.54483   0.54747   0.55306   0.55997   0.56528
 Alpha virt. eigenvalues --    0.56638   0.57600   0.57929   0.58130   0.58705
 Alpha virt. eigenvalues --    0.59815   0.60600   0.60816   0.61661   0.61852
 Alpha virt. eigenvalues --    0.62064   0.62488   0.62742   0.62864   0.64644
 Alpha virt. eigenvalues --    0.65107   0.65578   0.66619   0.67401   0.68173
 Alpha virt. eigenvalues --    0.69121   0.69133   0.69975   0.72058   0.72172
 Alpha virt. eigenvalues --    0.73303   0.74397   0.74946   0.75324   0.75948
 Alpha virt. eigenvalues --    0.76652   0.77131   0.78287   0.79871   0.80170
 Alpha virt. eigenvalues --    0.80371   0.82485   0.83668   0.84117   0.84612
 Alpha virt. eigenvalues --    0.84821   0.85096   0.87124   0.87264   0.88665
 Alpha virt. eigenvalues --    0.89535   0.89970   0.91025   0.92243   0.92248
 Alpha virt. eigenvalues --    0.92361   0.93683   0.94554   0.94878   0.95520
 Alpha virt. eigenvalues --    0.95589   0.96399   0.96791   0.98380   0.99260
 Alpha virt. eigenvalues --    1.00182   1.00760   1.01142   1.01615   1.01710
 Alpha virt. eigenvalues --    1.02599   1.03052   1.03753   1.04368   1.05537
 Alpha virt. eigenvalues --    1.05735   1.05911   1.06757   1.06937   1.07830
 Alpha virt. eigenvalues --    1.09016   1.09037   1.09349   1.10016   1.10112
 Alpha virt. eigenvalues --    1.11379   1.12514   1.12802   1.13042   1.13386
 Alpha virt. eigenvalues --    1.13540   1.14433   1.14541   1.15280   1.15789
 Alpha virt. eigenvalues --    1.16292   1.17479   1.18929   1.19609   1.20289
 Alpha virt. eigenvalues --    1.20560   1.21031   1.21411   1.22531   1.23123
 Alpha virt. eigenvalues --    1.23539   1.24070   1.24914   1.25750   1.26472
 Alpha virt. eigenvalues --    1.27725   1.28269   1.29046   1.30456   1.30702
 Alpha virt. eigenvalues --    1.31092   1.31628   1.31650   1.32480   1.32516
 Alpha virt. eigenvalues --    1.33569   1.34842   1.35110   1.36015   1.37133
 Alpha virt. eigenvalues --    1.37372   1.37600   1.38453   1.39349   1.40845
 Alpha virt. eigenvalues --    1.41221   1.41292   1.43136   1.43588   1.44395
 Alpha virt. eigenvalues --    1.44570   1.45584   1.46559   1.46990   1.47225
 Alpha virt. eigenvalues --    1.47419   1.47634   1.48093   1.49343   1.49470
 Alpha virt. eigenvalues --    1.50747   1.51146   1.52216   1.52307   1.53195
 Alpha virt. eigenvalues --    1.53269   1.53967   1.54716   1.54837   1.55059
 Alpha virt. eigenvalues --    1.55935   1.56063   1.56663   1.57588   1.57919
 Alpha virt. eigenvalues --    1.58594   1.58978   1.59377   1.60107   1.60647
 Alpha virt. eigenvalues --    1.60879   1.61195   1.62717   1.62948   1.63944
 Alpha virt. eigenvalues --    1.65707   1.66177   1.66874   1.67877   1.68732
 Alpha virt. eigenvalues --    1.69425   1.69917   1.70326   1.70364   1.72209
 Alpha virt. eigenvalues --    1.72515   1.73563   1.73847   1.74481   1.76906
 Alpha virt. eigenvalues --    1.77604   1.78117   1.79410   1.80275   1.80451
 Alpha virt. eigenvalues --    1.81496   1.82865   1.83760   1.85363   1.85742
 Alpha virt. eigenvalues --    1.86001   1.87358   1.87580   1.88573   1.89790
 Alpha virt. eigenvalues --    1.90986   1.92852   1.94401   1.94766   1.95572
 Alpha virt. eigenvalues --    1.96141   1.96631   1.99456   1.99621   2.00730
 Alpha virt. eigenvalues --    2.02664   2.03236   2.03698   2.04649   2.06331
 Alpha virt. eigenvalues --    2.07482   2.09017   2.09991   2.10907   2.12686
 Alpha virt. eigenvalues --    2.13700   2.15755   2.16981   2.18736   2.18773
 Alpha virt. eigenvalues --    2.19167   2.20944   2.21015   2.22772   2.25060
 Alpha virt. eigenvalues --    2.26074   2.26323   2.27249   2.28567   2.28588
 Alpha virt. eigenvalues --    2.30354   2.31895   2.34325   2.36640   2.37737
 Alpha virt. eigenvalues --    2.38620   2.39838   2.40748   2.42490   2.43831
 Alpha virt. eigenvalues --    2.46622   2.46888   2.49730   2.51440   2.53202
 Alpha virt. eigenvalues --    2.54881   2.58795   2.59312   2.62063   2.62406
 Alpha virt. eigenvalues --    2.62494   2.64958   2.65900   2.66318   2.67160
 Alpha virt. eigenvalues --    2.68075   2.69629   2.70055   2.70277   2.71075
 Alpha virt. eigenvalues --    2.71821   2.72668   2.73781   2.74501   2.75472
 Alpha virt. eigenvalues --    2.76644   2.77148   2.77979   2.78711   2.79490
 Alpha virt. eigenvalues --    2.80263   2.80994   2.82697   2.84305   2.84689
 Alpha virt. eigenvalues --    2.85276   2.86767   2.87335   2.87553   2.88571
 Alpha virt. eigenvalues --    2.89104   2.89781   2.90206   2.90476   2.90742
 Alpha virt. eigenvalues --    2.91206   2.91531   2.92068   2.92845   2.93668
 Alpha virt. eigenvalues --    2.93788   2.95620   2.96384   2.97320   2.97564
 Alpha virt. eigenvalues --    2.97992   2.98515   2.98909   2.99919   3.00593
 Alpha virt. eigenvalues --    3.01183   3.01458   3.01635   3.03230   3.03345
 Alpha virt. eigenvalues --    3.04375   3.05315   3.05934   3.06647   3.07913
 Alpha virt. eigenvalues --    3.08117   3.09345   3.09627   3.09863   3.10600
 Alpha virt. eigenvalues --    3.11119   3.12120   3.12513   3.13543   3.14209
 Alpha virt. eigenvalues --    3.14591   3.15977   3.16412   3.16600   3.17764
 Alpha virt. eigenvalues --    3.18230   3.18804   3.19821   3.20017   3.20193
 Alpha virt. eigenvalues --    3.21540   3.21899   3.22910   3.23756   3.23804
 Alpha virt. eigenvalues --    3.25075   3.26733   3.27259   3.27354   3.29063
 Alpha virt. eigenvalues --    3.29727   3.29884   3.30628   3.30848   3.31627
 Alpha virt. eigenvalues --    3.32751   3.33711   3.34856   3.35696   3.36022
 Alpha virt. eigenvalues --    3.36400   3.36843   3.37620   3.38803   3.38824
 Alpha virt. eigenvalues --    3.39848   3.40501   3.40892   3.41081   3.41920
 Alpha virt. eigenvalues --    3.43770   3.43844   3.45022   3.45314   3.45869
 Alpha virt. eigenvalues --    3.46225   3.47303   3.48448   3.48931   3.49426
 Alpha virt. eigenvalues --    3.50231   3.50613   3.51960   3.52469   3.52829
 Alpha virt. eigenvalues --    3.53304   3.54057   3.54704   3.55106   3.55787
 Alpha virt. eigenvalues --    3.56122   3.56577   3.56624   3.57578   3.58010
 Alpha virt. eigenvalues --    3.58152   3.59238   3.59417   3.60261   3.60545
 Alpha virt. eigenvalues --    3.60620   3.62249   3.62393   3.63790   3.64202
 Alpha virt. eigenvalues --    3.64766   3.65244   3.66059   3.67249   3.68463
 Alpha virt. eigenvalues --    3.69290   3.69845   3.70288   3.70830   3.71334
 Alpha virt. eigenvalues --    3.71653   3.72004   3.74160   3.74356   3.75149
 Alpha virt. eigenvalues --    3.76533   3.76690   3.77905   3.78279   3.79163
 Alpha virt. eigenvalues --    3.79862   3.80306   3.82312   3.82521   3.83264
 Alpha virt. eigenvalues --    3.84850   3.85931   3.85976   3.86339   3.87007
 Alpha virt. eigenvalues --    3.87926   3.87996   3.90220   3.90588   3.91090
 Alpha virt. eigenvalues --    3.92929   3.93046   3.94348   3.95037   3.96737
 Alpha virt. eigenvalues --    3.96914   3.97443   3.98657   3.99353   3.99605
 Alpha virt. eigenvalues --    3.99625   3.99889   4.01383   4.01783   4.03596
 Alpha virt. eigenvalues --    4.05884   4.06126   4.06320   4.07447   4.07546
 Alpha virt. eigenvalues --    4.07893   4.09253   4.09521   4.12297   4.13222
 Alpha virt. eigenvalues --    4.13397   4.14033   4.15050   4.15634   4.15688
 Alpha virt. eigenvalues --    4.16818   4.16901   4.18104   4.18410   4.19109
 Alpha virt. eigenvalues --    4.19356   4.19616   4.20275   4.21727   4.21892
 Alpha virt. eigenvalues --    4.22492   4.23089   4.23206   4.24084   4.24416
 Alpha virt. eigenvalues --    4.24729   4.25351   4.26446   4.26710   4.27669
 Alpha virt. eigenvalues --    4.27887   4.27905   4.28117   4.29009   4.29657
 Alpha virt. eigenvalues --    4.29658   4.30525   4.30887   4.30993   4.32008
 Alpha virt. eigenvalues --    4.32234   4.32954   4.34291   4.34603   4.35846
 Alpha virt. eigenvalues --    4.35848   4.36066   4.36561   4.36784   4.37718
 Alpha virt. eigenvalues --    4.37981   4.39133   4.40207   4.40261   4.41112
 Alpha virt. eigenvalues --    4.42114   4.42802   4.44681   4.44819   4.45442
 Alpha virt. eigenvalues --    4.46266   4.46954   4.47795   4.48638   4.50431
 Alpha virt. eigenvalues --    4.51855   4.52591   4.53414   4.54108   4.54196
 Alpha virt. eigenvalues --    4.54779   4.55904   4.56545   4.57404   4.58459
 Alpha virt. eigenvalues --    4.60121   4.61957   4.62302   4.62463   4.63140
 Alpha virt. eigenvalues --    4.65027   4.66767   4.67573   4.67863   4.68568
 Alpha virt. eigenvalues --    4.68950   4.72358   4.72887   4.73270   4.74240
 Alpha virt. eigenvalues --    4.74557   4.76400   4.76537   4.77243   4.78961
 Alpha virt. eigenvalues --    4.79694   4.80812   4.81322   4.82367   4.83783
 Alpha virt. eigenvalues --    4.84112   4.84174   4.89206   4.89316   4.90113
 Alpha virt. eigenvalues --    4.90251   4.91768   4.92307   4.94153   4.94552
 Alpha virt. eigenvalues --    4.95385   4.96516   4.98285   4.98330   5.00542
 Alpha virt. eigenvalues --    5.00867   5.02912   5.05393   5.06674   5.08442
 Alpha virt. eigenvalues --    5.08785   5.09727   5.10407   5.11698   5.12524
 Alpha virt. eigenvalues --    5.15029   5.15107   5.16323   5.17769   5.18433
 Alpha virt. eigenvalues --    5.19263   5.19341   5.20673   5.20793   5.21629
 Alpha virt. eigenvalues --    5.22384   5.23074   5.23149   5.24811   5.24964
 Alpha virt. eigenvalues --    5.25974   5.27068   5.27839   5.29374   5.30079
 Alpha virt. eigenvalues --    5.30374   5.31122   5.32020   5.33522   5.34653
 Alpha virt. eigenvalues --    5.34794   5.35268   5.36288   5.37097   5.37594
 Alpha virt. eigenvalues --    5.38572   5.39049   5.40612   5.40699   5.41552
 Alpha virt. eigenvalues --    5.42047   5.43373   5.43660   5.43874   5.44362
 Alpha virt. eigenvalues --    5.47262   5.47611   5.48026   5.50492   5.51170
 Alpha virt. eigenvalues --    5.52686   5.53380   5.54844   5.56362   5.57496
 Alpha virt. eigenvalues --    5.59230   5.60834   5.61361   5.65411   5.65865
 Alpha virt. eigenvalues --    5.66349   5.66536   5.67625   5.68233   5.68270
 Alpha virt. eigenvalues --    5.68949   5.69641   5.69859   5.70075   5.74339
 Alpha virt. eigenvalues --    5.74754   5.75310   5.77867   5.78561   5.79059
 Alpha virt. eigenvalues --    5.79858   5.80557   5.80915   5.82350   5.82663
 Alpha virt. eigenvalues --    5.86419   5.88914   5.92714   5.96682   5.99279
 Alpha virt. eigenvalues --    6.00883   6.04713   6.10938   6.11707   6.14067
 Alpha virt. eigenvalues --    6.16640   6.20973   6.34323   6.35157   6.54049
 Alpha virt. eigenvalues --   22.63343  23.21120  23.21421  23.24596  23.29866
 Alpha virt. eigenvalues --   23.45367  23.54861  23.75320  23.76375  23.84530
 Alpha virt. eigenvalues --   23.85358  23.90954  23.94839  31.19583  32.93373
 Alpha virt. eigenvalues --   32.97181 102.38485
          Condensed to atoms (all electrons):
               1          2          3          4          5          6
     1  C    5.696914   0.106569   0.361002  -0.145173  -0.017934  -0.036979
     2  C    0.106569   5.696910  -0.145173   0.361006  -0.017935  -0.000176
     3  C    0.361002  -0.145173   5.114342   0.034515   0.460068   0.428368
     4  C   -0.145173   0.361006   0.034515   5.114341   0.460066   0.006456
     5  C   -0.017934  -0.017935   0.460068   0.460066   4.984410  -0.038457
     6  H   -0.036979  -0.000176   0.428368   0.006456  -0.038457   0.522345
     7  H   -0.000176  -0.036978   0.006456   0.428369  -0.038457  -0.000243
     8  C    0.332255   0.027785  -0.089164  -0.008842   0.015368  -0.004905
     9  H   -0.034224   0.000349  -0.000476   0.000499  -0.000311   0.000411
    10  H   -0.065053  -0.002385   0.000896   0.000322   0.000066   0.001260
    11  C    0.027786   0.332255  -0.008843  -0.089166   0.015369   0.000112
    12  H    0.000349  -0.034222   0.000498  -0.000477  -0.000311   0.000001
    13  H   -0.002385  -0.065054   0.000322   0.000896   0.000066  -0.000002
    14  N   -0.014795  -0.020333   0.009298   0.001106  -0.001079   0.000059
    15  N   -0.020333  -0.014795   0.001106   0.009298  -0.001079   0.000002
    16  C    0.000702   0.000702   0.000017   0.000017  -0.000004   0.000000
    17  H   -0.000237  -0.000237   0.000004   0.000004  -0.000004   0.000000
    18  H   -0.000005  -0.000002   0.000000   0.000000  -0.000000  -0.000000
    19  H   -0.000002  -0.000005   0.000000   0.000000  -0.000000   0.000000
    20  C    0.009857   0.001008  -0.000995  -0.000073   0.000082  -0.000022
    21  H   -0.000773   0.000112   0.000010   0.000000  -0.000000   0.000001
    22  H    0.001582  -0.000113   0.000137   0.000004  -0.000006   0.000010
    23  H   -0.000940   0.000003  -0.000139   0.000001   0.000002  -0.000003
    24  C   -0.000892   0.002067  -0.000249  -0.000191   0.000062   0.000005
    25  H   -0.004676  -0.000215  -0.000034   0.000020  -0.000036  -0.000013
    26  H    0.001639   0.000007   0.000023   0.000009  -0.000001   0.000003
    27  H    0.018581   0.000945   0.002039  -0.000205   0.000106   0.000103
    28  C    0.001008   0.009856  -0.000073  -0.000995   0.000082   0.000000
    29  H   -0.000113   0.001582   0.000004   0.000137  -0.000006  -0.000000
    30  H    0.000112  -0.000773   0.000000   0.000010  -0.000000  -0.000000
    31  H    0.000003  -0.000940   0.000001  -0.000139   0.000002   0.000000
    32  C    0.002067  -0.000893  -0.000191  -0.000249   0.000062  -0.000002
    33  H    0.000007   0.001639   0.000009   0.000023  -0.000001   0.000000
    34  H   -0.000215  -0.004676   0.000020  -0.000034  -0.000036  -0.000000
    35  H    0.000945   0.018581  -0.000205   0.002039   0.000106   0.000002
    36  H   -0.000083  -0.000083  -0.000020  -0.000020   0.000003   0.000000
    37  H    0.010066   0.010066  -0.046997  -0.046997   0.449270  -0.004468
    38  C    0.010639   0.010637   0.079596   0.079597  -0.118963   0.013241
    39  Rh  -0.143457  -0.143457   0.021160   0.021160  -0.002820  -0.001518
               7          8          9         10         11         12
     1  C   -0.000176   0.332255  -0.034224  -0.065053   0.027786   0.000349
     2  C   -0.036978   0.027785   0.000349  -0.002385   0.332255  -0.034222
     3  C    0.006456  -0.089164  -0.000476   0.000896  -0.008843   0.000498
     4  C    0.428369  -0.008842   0.000499   0.000322  -0.089166  -0.000477
     5  C   -0.038457   0.015368  -0.000311   0.000066   0.015369  -0.000311
     6  H   -0.000243  -0.004905   0.000411   0.001260   0.000112   0.000001
     7  H    0.522344   0.000112   0.000001  -0.000002  -0.004905   0.000411
     8  C    0.000112   4.914145   0.425535   0.442819   0.000654  -0.000051
     9  H    0.000001   0.425535   0.577310  -0.025114  -0.000051   0.000015
    10  H   -0.000002   0.442819  -0.025114   0.570733   0.000007  -0.000003
    11  C   -0.004905   0.000654  -0.000051   0.000007   4.914147   0.425536
    12  H    0.000411  -0.000051   0.000015  -0.000003   0.425536   0.577307
    13  H    0.001260   0.000007  -0.000003   0.000000   0.442816  -0.025115
    14  N    0.000002   0.267844  -0.035639  -0.027896  -0.000899   0.000014
    15  N    0.000059  -0.000899   0.000014  -0.000016   0.267844  -0.035638
    16  C    0.000000   0.000033   0.000102  -0.000033   0.000033   0.000102
    17  H    0.000000   0.000189  -0.000002   0.000008   0.000189  -0.000002
    18  H    0.000000  -0.000036   0.000004  -0.000001   0.000001   0.000000
    19  H   -0.000000   0.000001   0.000000   0.000000  -0.000036   0.000004
    20  C    0.000000  -0.039953  -0.004899  -0.008189   0.000037  -0.000002
    21  H   -0.000000   0.009445   0.000728  -0.000651  -0.000010   0.000001
    22  H   -0.000000  -0.011098  -0.003841   0.007599   0.000000  -0.000000
    23  H    0.000000  -0.007028   0.002434  -0.000420  -0.000012   0.000002
    24  C   -0.000002  -0.031855   0.006792  -0.017633   0.000287  -0.000010
    25  H   -0.000000  -0.012042  -0.000219   0.009259  -0.000002  -0.000000
    26  H    0.000000   0.007412  -0.000202  -0.000192  -0.000046   0.000002
    27  H    0.000002  -0.010606   0.000582  -0.003769   0.000141   0.000002
    28  C   -0.000022   0.000037  -0.000002   0.000000  -0.039953  -0.004899
    29  H    0.000010   0.000000  -0.000000  -0.000000  -0.011098  -0.003841
    30  H    0.000001  -0.000010   0.000001  -0.000000   0.009445   0.000728
    31  H   -0.000003  -0.000012   0.000002  -0.000000  -0.007028   0.002434
    32  C    0.000005   0.000287  -0.000010   0.000011  -0.031853   0.006792
    33  H    0.000003  -0.000046   0.000002  -0.000000   0.007412  -0.000202
    34  H   -0.000013  -0.000002  -0.000000   0.000000  -0.012042  -0.000219
    35  H    0.000103   0.000141   0.000002  -0.000007  -0.010606   0.000582
    36  H    0.000000   0.000033  -0.000105   0.000007   0.000033  -0.000105
    37  H   -0.004468  -0.000241   0.000002  -0.000009  -0.000241   0.000002
    38  C    0.013241  -0.125587  -0.004973   0.007761  -0.125589  -0.004973
    39  Rh  -0.001518  -0.035181  -0.007100   0.012358  -0.035182  -0.007100
              13         14         15         16         17         18
     1  C   -0.002385  -0.014795  -0.020333   0.000702  -0.000237  -0.000005
     2  C   -0.065054  -0.020333  -0.014795   0.000702  -0.000237  -0.000002
     3  C    0.000322   0.009298   0.001106   0.000017   0.000004   0.000000
     4  C    0.000896   0.001106   0.009298   0.000017   0.000004   0.000000
     5  C    0.000066  -0.001079  -0.001079  -0.000004  -0.000004  -0.000000
     6  H   -0.000002   0.000059   0.000002   0.000000   0.000000  -0.000000
     7  H    0.001260   0.000002   0.000059   0.000000   0.000000   0.000000
     8  C    0.000007   0.267844  -0.000899   0.000033   0.000189  -0.000036
     9  H   -0.000003  -0.035639   0.000014   0.000102  -0.000002   0.000004
    10  H    0.000000  -0.027896  -0.000016  -0.000033   0.000008  -0.000001
    11  C    0.442816  -0.000899   0.267844   0.000033   0.000189   0.000001
    12  H   -0.025115   0.000014  -0.035638   0.000102  -0.000002   0.000000
    13  H    0.570738  -0.000016  -0.027896  -0.000033   0.000008   0.000000
    14  N   -0.000016   6.412643  -0.005397   0.000643   0.000929  -0.000386
    15  N   -0.027896  -0.005397   6.412638   0.000644   0.000929   0.000138
    16  C   -0.000033   0.000643   0.000644   4.845367   0.357188   0.415851
    17  H    0.000008   0.000929   0.000929   0.357188   0.575104  -0.014777
    18  H    0.000000  -0.000386   0.000138   0.415851  -0.014777   0.526192
    19  H   -0.000001   0.000138  -0.000386   0.415852  -0.014778  -0.015330
    20  C    0.000000   0.251991   0.000230  -0.001977  -0.001435  -0.001092
    21  H   -0.000000  -0.031526   0.000035   0.002689  -0.000918  -0.000041
    22  H   -0.000000  -0.022916  -0.000012  -0.000020  -0.000006  -0.000091
    23  H   -0.000000  -0.036777   0.000008  -0.000117   0.000122   0.000172
    24  C    0.000011   0.220744   0.001577  -0.002807  -0.000688   0.000315
    25  H    0.000000  -0.026830  -0.000025  -0.000177   0.000123  -0.000031
    26  H   -0.000000  -0.030572   0.000137   0.000946  -0.000155  -0.000057
    27  H   -0.000007  -0.031693  -0.000028   0.000526  -0.000167   0.000003
    28  C   -0.008188   0.000230   0.251992  -0.001978  -0.001435   0.000054
    29  H    0.007600  -0.000012  -0.022917  -0.000020  -0.000006   0.000007
    30  H   -0.000651   0.000035  -0.031527   0.002689  -0.000918   0.000128
    31  H   -0.000420   0.000008  -0.036777  -0.000117   0.000122  -0.000029
    32  C   -0.017633   0.001577   0.220744  -0.002808  -0.000688  -0.000070
    33  H   -0.000192   0.000137  -0.030572   0.000946  -0.000155   0.000072
    34  H    0.009259  -0.000025  -0.026831  -0.000177   0.000123   0.000002
    35  H   -0.003769  -0.000028  -0.031692   0.000526  -0.000167  -0.000004
    36  H    0.000007  -0.001414  -0.001415   0.355786  -0.028926  -0.014853
    37  H   -0.000009   0.000007   0.000007  -0.000000  -0.000000   0.000000
    38  C    0.007761  -0.084176  -0.084176  -0.007809  -0.001912   0.000159
    39  Rh   0.012358   0.253027   0.253027  -0.032448   0.043596  -0.005238
              19         20         21         22         23         24
     1  C   -0.000002   0.009857  -0.000773   0.001582  -0.000940  -0.000892
     2  C   -0.000005   0.001008   0.000112  -0.000113   0.000003   0.002067
     3  C    0.000000  -0.000995   0.000010   0.000137  -0.000139  -0.000249
     4  C    0.000000  -0.000073   0.000000   0.000004   0.000001  -0.000191
     5  C   -0.000000   0.000082  -0.000000  -0.000006   0.000002   0.000062
     6  H    0.000000  -0.000022   0.000001   0.000010  -0.000003   0.000005
     7  H   -0.000000   0.000000  -0.000000  -0.000000   0.000000  -0.000002
     8  C    0.000001  -0.039953   0.009445  -0.011098  -0.007028  -0.031855
     9  H    0.000000  -0.004899   0.000728  -0.003841   0.002434   0.006792
    10  H    0.000000  -0.008189  -0.000651   0.007599  -0.000420  -0.017633
    11  C   -0.000036   0.000037  -0.000010   0.000000  -0.000012   0.000287
    12  H    0.000004  -0.000002   0.000001  -0.000000   0.000002  -0.000010
    13  H   -0.000001   0.000000  -0.000000  -0.000000  -0.000000   0.000011
    14  N    0.000138   0.251991  -0.031526  -0.022916  -0.036777   0.220744
    15  N   -0.000386   0.000230   0.000035  -0.000012   0.000008   0.001577
    16  C    0.415852  -0.001977   0.002689  -0.000020  -0.000117  -0.002807
    17  H   -0.014778  -0.001435  -0.000918  -0.000006   0.000122  -0.000688
[...]
 -0.00001930,0.00003408,-0.00003446,-0.00003726,0.00001895,0.00000181,0
 .00001694,0.00000189,-0.00000240,-0.00000727,0.00001709,-0.00000651,-0
 .00000449,-0.00003353,0.00000609,0.00001680,0.00000639,0.00000437,0.00
 000034,0.00000491,0.00000303,0.00000342,-0.00030179,0.00033444,-0.0003
 7104,0.00012491,-0.00015205,0.00006459,-0.00008660,-0.00041087,0.00004
 089,-0.00001695,0.00014244,0.00000527,0.00776054,0.00463421,0.00541774
 ,-0.00000046,-0.00002454,0.00000282,-0.00001531,0.00003668,-0.00000724
 ,0.00000689,-0.00000792,-0.00000479,-0.00002113,0.00000840,0.00000044,
 0.00002489,0.00000020,0.00001659,0.00000002,0.00000118,0.00000156,-0.0
 0000700,0.00001285,-0.00000587,-0.00000038,0.00000219,-0.00001123,0.00
 001992,0.00000501,0.00000480,-0.00000018,0.00002022,-0.00000733,0.0000
 0947,-0.00000428,0.00000056,-0.00002735,-0.00000187,0.00000327,-0.0002
 2555,0.00041591,0.00079740,0.00009281,0.00049689,0.00036688,-0.0001428
 2,-0.00017100,0.00008063,-0.00003263,0.00047088,0.00034028,-0.10068401
 ,-0.12523685,-0.07770844,0.00620725,0.00433768,0.00526083,-0.02054609,
 -0.01411998,-0.01513424,0.10713184,0.13058851,0.00027389,0.00019819,-0
 .00000183,0.00038109,0.00020874,0.00004514,-0.00026846,0.00007380,-0.0
 0004720,0.00038545,0.00017054,0.00004553,-0.00000421,-0.00029911,-0.00
 001478,-0.00001061,-0.00001162,0.00000207,-0.00000597,0.00001683,0.000
 00398,-0.00004727,0.00002229,0.00002831,0.00001507,-0.00000736,0.00000
 106,0.00001348,-0.00001405,-0.00000846,-0.00148653,-0.00054943,0.00065
 789,-0.00014572,-0.00003513,0.00020074,0.00023583,-0.00016495,-0.00007
 631,0.00000596,0.00015129,0.00004430,-0.02446568,-0.01702119,-0.022463
 19,0.00006056,0.00001731,-0.00003822,0.00000516,0.00001619,-0.00000297
 ,0.00001536,0.00000209,0.00000201,0.00002849,-0.00000402,-0.00001836,0
 .00001454,0.00000656,0.00000819,0.00000227,0.00000190,0.00000311,-0.00
 000645,-0.00000379,-0.00001422,-0.00000134,-0.00000176,-0.00001737,0.0
 0000795,-0.00000339,-0.00001671,0.00000162,0.00000084,0.00000051,0.000
 00245,-0.00000141,0.00000247,-0.00000693,-0.00000327,0.00001010,0.0023
 1682,0.00272882,-0.00593111,0.00013337,-0.00009601,0.00005675,-0.00004
 982,0.00018817,0.00026288,-0.00125911,-0.00114842,-0.00118937,-0.09021
 070,-0.07108654,-0.11894638,0.00667725,0.00615197,0.00655125,0.0031051
 5,0.00168768,0.00300048,0.10465068,0.07932929,0.13837808,0.00028642,0.
 00044789,0.00007034,0.00028642,-0.00044790,0.00007033,-0.00037177,-0.0
 0010695,0.00018669,-0.00037176,0.00010696,0.00018669,0.00050543,-0.000
 00001,0.00001702,0.00000623,0.00005584,-0.00000746,0.00000623,-0.00005
 585,-0.00000746,-0.00028444,-0.00014387,-0.00011146,-0.00004729,0.0000
 5618,-0.00003370,0.00005183,0.00006929,0.00004336,-0.00028445,0.000143
 88,-0.00011147,-0.00004730,-0.00005618,-0.00003371,0.00005183,-0.00006
 929,0.00004336,-0.00028567,0.00026481,0.00004249,-0.00028566,-0.000264
 91,0.00004250,-0.11318587,-0.00000163,0.09368046,0.01620315,0.00000031
 ,-0.01648717,-0.00997174,-0.00196160,0.01500783,-0.00997119,0.00196101
 ,0.01500650,0.00033152,-0.00036860,0.00015661,-0.00018951,0.00011521,0
 .00011249,-0.00014597,0.00015098,-0.00005146,0.00006598,-0.00004098,-0
 .00013147,0.00014336,0.00001025,-0.00021252,-0.00002521,0.00019806,0.0
 0004691,0.00002671,0.00004486,0.00004391,-0.00005836,0.00002960,-0.000
 07090,0.00033165,0.00036905,0.00015658,-0.00014605,-0.00015098,-0.0000
 5144,-0.00018932,-0.00011561,0.00011254,0.00006603,0.00004080,-0.00013
 141,0.00014333,-0.00001023,-0.00021252,0.00002671,-0.00004487,0.000043
 91,-0.00002523,-0.00019806,0.00004691,-0.00005836,-0.00002960,-0.00007
 090,0.12987944,0.00006306,-0.00007977,0.00003501,-0.00006318,-0.000079
 70,-0.00003498,0.00004785,-0.00001327,0.00002137,-0.00004780,-0.000013
 27,-0.00002134,-0.00000004,0.00005269,0.,0.00000962,0.00000255,0.00000
 209,-0.00000963,0.00000256,-0.00000209,-0.00009947,-0.00000919,0.00005
 829,0.00000061,0.00001064,0.00000556,0.00002596,0.00001318,0.00000135,
 0.00009949,-0.00000923,-0.00005831,-0.00000059,0.00001065,-0.00000556,
 -0.00002597,0.00001320,-0.00000135,-0.00023156,0.00044643,-0.00026299,
 0.00023167,0.00044654,0.00026291,-0.00000184,-0.03873008,0.00000270,0.
 00000043,-0.00254494,-0.00000049,0.01169983,0.00084907,-0.02142025,-0.
 01170022,0.00084843,0.02142109,-0.00023208,-0.00004697,0.00008647,0.00
 021997,-0.00019195,-0.00019290,0.00014911,0.00006549,-0.00001870,-0.00
 006293,-0.00010046,-0.00000740,0.00000653,-0.00006380,-0.00009059,0.00
 000547,-0.00000322,0.00000666,0.00001723,0.00001311,-0.00000016,0.0000
 1639,-0.00000112,0.00004375,0.00023253,-0.00004712,-0.00008659,-0.0001
 4919,0.00006553,0.00001871,-0.00022058,-0.00019147,0.00019304,0.000062
 92,-0.00010054,0.00000738,-0.00000656,-0.00006380,0.00009064,-0.000017
 24,0.00001311,0.00000015,-0.00000547,-0.00000318,-0.00000666,-0.000016
 38,-0.00000111,-0.00004374,0.00000189,0.04092299,0.00073459,0.00000151
 ,-0.00010694,0.00073462,-0.00000154,-0.00010694,-0.00002985,0.00023178
 ,-0.00021382,-0.00002986,-0.00023179,-0.00021382,0.00011274,0.,0.00004
 166,0.00008557,0.00001986,0.00001914,0.00008557,-0.00001986,0.00001914
 ,0.00015226,0.00000974,0.00021169,-0.00003241,-0.00001015,-0.00001987,
 0.00002882,0.00006823,-0.00003262,0.00015227,-0.00000973,0.00021169,-0
 .00003242,0.00001016,-0.00001987,0.00002881,-0.00006823,-0.00003262,0.
 00009762,-0.00006982,-0.00006424,0.00009755,0.00006978,-0.00006425,0.1
 0808782,0.00000259,-0.21832457,0.01461520,0.00000047,-0.01554037,-0.00
 101794,0.00007900,0.00056475,-0.00101795,-0.00007921,0.00056468,-0.000
 14479,0.00013397,0.00012904,0.00012678,-0.00008556,-0.00009230,0.00010
 650,0.00001023,-0.00001247,-0.00001422,0.00001823,0.00004373,-0.000010
 53,-0.00005575,-0.00015850,-0.00000661,-0.00003390,0.00003695,-0.00001
 213,0.00004350,0.00000078,0.00004525,-0.00001893,0.00001704,-0.0001450
 6,-0.00013405,0.00012896,0.00010658,-0.00001023,-0.00001250,0.00012698
 ,0.00008572,-0.00009239,-0.00001419,-0.00001823,0.00004367,-0.00001052
 ,0.00005574,-0.00015851,-0.00001213,-0.00004350,0.00000078,-0.00000660
 ,0.00003390,0.00003695,0.00004524,0.00001893,0.00001705,-0.10821452,-0
 .00000334,0.24016681,0.00051181,0.00310568,-0.00067771,0.00051159,-0.0
 0310589,-0.00067774,-0.01116580,-0.00341468,-0.00110814,-0.01116701,0.
 00341543,-0.00110824,-0.33732306,0.00000639,-0.02764077,0.00082447,0.0
 0036778,0.00046076,0.00082448,-0.00036777,0.00046077,-0.00028191,-0.00
 058704,-0.00000029,-0.00008458,0.00008065,-0.00004357,-0.00001427,0.00
 006069,0.00003614,-0.00028192,0.00058709,-0.00000028,-0.00008459,-0.00
 008065,-0.00004357,-0.00001427,-0.00006069,0.00003614,-0.00020179,0.00
 024852,-0.00009151,-0.00020183,-0.00024853,-0.00009151,-0.00007474,0.,
 0.00001524,0.00002231,0.,-0.00003455,-0.00002310,0.00000573,-0.0000008
 5,-0.00002309,-0.00000573,-0.00000085,-0.00003617,-0.00008074,0.000130
 93,-0.00004521,0.00001725,-0.00001488,0.00000855,0.00003104,-0.0000020
 8,0.00000753,0.00000227,0.00000124,-0.00002295,-0.00003105,-0.00010444
 ,0.00000544,0.00003340,0.00000818,-0.00001842,0.00000199,0.00001764,0.
 00001174,0.00000211,-0.00001675,-0.00003618,0.00008075,0.00013094,0.00
 000855,-0.00003105,-0.00000208,-0.00004522,-0.00001725,-0.00001488,0.0
 0000753,-0.00000227,0.00000124,-0.00002295,0.00003106,-0.00010445,-0.0
 0001842,-0.00000199,0.00001764,0.00000544,-0.00003340,0.00000818,0.000
 01175,-0.00000211,-0.00001675,0.00003275,0.,0.00002283,0.35767369,0.00
 232037,-0.00461784,0.00057167,-0.00232062,-0.00461759,-0.00057167,0.02
 824553,0.00436042,0.00244799,-0.02824480,0.00436161,-0.00244793,0.0000
 0645,-0.05942224,0.00000062,-0.00059863,0.00107541,-0.00014467,0.00059
 863,0.00107540,0.00014465,0.00080493,0.00065845,-0.00011104,0.00002704
 ,-0.00005158,0.00005309,0.00000251,-0.00002434,-0.00004013,-0.00080489
 ,0.00065847,0.00011104,-0.00002704,-0.00005157,-0.00005308,-0.00000251
 ,-0.00002433,0.00004013,0.00034297,-0.00027286,0.00014003,-0.00034298,
 -0.00027284,-0.00014003,0.,-0.00001303,0.,0.,-0.00000489,0.,0.00000030
 ,0.00000166,-0.00000019,-0.00000030,0.00000166,0.00000019,0.00009899,0
 .00006447,-0.00011809,0.00005302,-0.00002675,0.00001934,-0.00000939,-0
 .00000633,-0.00000004,-0.00000911,-0.00000161,0.00000151,0.00002272,0.
 00002638,0.00007106,-0.00000005,-0.00000764,-0.00000197,0.00001693,-0.
 00000564,-0.00002140,-0.00001245,-0.00000394,0.00000828,-0.00009899,0.
 00006448,0.00011808,0.00000939,-0.00000633,0.00000004,-0.00005302,-0.0
 0002675,-0.00001934,0.00000911,-0.00000161,-0.00000151,-0.00002272,0.0
 0002638,-0.00007105,-0.00001693,-0.00000564,0.00002140,0.00000005,-0.0
 0000764,0.00000197,0.00001245,-0.00000394,-0.00000828,0.,-0.00000436,0
 .,-0.00000692,0.05834758,-0.00033562,0.00057862,0.00653937,-0.00033567
 ,-0.00057861,0.00653935,-0.00149054,-0.00018349,0.00206441,-0.00149059
 ,0.00018358,0.00206442,-0.02747484,0.00000061,-0.03507928,0.00044225,-
 0.00012650,-0.00421534,0.00044226,0.00012648,-0.00421534,0.00006160,-0
 .00002765,0.00070248,0.00000184,-0.00007932,0.00000881,-0.00004655,0.0
 0002128,-0.00002884,0.00006160,0.00002766,0.00070248,0.00000185,0.0000
 7932,0.00000881,-0.00004655,-0.00002128,-0.00002884,-0.00020692,0.0000
 9381,-0.00009441,-0.00020693,-0.00009380,-0.00009441,-0.00001093,0.,-0
 .00002720,0.00002315,0.,0.00001958,-0.00000085,0.00000015,0.00001556,-
 0.00000085,-0.00000015,0.00001555,-0.00001893,-0.00000353,0.00002690,-
 0.00000394,0.00000595,-0.00000751,-0.00000310,0.00001193,-0.00000051,0
 .00000449,0.00000193,0.00000277,-0.00000538,-0.00003013,-0.00002336,0.
 00000236,-0.00000633,-0.00000246,0.00000004,0.00000406,0.00000690,0.00
 001131,-0.00000850,0.00000060,-0.00001893,0.00000353,0.00002690,-0.000
 00310,-0.00001193,-0.00000051,-0.00000394,-0.00000595,-0.00000751,0.00
 000449,-0.00000193,0.00000277,-0.00000538,0.00003013,-0.00002336,0.000
 00004,-0.00000406,0.00000690,0.00000237,0.00000633,-0.00000246,0.00001
 131,0.00000850,0.00000060,-0.00001532,0.,0.00002490,0.03024644,-0.0000
 0068,0.02714030,-0.15335529,-0.09409278,-0.00316152,-0.15334598,0.0940
 8841,-0.00316095,-0.03101500,-0.03199663,-0.00212020,-0.03101037,0.032
 00009,-0.00211993,0.00761697,-0.00000266,0.00182720,-0.00587416,0.0008
 1335,-0.00134262,-0.00587422,-0.00081301,-0.00134256,0.01513211,0.0132
 2659,-0.00204447,-0.00236568,0.00222555,-0.00056169,-0.00278905,0.0024
 2254,-0.00028195,0.01513494,-0.01322738,-0.00204416,-0.00236582,-0.002
 22540,-0.00056167,-0.00278932,-0.00242268,-0.00028199,0.00061069,0.002
 60556,0.00015263,0.00060938,-0.00260459,0.00015248,0.00038422,0.000000
 28,-0.00100530,-0.00276957,0.00000007,-0.00004448,0.00024149,-0.000400
 49,0.00010150,0.00024158,0.00040046,0.00010148,-0.00088491,-0.00047353
 ,-0.00042957,-0.00031747,0.00028810,-0.00006858,0.00011442,-0.00077892
 ,0.00015233,0.00012027,0.00012927,-0.00008970,-0.00023683,0.00071551,0
 .00139272,-0.00038078,-0.00052959,-0.00031654,-0.00020946,0.00013659,0
 .00041723,0.00007546,0.00025227,-0.00024603,-0.00088478,0.00047356,-0.
 00042952,0.00011445,0.00077890,0.00015234,-0.00031749,-0.00028817,-0.0
 0006856,0.00012030,-0.00012927,-0.00008966,-0.00023688,-0.00071560,0.0
 0139284,-0.00020949,-0.00013661,0.00041724,-0.00038076,0.00052960,-0.0
 0031655,0.00007525,-0.00025228,-0.00024606,-0.00427889,0.00000020,0.00
 091803,0.00078458,-0.00000005,0.00039404,0.52230160,-0.06317058,-0.264
 72295,0.00657837,0.06316581,-0.26472857,-0.00657853,-0.07787802,0.0359
 5008,-0.00410344,0.07788120,0.03594472,0.00410367,-0.00000199,-0.07485
 700,-0.00000012,0.00095882,0.00153954,-0.00095512,-0.00095848,0.001539
 63,0.00095514,-0.00782924,-0.03710554,0.00109446,-0.00046347,-0.001016
 38,-0.00043764,0.00335025,-0.00446136,0.00013562,0.00783094,-0.0371025
 4,-0.00109414,0.00046355,-0.00101636,0.00043765,-0.00335033,-0.0044611
 7,-0.00013566,0.00682286,-0.00293618,-0.00113830,-0.00682494,-0.002935
 40,0.00113878,0.,0.00703366,0.00000002,0.00000001,0.00064234,0.0000001
 0,-0.00164150,-0.00022762,0.00023309,0.00164166,-0.00022763,-0.0002331
 0,-0.00040704,-0.00041881,-0.00035267,-0.00010944,0.00004975,-0.000049
 08,-0.00023366,-0.00032375,0.00013972,-0.00003367,-0.00003319,-0.00008
 212,0.00030997,-0.00006505,-0.00018928,-0.00023454,-0.00010443,0.00029
 628,-0.00011049,-0.00004146,-0.00005199,0.00024808,-0.00033589,0.00001
 520,0.00040707,-0.00041896,0.00035283,0.00023358,-0.00032380,-0.000139
 74,0.00010947,0.00004966,0.00004907,0.00003366,-0.00003320,0.00008208,
 -0.00031007,-0.00006517,0.00018925,0.00011048,-0.00004147,0.00005197,0
 .00023455,-0.00010445,-0.00029627,-0.00024800,-0.00033605,-0.00001493,
 0.00000003,0.00065291,-0.00000014,-0.00000006,-0.00124523,-0.00000003,
 0.00000059,0.66617118,-0.00410960,-0.00081039,-0.06571298,-0.00410874,
 0.00081041,-0.06571252,-0.00333410,-0.00152625,0.01185734,-0.00333377,
 0.00152634,0.01185731,0.00003372,-0.00000007,-0.00739646,-0.00088910,0
 .00009682,0.00737545,-0.00088910,-0.00009679,0.00737545,0.00293235,0.0
 0585517,0.00345834,-0.00023290,-0.00005505,0.00033181,-0.00076854,-0.0
 0023809,0.00028892,0.00293274,-0.00585493,0.00345886,-0.00023294,0.000
 05508,0.00033181,-0.00076853,0.00023811,0.00028894,0.00007389,-0.00030
 091,0.00114231,0.00007394,0.00030097,0.00114212,-0.00048461,-0.0000000
 9,-0.00438080,0.00283491,0.00000005,0.00281080,0.00024527,0.00000444,0
 .00200095,0.00024522,-0.00000442,0.00200068,-0.00036011,0.00005350,-0.
 00024561,-0.00003060,0.00000214,-0.00008778,0.00005967,0.00003627,0.00
 011405,-0.00006169,0.00008801,0.00025783,0.00008810,-0.00048221,-0.000
 62196,-0.00013872,-0.00030342,0.00012787,-0.00020171,0.00003865,0.0002
 3105,0.00031582,-0.00013564,-0.00021547,-0.00036015,-0.00005341,-0.000
 24565,0.00005967,-0.00003627,0.00011406,-0.00003062,-0.00000213,-0.000
 08778,-0.00006168,-0.00008798,0.00025780,0.00008830,0.00048224,-0.0006
 2227,-0.00020172,-0.00003866,0.00023105,-0.00013870,0.00030343,0.00012
 788,0.00031592,0.00013582,-0.00021537,-0.00166849,-0.00000016,0.002561
 13,0.00014891,0.,-0.00172907,0.01079229,-0.00000095,0.11634599,-0.0222
 3798,-0.01891464,-0.00007508,-0.02223620,0.01891623,-0.00007503,0.0054
 6018,0.00006893,0.00014180,0.00546018,-0.00006943,0.00014177,-0.005968
 11,0.00000020,-0.00042589,0.00017360,-0.00027593,-0.00001835,0.0001736
 6,0.00027593,-0.00001835,-0.00625487,-0.00863768,0.00014563,0.00102885
 ,-0.00046265,-0.00009372,-0.00194733,-0.00003816,0.00043524,-0.0062542
 0,0.00863788,0.00014557,0.00102884,0.00046262,-0.00009367,-0.00194736,
 0.00003828,0.00043524,-0.03279787,0.00392750,0.00129792,-0.03279785,-0
 .00392859,0.00129768,-0.01148398,-0.00000128,0.00442369,-0.00294114,0.
 00000012,0.01258715,0.00137938,0.00032584,-0.00040244,0.00137854,-0.00
 032546,-0.00040233,0.00217757,0.00662225,0.00151025,0.00044770,0.00053
 389,0.00008317,-0.00049715,0.00215385,-0.00117888,-0.00002654,0.000104
 21,0.00003715,0.00000064,-0.00031413,-0.00122222,0.00110679,0.00011013
 ,0.00043688,0.00053670,0.00069839,-0.00017455,0.00023352,-0.00101782,-
 0.00002989,0.00217709,-0.00662282,0.00151002,-0.00049728,-0.00215375,-
 0.00117882,0.00044758,-0.00053363,0.00008325,-0.00002647,-0.00010414,0
 .00003722,0.00000071,0.00031364,-0.00122168,0.00053671,-0.00069848,-0.
 00017448,0.00110677,-0.00011017,0.00043681,0.00023355,0.00101775,-0.00
 002992,-0.00822099,-0.00000001,-0.01575991,-0.00006473,0.,0.00001342,-
 0.16178554,0.00000295,0.00116544,0.29289702,-0.01813439,0.00074366,-0.
 00038950,0.01813533,0.00074157,0.00038949,0.00004375,-0.00501990,-0.00
 006921,-0.00004424,-0.00501989,0.00006918,0.00000018,0.00150389,0.0000
 0002,-0.00102607,0.00013208,-0.00017980,0.00102607,0.00013202,0.000179
 80,-0.01329741,-0.00674294,0.00201729,0.00056821,0.00033330,-0.0006387
 8,0.00054006,0.00031376,0.00028012,0.01329839,-0.00674405,-0.00201745,
 -0.00056824,0.00033331,0.00063879,-0.00053999,0.00031377,-0.00028016,-
 0.00837904,-0.03028971,-0.00137182,0.00837873,-0.03028942,0.00137154,0
 .00000029,-0.01516327,-0.00000003,-0.00000029,-0.00111112,-0.00000018,
 0.00401769,0.00132183,-0.00043165,-0.00401837,0.00132190,0.00043169,0.
 00333513,-0.00793346,0.00420280,-0.00058282,0.00017819,-0.00046128,-0.
 00063818,0.00114686,-0.00092365,-0.00056840,-0.00009150,-0.00098473,-0
 .00056504,-0.00735405,-0.00964604,0.00017669,-0.00001256,0.00117085,-0
 .00059925,-0.00077943,0.00023656,0.00033481,-0.00127382,0.00045407,-0.
 00333603,-0.00793281,-0.00420280,0.00063835,0.00114695,0.00092367,0.00
 058299,0.00017832,0.00046118,0.00056840,-0.00009153,0.00098471,0.00056
 452,-0.00735407,0.00964626,0.00059921,-0.00077942,-0.00023659,-0.00017
 675,-0.00001254,-0.00117087,-0.00033488,-0.00127381,-0.00045409,0.0000
 0023,-0.00213054,0.00000063,0.,0.00000417,0.,0.00000215,-0.04988385,0.
 00000034,-0.00000181,0.17743810,-0.00078501,0.00008527,0.00738830,-0.0
 0078504,-0.00008520,0.00738835,-0.00022351,-0.00005419,0.00313618,-0.0
 0022354,0.00005418,0.00313619,-0.00011015,0.00000002,-0.00052497,0.000
 00042,0.00004446,-0.00037328,0.00000041,-0.00004446,-0.00037328,0.0003
 0633,0.00260575,-0.00082308,-0.00040121,0.00019363,0.00016294,0.001129
 49,0.00022025,0.00030991,0.00030610,-0.00260576,-0.00082306,-0.0004012
 2,-0.00019358,0.00016293,0.00112950,-0.00022030,0.00030991,0.00159632,
 0.00158540,-0.02934819,0.00159581,-0.00158602,-0.02934894,0.00302443,0
 .00000018,0.01868475,-0.00461940,-0.00000008,-0.00998599,-0.00019617,-
 0.00000482,-0.00366827,-0.00019604,0.00000478,-0.00366772,0.00137895,0
 .00614253,0.00031304,-0.00009787,-0.00007580,0.00009829,-0.00103963,0.
 00154811,-0.00015632,0.00023087,0.00055371,0.00025198,-0.00240622,-0.0
 1163793,-0.00334209,0.00003109,-0.00200762,-0.00176619,-0.00033596,-0.
 00114154,-0.00042087,0.00027563,-0.00123464,-0.00032062,0.00137874,-0.
 00614248,0.00031310,-0.00103972,-0.00154805,-0.00015630,-0.00009788,0.
 00007584,0.00009830,0.00023086,-0.00055369,0.00025203,-0.00240571,0.01
 163822,-0.00334206,-0.00033593,0.00114157,-0.00042088,0.00003118,0.002
 00761,-0.00176618,0.00027569,0.00123463,-0.00032064,0.00250593,0.00000
 047,-0.00957397,0.00005266,0.,-0.00033993,0.00400989,-0.00000008,-0.02
 881607,-0.00379007,-0.00000036,0.08767271\\-0.00002477,-0.00000294,-0.
 00000640,-0.00002455,0.00000304,-0.00000647,0.00000947,0.00000566,0.00
 000834,0.00000948,-0.00000565,0.00000816,-0.00000555,-0.00000003,0.000
 00724,0.00000129,-0.00000235,0.00000295,0.00000128,0.00000233,0.000002
 98,-0.00000771,0.00000791,0.00000280,-0.00000061,-0.00000376,0.0000028
 7,0.00000253,-0.00000651,0.00000100,-0.00000751,-0.00000770,0.00000290
 ,-0.00000046,0.00000380,0.00000291,0.00000258,0.00000651,0.00000100,-0
 .00000969,0.00000542,0.00000917,-0.00000947,-0.00000542,0.00000916,0.0
 0003833,0.00000051,0.00000198,-0.00002754,-0.00000015,0.00003116,-0.00
 000060,0.00000184,-0.00000751,0.00000029,-0.00000231,-0.00000769,0.000
 00428,0.00002182,-0.00000093,0.00000099,-0.00000569,-0.00000415,0.0000
 0200,-0.00000817,-0.00000220,-0.00000194,-0.00000136,-0.00000068,-0.00
 000389,0.00000374,-0.00000722,0.00000012,-0.00000508,-0.00000010,0.000
 00097,-0.00000099,-0.00000073,-0.00000262,0.00000105,0.00000251,0.0000
 0423,-0.00002212,-0.00000090,0.00000201,0.00000814,-0.00000224,0.00000
 036,0.00000629,-0.00000392,-0.00000192,0.00000135,-0.00000057,-0.00000
 400,-0.00000372,-0.00000728,0.00000102,0.00000101,-0.00000083,0.000000
 12,0.00000506,-0.00000013,-0.00000262,-0.00000101,0.00000248,0.0000302
 1,-0.00000012,0.00002246,0.00000078,-0.00000001,0.00000228,0.00006347,
 -0.00000010,0.00001267,-0.00004034,-0.00000029,-0.00007708\\\@
 The archive entry for this job was punched.


 THIS CURIOUS WORLD WHICH WE INHABIT IS MORE WONDERFUL THAN IT IS CONVENIENT;
 MORE BEAUTIFUL THAN IT IS USEFUL;
 IT IS MORE TO BE ADMIRED THAN IT IS TO BE USED.

                                                                 -- THOREAU
 Job cpu time:       3 days 20 hours 33 minutes  6.1 seconds.
 Elapsed time:       0 days 12 hours  5 minutes 51.7 seconds.
 File lengths (MBytes):  RWF=   1828 Int=      0 D2E=      0 Chk=     68 Scr=      1
 Normal termination of Gaussian 16 at Fri Mar  8 08:22:47 2024.
