 Entering Gaussian System, Link 0=/cm/shared/apps//g16/g16
 Input=YRhMeH.gjf
 Output=YRhMeH.log
 Initial command:
 /cm/shared/apps//g16/l1.exe "/local/mvanvleet/pbs.14047.josephine/Gau-1993615.inp" -scrdir="/local/mvanvleet/pbs.14047.josephine/"
 Entering Link 1 = /cm/shared/apps//g16/l1.exe PID=   1993621.
  
 Copyright (c) 1988-2019, Gaussian, Inc.  All Rights Reserved.
  
 This is part of the Gaussian(R) 16 program.  It is based on
 the Gaussian(R) 09 system (copyright 2009, Gaussian, Inc.),
 the Gaussian(R) 03 system (copyright 2003, Gaussian, Inc.),
 the Gaussian(R) 98 system (copyright 1998, Gaussian, Inc.),
 the Gaussian(R) 94 system (copyright 1995, Gaussian, Inc.),
 the Gaussian 92(TM) system (copyright 1992, Gaussian, Inc.),
 the Gaussian 90(TM) system (copyright 1990, Gaussian, Inc.),
 the Gaussian 88(TM) system (copyright 1988, Gaussian, Inc.),
 the Gaussian 86(TM) system (copyright 1986, Carnegie Mellon
 University), and the Gaussian 82(TM) system (copyright 1983,
 Carnegie Mellon University). Gaussian is a federally registered
 trademark of Gaussian, Inc.
  
 This software contains proprietary and confidential information,
 including trade secrets, belonging to Gaussian, Inc.
  
 This software is provided under written license and may be
 used, copied, transmitted, or stored only in accord with that
 written license.
  
 The following legend is applicable only to US Government
 contracts under FAR:
  
                    RESTRICTED RIGHTS LEGEND
  
 Use, reproduction and disclosure by the US Government is
 subject to restrictions as set forth in subparagraphs (a)
 and (c) of the Commercial Computer Software - Restricted
 Rights clause in FAR 52.227-19.
  
 Gaussian, Inc.
 340 Quinnipiac St., Bldg. 40, Wallingford CT 06492
  
  
 ---------------------------------------------------------------
 Warning -- This program may not be used in any manner that
 competes with the business of Gaussian, Inc. or will provide
 assistance to any competitor of Gaussian, Inc.  The licensee
 of this program is prohibited from giving any competitor of
 Gaussian, Inc. access to this program.  By using this program,
 the user acknowledges that Gaussian, Inc. is engaged in the
 business of creating and licensing software in the field of
 computational chemistry and represents and warrants to the
 licensee that it is not a competitor of Gaussian, Inc. and that
 it will not use this program in any manner prohibited above.
 ---------------------------------------------------------------
  

 Cite this work as:
 Gaussian 16, Revision C.01,
 M. J. Frisch, G. W. Trucks, H. B. Schlegel, G. E. Scuseria, 
 M. A. Robb, J. R. Cheeseman, G. Scalmani, V. Barone, 
 G. A. Petersson, H. Nakatsuji, X. Li, M. Caricato, A. V. Marenich, 
 J. Bloino, B. G. Janesko, R. Gomperts, B. Mennucci, H. P. Hratchian, 
 J. V. Ortiz, A. F. Izmaylov, J. L. Sonnenberg, D. Williams-Young, 
 F. Ding, F. Lipparini, F. Egidi, J. Goings, B. Peng, A. Petrone, 
 T. Henderson, D. Ranasinghe, V. G. Zakrzewski, J. Gao, N. Rega, 
 G. Zheng, W. Liang, M. Hada, M. Ehara, K. Toyota, R. Fukuda, 
 J. Hasegawa, M. Ishida, T. Nakajima, Y. Honda, O. Kitao, H. Nakai, 
 T. Vreven, K. Throssell, J. A. Montgomery, Jr., J. E. Peralta, 
 F. Ogliaro, M. J. Bearpark, J. J. Heyd, E. N. Brothers, K. N. Kudin, 
 V. N. Staroverov, T. A. Keith, R. Kobayashi, J. Normand, 
 K. Raghavachari, A. P. Rendell, J. C. Burant, S. S. Iyengar, 
 J. Tomasi, M. Cossi, J. M. Millam, M. Klene, C. Adamo, R. Cammi, 
 J. W. Ochterski, R. L. Martin, K. Morokuma, O. Farkas, 
 J. B. Foresman, and D. J. Fox, Gaussian, Inc., Wallingford CT, 2019.
 
 ******************************************
 Gaussian 16:  ES64L-G16RevC.01  3-Jul-2019
                 7-Mar-2024 
 ******************************************
 %nprocshared=8
 Will use up to    8 processors via shared memory.
 %chk=YRhMeH.chk
 %mem=1GB
 ----------------------------------------------------------
 # wb97xd def2TZVPP SCRF=(solvent=dichloromethane) opt freq
 ----------------------------------------------------------
 1/18=20,19=15,26=3,38=1/1,3;
 2/9=110,12=2,17=6,18=5,40=1/2;
 3/5=44,7=202,11=2,25=1,30=1,70=2201,71=1,72=9,74=-58/1,2,3;
 4//1;
 5/5=2,38=5,53=9/2;
 6/7=2,8=2,9=2,10=2,28=1/1;
 7//1,2,3,16;
 1/18=20,19=15,26=3/3(2);
 2/9=110/2;
 99//99;
 2/9=110/2;
 3/5=44,7=202,11=2,25=1,30=1,70=2205,71=1,72=9,74=-58/1,2,3;
 4/5=5,16=3,69=1/1;
 5/5=2,38=5,53=9/2;
 7//1,2,3,16;
 1/18=20,19=15,26=3/3(-5);
 2/9=110/2;
 6/7=2,8=2,9=2,10=2,19=2,28=1/1;
 99/9=1/99;
 ------
 YRhMeH
 ------
 Symbolic Z-matrix:
 Charge =  0 Multiplicity = 1
 C                    -1.22737   1.72623  -0.13257 
 C                     1.22708   1.72644  -0.13255 
 C                    -1.22558   3.0864    0.19424 
 C                     1.22506   3.0866    0.19426 
 C                    -0.00032   3.7561    0.3737 
 H                    -2.16793   3.63838   0.29926 
 H                     2.16731   3.63874   0.29931 
 C                    -2.39075   0.84394  -0.51536 
 H                    -2.46403   0.80067  -1.62024 
 H                    -3.37462   1.17568  -0.11923 
 C                     2.39062   0.84434  -0.51532 
 H                     2.46393   0.80111  -1.6202 
 H                     3.37442   1.17625  -0.11917 
 N                    -2.1169   -0.56861  -0.06292 
 N                     2.11699  -0.56827  -0.06292 
 C                     0.00025  -2.66073   0.95987 
 H                     0.00025  -2.37195   2.03465 
 H                    -0.89187  -3.30769   0.81774 
 H                     0.89247  -3.30754   0.8177 
 C                    -2.94771  -1.51144  -0.83503 
 H                    -2.76494  -2.53083  -0.46202 
 H                    -4.02638  -1.26386  -0.72341 
 H                    -2.66148  -1.45384  -1.89655 
 C                    -2.48002  -0.66471   1.37116 
 H                    -3.55736  -0.42564   1.50094 
 H                    -2.28138  -1.68189   1.73466 
 H                    -1.87168   0.05705   1.93953 
 C                     2.94795  -1.51094  -0.83506 
 H                     4.02658  -1.26319  -0.72343 
 H                     2.76534  -2.53037  -0.46209 
 H                     2.66172  -1.45334  -1.89658 
 C                     2.48012  -0.66436   1.37115 
 H                     2.2816   -1.68159   1.73461 
 H                     3.55743  -0.42517   1.50095 
 H                     1.87168   0.05729   1.93954 
 H                     0.00001  -0.13454  -1.63664 
 H                    -0.00041   4.81704   0.63871 
 C                    -0.00009   1.05052  -0.23231 
 Rh                    0.00007  -0.86718  -0.23765 
 

 GradGradGradGradGradGradGradGradGradGradGradGradGradGradGradGradGradGrad
 Berny optimization.
 Initialization pass.
                           ----------------------------
                           !    Initial Parameters    !
                           ! (Angstroms and Degrees)  !
 --------------------------                            --------------------------
 ! Name  Definition              Value          Derivative Info.                !
 --------------------------------------------------------------------------------
 ! R1    R(1,3)                  1.3989         estimate D2E/DX2                !
 ! R2    R(1,8)                  1.5094         estimate D2E/DX2                !
 ! R3    R(1,38)                 1.4045         estimate D2E/DX2                !
 ! R4    R(2,4)                  1.3989         estimate D2E/DX2                !
 ! R5    R(2,11)                 1.5094         estimate D2E/DX2                !
 ! R6    R(2,38)                 1.4046         estimate D2E/DX2                !
 ! R7    R(3,5)                  1.4078         estimate D2E/DX2                !
 ! R8    R(3,6)                  1.0971         estimate D2E/DX2                !
 ! R9    R(4,5)                  1.4078         estimate D2E/DX2                !
 ! R10   R(4,7)                  1.0971         estimate D2E/DX2                !
 ! R11   R(5,37)                 1.0935         estimate D2E/DX2                !
 ! R12   R(8,9)                  1.1082         estimate D2E/DX2                !
 ! R13   R(8,10)                 1.1113         estimate D2E/DX2                !
 ! R14   R(8,14)                 1.5083         estimate D2E/DX2                !
 ! R15   R(11,12)                1.1082         estimate D2E/DX2                !
 ! R16   R(11,13)                1.1113         estimate D2E/DX2                !
 ! R17   R(11,15)                1.5083         estimate D2E/DX2                !
 ! R18   R(14,20)                1.4749         estimate D2E/DX2                !
 ! R19   R(14,24)                1.4825         estimate D2E/DX2                !
 ! R20   R(14,39)                2.145          estimate D2E/DX2                !
 ! R21   R(15,28)                1.4749         estimate D2E/DX2                !
 ! R22   R(15,32)                1.4824         estimate D2E/DX2                !
 ! R23   R(15,39)                2.145          estimate D2E/DX2                !
 ! R24   R(16,17)                1.1129         estimate D2E/DX2                !
 ! R25   R(16,18)                1.1111         estimate D2E/DX2                !
 ! R26   R(16,19)                1.1111         estimate D2E/DX2                !
 ! R27   R(16,39)                2.1566         estimate D2E/DX2                !
 ! R28   R(20,21)                1.1008         estimate D2E/DX2                !
 ! R29   R(20,22)                1.1123         estimate D2E/DX2                !
 ! R30   R(20,23)                1.1009         estimate D2E/DX2                !
 ! R31   R(24,25)                1.1112         estimate D2E/DX2                !
 ! R32   R(24,26)                1.0983         estimate D2E/DX2                !
 ! R33   R(24,27)                1.1018         estimate D2E/DX2                !
 ! R34   R(28,29)                1.1123         estimate D2E/DX2                !
 ! R35   R(28,30)                1.1008         estimate D2E/DX2                !
 ! R36   R(28,31)                1.1009         estimate D2E/DX2                !
 ! R37   R(32,33)                1.0983         estimate D2E/DX2                !
 ! R38   R(32,34)                1.1112         estimate D2E/DX2                !
 ! R39   R(32,35)                1.1018         estimate D2E/DX2                !
 ! R40   R(36,39)                1.5792         estimate D2E/DX2                !
 ! R41   R(38,39)                1.9177         estimate D2E/DX2                !
 ! A1    A(3,1,8)              128.9447         estimate D2E/DX2                !
 ! A2    A(3,1,38)             118.8977         estimate D2E/DX2                !
 ! A3    A(8,1,38)             111.978          estimate D2E/DX2                !
 ! A4    A(4,2,11)             128.9446         estimate D2E/DX2                !
 ! A5    A(4,2,38)             118.8978         estimate D2E/DX2                !
 ! A6    A(11,2,38)            111.978          estimate D2E/DX2                !
 ! A7    A(1,3,5)              119.5662         estimate D2E/DX2                !
 ! A8    A(1,3,6)              120.6935         estimate D2E/DX2                !
 ! A9    A(5,3,6)              119.7357         estimate D2E/DX2                !
 ! A10   A(2,4,5)              119.5662         estimate D2E/DX2                !
 ! A11   A(2,4,7)              120.694          estimate D2E/DX2                !
 ! A12   A(5,4,7)              119.7352         estimate D2E/DX2                !
 ! A13   A(3,5,4)              121.0017         estimate D2E/DX2                !
 ! A14   A(3,5,37)             119.4945         estimate D2E/DX2                !
 ! A15   A(4,5,37)             119.4944         estimate D2E/DX2                !
 ! A16   A(1,8,9)              109.0649         estimate D2E/DX2                !
 ! A17   A(1,8,10)             114.6754         estimate D2E/DX2                !
 ! A18   A(1,8,14)             109.3537         estimate D2E/DX2                !
 ! A19   A(9,8,10)             107.9699         estimate D2E/DX2                !
 ! A20   A(9,8,14)             105.9333         estimate D2E/DX2                !
 ! A21   A(10,8,14)            109.4742         estimate D2E/DX2                !
 ! A22   A(2,11,12)            109.0641         estimate D2E/DX2                !
 ! A23   A(2,11,13)            114.675          estimate D2E/DX2                !
 ! A24   A(2,11,15)            109.3541         estimate D2E/DX2                !
 ! A25   A(12,11,13)           107.9695         estimate D2E/DX2                !
 ! A26   A(12,11,15)           105.9333         estimate D2E/DX2                !
 ! A27   A(13,11,15)           109.4754         estimate D2E/DX2                !
 ! A28   A(8,14,20)            109.838          estimate D2E/DX2                !
 ! A29   A(8,14,24)            107.8432         estimate D2E/DX2                !
 ! A30   A(8,14,39)            106.565          estimate D2E/DX2                !
 ! A31   A(20,14,24)           109.0868         estimate D2E/DX2                !
 ! A32   A(20,14,39)           115.1067         estimate D2E/DX2                !
 ! A33   A(24,14,39)           108.1505         estimate D2E/DX2                !
 ! A34   A(11,15,28)           109.8376         estimate D2E/DX2                !
 ! A35   A(11,15,32)           107.8435         estimate D2E/DX2                !
 ! A36   A(11,15,39)           106.5655         estimate D2E/DX2                !
 ! A37   A(28,15,32)           109.0869         estimate D2E/DX2                !
 ! A38   A(28,15,39)           115.1067         estimate D2E/DX2                !
 ! A39   A(32,15,39)           108.1501         estimate D2E/DX2                !
 ! A40   A(17,16,18)           105.9391         estimate D2E/DX2                !
 ! A41   A(17,16,19)           105.9392         estimate D2E/DX2                !
 ! A42   A(17,16,39)           108.6908         estimate D2E/DX2                !
 ! A43   A(18,16,19)           106.8219         estimate D2E/DX2                !
 ! A44   A(18,16,39)           114.4021         estimate D2E/DX2                !
 ! A45   A(19,16,39)           114.4022         estimate D2E/DX2                !
 ! A46   A(14,20,21)           108.7274         estimate D2E/DX2                !
 ! A47   A(14,20,22)           110.5753         estimate D2E/DX2                !
 ! A48   A(14,20,23)           108.9571         estimate D2E/DX2                !
 ! A49   A(21,20,22)           109.4589         estimate D2E/DX2                !
 ! A50   A(21,20,23)           109.391          estimate D2E/DX2                !
 ! A51   A(22,20,23)           109.7081         estimate D2E/DX2                !
 ! A52   A(14,24,25)           109.6656         estimate D2E/DX2                !
 ! A53   A(14,24,26)           109.6275         estimate D2E/DX2                !
 ! A54   A(14,24,27)           108.7417         estimate D2E/DX2                !
 ! A55   A(25,24,26)           109.6314         estimate D2E/DX2                !
 ! A56   A(25,24,27)           109.5194         estimate D2E/DX2                !
 ! A57   A(26,24,27)           109.6388         estimate D2E/DX2                !
 ! A58   A(15,28,29)           110.5752         estimate D2E/DX2                !
 ! A59   A(15,28,30)           108.7275         estimate D2E/DX2                !
 ! A60   A(15,28,31)           108.9571         estimate D2E/DX2                !
 ! A61   A(29,28,30)           109.4592         estimate D2E/DX2                !
 ! A62   A(29,28,31)           109.7076         estimate D2E/DX2                !
 ! A63   A(30,28,31)           109.3913         estimate D2E/DX2                !
 ! A64   A(15,32,33)           109.6265         estimate D2E/DX2                !
 ! A65   A(15,32,34)           109.6664         estimate D2E/DX2                !
 ! A66   A(15,32,35)           108.7419         estimate D2E/DX2                !
 ! A67   A(33,32,34)           109.6311         estimate D2E/DX2                !
 ! A68   A(33,32,35)           109.6383         estimate D2E/DX2                !
 ! A69   A(34,32,35)           109.5202         estimate D2E/DX2                !
 ! A70   A(1,38,2)             121.7949         estimate D2E/DX2                !
 ! A71   A(1,38,39)            118.7741         estimate D2E/DX2                !
 ! A72   A(2,38,39)            118.7742         estimate D2E/DX2                !
 ! A73   A(14,39,15)           161.4304         estimate D2E/DX2                !
 ! A74   A(14,39,16)            94.049          estimate D2E/DX2                !
 ! A75   A(14,39,36)            90.4326         estimate D2E/DX2                !
 ! A76   A(14,39,38)            81.9811         estimate D2E/DX2                !
 ! A77   A(15,39,16)            94.0471         estimate D2E/DX2                !
 ! A78   A(15,39,36)            90.4326         estimate D2E/DX2                !
 ! A79   A(15,39,38)            81.9815         estimate D2E/DX2                !
 ! A80   A(16,39,36)           151.371          estimate D2E/DX2                !
 ! A81   A(16,39,38)           146.1102         estimate D2E/DX2                !
 ! A82   A(36,39,38)            62.5188         estimate D2E/DX2                !
 ! D1    D(8,1,3,5)           -172.7114         estimate D2E/DX2                !
 ! D2    D(8,1,3,6)              6.5023         estimate D2E/DX2                !
 ! D3    D(38,1,3,5)             1.9939         estimate D2E/DX2                !
 ! D4    D(38,1,3,6)          -178.7924         estimate D2E/DX2                !
 ! D5    D(3,1,8,9)             95.1252         estimate D2E/DX2                !
 ! D6    D(3,1,8,10)           -26.0729         estimate D2E/DX2                !
 ! D7    D(3,1,8,14)          -149.4558         estimate D2E/DX2                !
 ! D8    D(38,1,8,9)           -79.8769         estimate D2E/DX2                !
 ! D9    D(38,1,8,10)          158.925          estimate D2E/DX2                !
 ! D10   D(38,1,8,14)           35.5421         estimate D2E/DX2                !
 ! D11   D(3,1,38,2)            -5.844          estimate D2E/DX2                !
 ! D12   D(3,1,38,39)          164.7492         estimate D2E/DX2                !
 ! D13   D(8,1,38,2)           169.7173         estimate D2E/DX2                !
 ! D14   D(8,1,38,39)          -19.6895         estimate D2E/DX2                !
 ! D15   D(11,2,4,5)           172.7116         estimate D2E/DX2                !
 ! D16   D(11,2,4,7)            -6.5028         estimate D2E/DX2                !
 ! D17   D(38,2,4,5)            -1.9941         estimate D2E/DX2                !
 ! D18   D(38,2,4,7)           178.7915         estimate D2E/DX2                !
 ! D19   D(4,2,11,12)          -95.1241         estimate D2E/DX2                !
 ! D20   D(4,2,11,13)           26.0727         estimate D2E/DX2                !
 ! D21   D(4,2,11,15)          149.4571         estimate D2E/DX2                !
 ! D22   D(38,2,11,12)          79.8784         estimate D2E/DX2                !
 ! D23   D(38,2,11,13)        -158.9249         estimate D2E/DX2                !
 ! D24   D(38,2,11,15)         -35.5404         estimate D2E/DX2                !
 ! D25   D(4,2,38,1)             5.8441         estimate D2E/DX2                !
 ! D26   D(4,2,38,39)         -164.7491         estimate D2E/DX2                !
 ! D27   D(11,2,38,1)         -169.7174         estimate D2E/DX2                !
 ! D28   D(11,2,38,39)          19.6894         estimate D2E/DX2                !
 ! D29   D(1,3,5,4)              1.7155         estimate D2E/DX2                !
 ! D30   D(1,3,5,37)          -179.4078         estimate D2E/DX2                !
 ! D31   D(6,3,5,4)           -177.5058         estimate D2E/DX2                !
 ! D32   D(6,3,5,37)             1.3709         estimate D2E/DX2                !
 ! D33   D(2,4,5,3)             -1.7154         estimate D2E/DX2                !
 ! D34   D(2,4,5,37)           179.4079         estimate D2E/DX2                !
 ! D35   D(7,4,5,3)            177.5066         estimate D2E/DX2                !
 ! D36   D(7,4,5,37)            -1.3701         estimate D2E/DX2                !
 ! D37   D(1,8,14,20)         -158.9184         estimate D2E/DX2                !
 ! D38   D(1,8,14,24)           82.3094         estimate D2E/DX2                !
 ! D39   D(1,8,14,39)          -33.6143         estimate D2E/DX2                !
 ! D40   D(9,8,14,20)          -41.5113         estimate D2E/DX2                !
 ! D41   D(9,8,14,24)         -160.2835         estimate D2E/DX2                !
 ! D42   D(9,8,14,39)           83.7928         estimate D2E/DX2                !
 ! D43   D(10,8,14,20)          74.6732         estimate D2E/DX2                !
 ! D44   D(10,8,14,24)         -44.099          estimate D2E/DX2                !
 ! D45   D(10,8,14,39)        -160.0227         estimate D2E/DX2                !
 ! D46   D(2,11,15,28)         158.9165         estimate D2E/DX2                !
 ! D47   D(2,11,15,32)         -82.3113         estimate D2E/DX2                !
 ! D48   D(2,11,15,39)          33.6123         estimate D2E/DX2                !
 ! D49   D(12,11,15,28)         41.5101         estimate D2E/DX2                !
 ! D50   D(12,11,15,32)        160.2823         estimate D2E/DX2                !
 ! D51   D(12,11,15,39)        -83.7942         estimate D2E/DX2                !
 ! D52   D(13,11,15,28)        -74.6746         estimate D2E/DX2                !
 ! D53   D(13,11,15,32)         44.0976         estimate D2E/DX2                !
 ! D54   D(13,11,15,39)        160.0212         estimate D2E/DX2                !
 ! D55   D(8,14,20,21)        -177.6587         estimate D2E/DX2                !
 ! D56   D(8,14,20,22)         -57.4613         estimate D2E/DX2                !
 ! D57   D(8,14,20,23)          63.1895         estimate D2E/DX2                !
 ! D58   D(24,14,20,21)        -59.655          estimate D2E/DX2                !
 ! D59   D(24,14,20,22)         60.5425         estimate D2E/DX2                !
 ! D60   D(24,14,20,23)       -178.8068         estimate D2E/DX2                !
 ! D61   D(39,14,20,21)         62.092          estimate D2E/DX2                !
 ! D62   D(39,14,20,22)       -177.7105         estimate D2E/DX2                !
 ! D63   D(39,14,20,23)        -57.0598         estimate D2E/DX2                !
 ! D64   D(8,14,24,25)          60.1898         estimate D2E/DX2                !
 ! D65   D(8,14,24,26)        -179.3967         estimate D2E/DX2                !
 ! D66   D(8,14,24,27)         -59.5421         estimate D2E/DX2                !
 ! D67   D(20,14,24,25)        -59.061          estimate D2E/DX2                !
 ! D68   D(20,14,24,26)         61.3525         estimate D2E/DX2                !
 ! D69   D(20,14,24,27)       -178.7929         estimate D2E/DX2                !
 ! D70   D(39,14,24,25)        175.0699         estimate D2E/DX2                !
 ! D71   D(39,14,24,26)        -64.5167         estimate D2E/DX2                !
 ! D72   D(39,14,24,27)         55.338          estimate D2E/DX2                !
 ! D73   D(8,14,39,15)          49.7685         estimate D2E/DX2                !
 ! D74   D(8,14,39,16)         165.419          estimate D2E/DX2                !
 ! D75   D(8,14,39,36)         -42.8787         estimate D2E/DX2                !
 ! D76   D(8,14,39,38)          19.2758         estimate D2E/DX2                !
 ! D77   D(20,14,39,15)        171.7993         estimate D2E/DX2                !
 ! D78   D(20,14,39,16)        -72.5502         estimate D2E/DX2                !
 ! D79   D(20,14,39,36)         79.1521         estimate D2E/DX2                !
 ! D80   D(20,14,39,38)        141.3066         estimate D2E/DX2                !
 ! D81   D(24,14,39,15)        -65.9489         estimate D2E/DX2                !
 ! D82   D(24,14,39,16)         49.7016         estimate D2E/DX2                !
 ! D83   D(24,14,39,36)       -158.5961         estimate D2E/DX2                !
 ! D84   D(24,14,39,38)        -96.4416         estimate D2E/DX2                !
 ! D85   D(11,15,28,29)         57.4613         estimate D2E/DX2                !
 ! D86   D(11,15,28,30)        177.6591         estimate D2E/DX2                !
 ! D87   D(11,15,28,31)        -63.1887         estimate D2E/DX2                !
 ! D88   D(32,15,28,29)        -60.5426         estimate D2E/DX2                !
 ! D89   D(32,15,28,30)         59.6552         estimate D2E/DX2                !
 ! D90   D(32,15,28,31)        178.8074         estimate D2E/DX2                !
 ! D91   D(39,15,28,29)        177.7109         estimate D2E/DX2                !
 ! D92   D(39,15,28,30)        -62.0913         estimate D2E/DX2                !
 ! D93   D(39,15,28,31)         57.061          estimate D2E/DX2                !
 ! D94   D(11,15,32,33)        179.395          estimate D2E/DX2                !
 ! D95   D(11,15,32,34)        -60.1922         estimate D2E/DX2                !
 ! D96   D(11,15,32,35)         59.5414         estimate D2E/DX2                !
 ! D97   D(28,15,32,33)        -61.3544         estimate D2E/DX2                !
 ! D98   D(28,15,32,34)         59.0584         estimate D2E/DX2                !
 ! D99   D(28,15,32,35)        178.792          estimate D2E/DX2                !
 ! D100  D(39,15,32,33)         64.5145         estimate D2E/DX2                !
 ! D101  D(39,15,32,34)       -175.0727         estimate D2E/DX2                !
 ! D102  D(39,15,32,35)        -55.3391         estimate D2E/DX2                !
 ! D103  D(11,15,39,14)        -49.7668         estimate D2E/DX2                !
 ! D104  D(11,15,39,16)       -165.4177         estimate D2E/DX2                !
 ! D105  D(11,15,39,36)         42.8803         estimate D2E/DX2                !
 ! D106  D(11,15,39,38)        -19.2741         estimate D2E/DX2                !
 ! D107  D(28,15,39,14)       -171.7976         estimate D2E/DX2                !
 ! D108  D(28,15,39,16)         72.5516         estimate D2E/DX2                !
 ! D109  D(28,15,39,36)        -79.1504         estimate D2E/DX2                !
 ! D110  D(28,15,39,38)       -141.3049         estimate D2E/DX2                !
 ! D111  D(32,15,39,14)         65.9509         estimate D2E/DX2                !
 ! D112  D(32,15,39,16)        -49.7            estimate D2E/DX2                !
 ! D113  D(32,15,39,36)        158.598          estimate D2E/DX2                !
 ! D114  D(32,15,39,38)         96.4436         estimate D2E/DX2                !
 ! D115  D(17,16,39,14)        -81.6381         estimate D2E/DX2                !
 ! D116  D(17,16,39,15)         81.6362         estimate D2E/DX2                !
 ! D117  D(17,16,39,36)        179.9974         estimate D2E/DX2                !
 ! D118  D(17,16,39,38)          0.0002         estimate D2E/DX2                !
 ! D119  D(18,16,39,14)         36.5144         estimate D2E/DX2                !
 ! D120  D(18,16,39,15)       -160.2114         estimate D2E/DX2                !
 ! D121  D(18,16,39,36)        -61.8501         estimate D2E/DX2                !
 ! D122  D(18,16,39,38)        118.1526         estimate D2E/DX2                !
 ! D123  D(19,16,39,14)        160.2094         estimate D2E/DX2                !
 ! D124  D(19,16,39,15)        -36.5164         estimate D2E/DX2                !
 ! D125  D(19,16,39,36)         61.8448         estimate D2E/DX2                !
 ! D126  D(19,16,39,38)       -118.1524         estimate D2E/DX2                !
 ! D127  D(1,38,39,14)          -0.137          estimate D2E/DX2                !
 ! D128  D(1,38,39,15)        -170.7449         estimate D2E/DX2                !
 ! D129  D(1,38,39,16)         -85.4424         estimate D2E/DX2                !
 ! D130  D(1,38,39,36)          94.5591         estimate D2E/DX2                !
 ! D131  D(2,38,39,14)         170.744          estimate D2E/DX2                !
 ! D132  D(2,38,39,15)           0.1361         estimate D2E/DX2                !
 ! D133  D(2,38,39,16)          85.4386         estimate D2E/DX2                !
 ! D134  D(2,38,39,36)         -94.5599         estimate D2E/DX2                !
 --------------------------------------------------------------------------------
 Trust Radius=3.00D-01 FncErr=1.00D-07 GrdErr=1.00D-06 EigMax=2.50D+02 EigMin=1.00D-04
 Number of steps in this run=    234 maximum allowed number of steps=    234.
 GradGradGradGradGradGradGradGradGradGradGradGradGradGradGradGradGradGrad

                          Input orientation:                          
 ---------------------------------------------------------------------
 Center     Atomic      Atomic             Coordinates (Angstroms)
 Number     Number       Type             X           Y           Z
 ---------------------------------------------------------------------
      1          6           0       -1.227370    1.726230   -0.132570
      2          6           0        1.227080    1.726440   -0.132550
      3          6           0       -1.225580    3.086400    0.194240
      4          6           0        1.225060    3.086600    0.194260
      5          6           0       -0.000320    3.756100    0.373700
      6          1           0       -2.167930    3.638380    0.299260
      7          1           0        2.167310    3.638740    0.299310
      8          6           0       -2.390750    0.843940   -0.515360
      9          1           0       -2.464030    0.800670   -1.620240
     10          1           0       -3.374620    1.175680   -0.119230
     11          6           0        2.390620    0.844340   -0.515320
     12          1           0        2.463930    0.801110   -1.620200
     13          1           0        3.374420    1.176250   -0.119170
     14          7           0       -2.116900   -0.568610   -0.062920
     15          7           0        2.116990   -0.568270   -0.062920
     16          6           0        0.000250   -2.660730    0.959870
     17          1           0        0.000250   -2.371950    2.034650
     18          1           0       -0.891870   -3.307690    0.817740
     19          1           0        0.892470   -3.307540    0.817700
     20          6           0       -2.947710   -1.511440   -0.835030
     21          1           0       -2.764940   -2.530830   -0.462020
     22          1           0       -4.026380   -1.263860   -0.723410
     23          1           0       -2.661480   -1.453840   -1.896550
     24          6           0       -2.480020   -0.664710    1.371160
     25          1           0       -3.557360   -0.425640    1.500940
     26          1           0       -2.281380   -1.681890    1.734660
     27          1           0       -1.871680    0.057050    1.939530
     28          6           0        2.947950   -1.510940   -0.835060
     29          1           0        4.026580   -1.263190   -0.723430
     30          1           0        2.765340   -2.530370   -0.462090
     31          1           0        2.661720   -1.453340   -1.896580
     32          6           0        2.480120   -0.664360    1.371150
     33          1           0        2.281600   -1.681590    1.734610
     34          1           0        3.557430   -0.425170    1.500950
     35          1           0        1.871680    0.057290    1.939540
     36          1           0        0.000010   -0.134540   -1.636640
     37          1           0       -0.000410    4.817040    0.638710
     38          6           0       -0.000090    1.050520   -0.232310
     39         45           0        0.000070   -0.867180   -0.237650
 ---------------------------------------------------------------------
                    Distance matrix (angstroms):
                    1          2          3          4          5
     1  C    0.000000
     2  C    2.454450   0.000000
     3  C    1.398882   2.823442   0.000000
     4  C    2.823444   1.398872   2.450640   0.000000
     5  C    2.425352   2.425349   1.407823   1.407830   0.000000
     6  H    2.174270   3.920213   1.097148   3.439167   2.172080
     7  H    3.920213   2.174265   3.439160   1.097146   2.172079
     8  C    1.509443   3.743534   2.624839   4.313602   3.871080
     9  H    2.144563   4.085898   3.170277   4.703963   4.333616
    10  H    2.216747   4.634561   2.892661   4.990686   4.276383
    11  C    3.743538   1.509450   4.313608   2.624836   3.871085
    12  H    4.085901   2.144560   4.703959   3.170257   4.333605
    13  H    4.634558   2.216745   4.990681   2.892650   4.276379
    14  N    2.462195   4.056391   3.770899   4.959375   4.834632
    15  N    4.056393   2.462211   4.959387   3.770909   4.834647
    16  C    4.684644   4.684630   5.926074   5.926054   6.443547
    17  H    4.795724   4.795693   5.889257   5.889224   6.349154
    18  H    5.133809   5.543958   6.433079   6.764397   7.133664
    19  H    5.543967   5.133799   6.764415   6.433065   7.133668
    20  C    3.733032   5.329748   5.016499   6.293919   6.155901
    21  H    4.538196   5.845436   5.861193   6.921439   6.918601
    22  H    4.138138   6.073702   5.254648   6.880861   6.527849
    23  H    3.909110   5.324169   5.200672   6.331846   6.275291
    24  C    3.089811   4.660615   4.126692   5.402318   5.165985
    25  H    3.567598   5.494598   4.413512   6.075754   5.604476
    26  H    4.026508   5.235693   5.120957   6.116081   6.052039
    27  H    2.737681   4.084445   3.555340   4.670539   4.431341
    28  C    5.329733   3.733034   6.293913   5.016495   6.155900
    29  H    6.073692   4.138143   6.880860   5.254650   6.527855
    30  H    5.845422   4.538201   6.921439   5.861195   6.918607
    31  H    5.324135   3.909091   6.331814   5.200640   6.275260
    32  C    4.660641   3.089846   5.402363   4.126736   5.166039
    33  H    5.235692   4.026533   6.116108   5.120995   6.052083
    34  H    5.494654   3.567671   6.075837   4.413606   5.604578
    35  H    4.084496   2.737723   4.670610   3.555396   4.431414
    36  H    2.689080   2.689095   3.902390   3.902395   4.379332
    37  H    3.413709   3.413705   2.166497   2.166503   1.093537
    38  C    1.404546   1.404552   2.414245   2.414244   2.772618
    39  Rh   2.871137   2.871143   4.161675   4.161673   4.663525
                    6          7          8          9         10
     6  H    0.000000
     7  H    4.335240   0.000000
     8  C    2.919272   5.408374   0.000000
     9  H    3.438714   5.760957   1.108153   0.000000
    10  H    2.774189   6.079048   1.111292   1.795226   0.000000
    11  C    5.408380   2.919274   4.781370   4.978994   5.788321
    12  H    5.760951   3.438698   4.978998   4.927960   6.040023
    13  H    6.079047   2.774184   5.788314   6.040014   6.749040
    14  N    4.222860   6.015601   1.508308   2.102540   2.151181
    15  N    6.015615   4.222875   4.745393   5.028418   5.762145
    16  C    6.694490   6.694461   4.491759   4.971009   5.222284
    17  H    6.620925   6.620872   4.749882   5.431060   5.349264
    18  H    7.081316   7.607907   4.610838   5.029320   5.209853
    19  H    7.607932   7.081296   5.458147   5.838410   6.259805
    20  C    5.330602   7.346735   2.441354   2.489248   2.813403
    21  H    6.244607   7.935383   3.395870   3.539903   3.771927
    22  H    5.341502   7.965126   2.676078   2.739986   2.596378
    23  H    5.567394   7.353461   2.694582   2.279945   3.252969
    24  C    4.445554   6.423879   2.417220   3.331076   2.531523
    25  H    4.459911   7.122847   2.652975   3.527176   2.285294
    26  H    5.511671   7.082385   3.384430   4.177537   3.577400
    27  H    3.950212   5.642009   2.629661   3.684537   2.783641
    28  C    7.346728   5.330610   5.843748   5.937135   6.906897
    29  H    7.965126   5.341517   6.757619   6.869629   7.816067
    30  H    7.935382   6.244621   6.162310   6.307412   7.179935
    31  H    7.353424   5.567374   5.719503   5.606268   6.819686
    32  C    6.423931   4.445600   5.436843   5.961489   6.315454
    33  H    7.082417   5.511720   5.768147   6.319623   6.602540
    34  H    7.122938   4.460015   6.407573   6.892205   7.296645
    35  H    5.642089   3.950258   4.981331   5.658889   5.745693
    36  H    4.762625   4.762639   2.816101   2.635599   3.925218
    37  H    2.490504   2.490501   4.778193   5.225276   5.021879
    38  C    3.417472   3.417474   2.416205   2.838974   3.378743
    39  Rh   5.028774   5.028774   2.953147   3.281016   3.946623
                   11         12         13         14         15
    11  C    0.000000
    12  H    1.108153   0.000000
    13  H    1.111288   1.795220   0.000000
    14  N    4.745401   5.028445   5.762143   0.000000
    15  N    1.508312   2.102544   2.151196   4.233890   0.000000
    16  C    4.491722   4.970998   5.222238   3.147283   3.147233
    17  H    4.749814   5.431018   5.349176   3.483412   3.483339
    18  H    5.458126   5.838423   6.259772   3.127110   4.163319
    19  H    4.610803   5.029299   5.209815   4.163356   3.127066
    20  C    5.843773   5.937190   6.906914   1.474899   5.209310
    21  H    6.162338   6.307479   7.179953   2.104648   5.276757
    22  H    6.757640   6.869677   7.816079   2.136758   6.217804
    23  H    5.719540   5.606335   6.819717   2.107700   5.194248
    24  C    5.436835   5.961502   6.315432   1.482456   4.816470
    25  H    6.407544   6.892196   7.296601   2.130968   5.887635
    26  H    5.768174   6.319679   6.602554   2.120788   4.880277
    27  H    4.981297   5.658871   5.745644   2.112200   4.506697
    28  C    2.441351   2.489236   2.813426   5.209308   1.474897
    29  H    2.676071   2.739965   2.596403   6.217802   2.136755
    30  H    3.395868   3.539891   3.771950   5.276752   2.104645
    31  H    2.694570   2.279924   3.252979   5.194253   2.107697
    32  C    2.417221   3.331072   2.531535   4.816463   1.482448
    33  H    3.384434   4.177534   3.577430   4.880230   2.120776
    34  H    2.653007   3.527192   2.285351   5.887638   2.130970
    35  H    2.629655   3.684532   2.783628   4.506702   2.112190
    36  H    2.816129   2.635643   3.925242   2.673260   2.673260
    37  H    4.778196   5.225260   5.021873   5.828983   5.828999
    38  C    2.416216   2.838985   3.378746   2.670423   2.670431
    39  Rh   2.953156   3.281043   3.946629   2.145049   2.145047
                   16         17         18         19         20
    16  C    0.000000
    17  H    1.112900   0.000000
    18  H    1.111142   1.775488   0.000000
    19  H    1.111140   1.775487   1.784340   0.000000
    20  C    3.637719   4.203095   3.191338   4.550217   0.000000
    21  H    3.112061   3.728925   2.397851   3.951912   1.100771
    22  H    4.582404   5.004848   4.046917   5.544974   1.112333
    23  H    4.086628   4.835501   3.733048   4.840859   1.100941
    24  C    3.210139   3.083282   3.132704   4.320250   2.408933
    25  H    4.236151   4.090178   3.984697   5.345386   2.647148
    26  H    2.600820   2.402501   2.326952   3.681967   2.660142
    27  H    3.442410   3.068096   3.679662   4.496609   3.363954
    28  C    3.637681   4.203036   4.550195   3.191298   5.895660
    29  H    4.582352   5.004766   5.544938   4.046862   6.979599
    30  H    3.112023   3.728878   3.951883   2.397811   5.815174
    31  H    4.086627   4.835477   4.840883   3.733044   5.709288
    32  C    3.210047   3.083156   4.320159   3.132625   5.919976
    33  H    2.600672   2.402328   3.681815   2.326826   5.829038
    34  H    4.236039   4.090027   5.345275   3.984583   6.996687
    35  H    3.442330   3.067980   4.496525   3.679600   5.778034
    36  H    3.622637   4.299346   4.109539   4.109525   3.350744
    37  H    7.484664   7.323266   8.175450   8.175455   7.134994
    38  C    3.898034   4.105169   4.570763   4.570763   3.951629
    39  Rh   2.156589   2.725377   2.804549   2.804550   3.075929
                   21         22         23         24         25
    21  H    0.000000
    22  H    1.806867   0.000000
    23  H    1.796799   1.809780   0.000000
    24  C    2.631375   2.671598   3.366539   0.000000
    25  H    2.985459   2.422875   3.660975   1.111152   0.000000
    26  H    2.404149   3.043334   3.658165   1.098292   1.805800
    27  H    3.641769   3.671346   4.197866   1.101844   1.807448
    28  C    5.815191   6.979598   5.709267   5.919997   6.996701
    29  H    6.913754   8.052960   6.792842   6.861584   7.947670
    30  H    5.530280   6.913740   5.715502   5.861339   6.946935
    31  H    5.715556   6.792857   5.323200   6.143090   7.160745
    32  C    5.861303   6.861569   6.143061   4.960140   6.043591
    33  H    5.569018   6.782844   6.137690   4.882537   5.977078
    34  H    6.946900   7.947663   7.160727   6.043594   7.114790
    35  H    5.827873   6.604835   6.127695   4.447655   5.468095
    36  H    3.842771   4.280323   2.981884   3.934271   4.752266
    37  H    7.927511   7.418972   7.268616   6.060902   6.393827
    38  C    4.530257   4.669962   4.015534   3.415140   4.223432
    39  Rh   3.234711   4.074999   3.190606   2.963125   3.984088
                   26         27         28         29         30
    26  H    0.000000
    27  H    1.798260   0.000000
    28  C    5.829115   5.778043   0.000000
    29  H    6.782911   6.604836   1.112333   0.000000
    30  H    5.569112   5.827905   1.100768   1.806867   0.000000
    31  H    6.137783   6.127702   1.100941   1.809774   1.796801
    32  C    4.882560   4.447657   2.408926   2.671592   2.631371
    33  H    4.562980   4.507172   2.660141   3.043349   2.404147
    34  H    5.977095   5.468101   2.647131   2.422859   2.985431
    35  H    4.507175   3.743360   3.363942   3.671331   3.641763
    36  H    4.354847   4.040906   3.350725   4.280312   3.842736
    37  H    6.974240   5.277432   7.134995   7.418980   7.927520
    38  C    4.066856   3.034258   3.951623   4.669960   4.530251
    39  Rh   3.123904   3.016250   3.075926   4.074996   3.234701
                   31         32         33         34         35
    31  H    0.000000
    32  C    3.366530   0.000000
    33  H    3.658159   1.098303   0.000000
    34  H    3.660962   1.111151   1.805805   0.000000
    35  H    4.197855   1.101837   1.798259   1.807452   0.000000
    36  H    2.981862   3.934267   4.354807   4.752281   4.040917
    37  H    7.268583   6.060961   6.974293   6.393938   5.277509
    38  C    4.015513   3.415163   4.066855   4.223482   3.034297
    39  Rh   3.190613   2.963110   3.123852   3.984082   3.016244
                   36         37         38         39
    36  H    0.000000
    37  H    5.449345   0.000000
    38  C    1.837528   3.865921   0.000000
    39  Rh   1.579220   5.751379   1.917707   0.000000
 Stoichiometry    C13H23N2Rh
 Framework group  C1[X(C13H23N2Rh)]
 Deg. of freedom   111
 Full point group                 C1      NOp   1
 Largest Abelian subgroup         C1      NOp   1
 Largest concise Abelian subgroup C1      NOp   1
                         Standard orientation:                         
 ---------------------------------------------------------------------
 Center     Atomic      Atomic             Coordinates (Angstroms)
 Number     Number       Type             X           Y           Z
 ---------------------------------------------------------------------
      1          6           0       -1.227369    1.726231   -0.132570
      2          6           0        1.227081    1.726441   -0.132550
      3          6           0       -1.225578    3.086401    0.194240
      4          6           0        1.225062    3.086601    0.194260
      5          6           0       -0.000318    3.756101    0.373700
      6          1           0       -2.167928    3.638382    0.299260
      7          1           0        2.167312    3.638740    0.299310
      8          6           0       -2.390749    0.843942   -0.515360
      9          1           0       -2.464029    0.800672   -1.620240
     10          1           0       -3.374619    1.175682   -0.119230
     11          6           0        2.390621    0.844340   -0.515320
     12          1           0        2.463931    0.801110   -1.620200
     13          1           0        3.374421    1.176250   -0.119170
     14          7           0       -2.116899   -0.568608   -0.062920
     15          7           0        2.116991   -0.568270   -0.062920
     16          6           0        0.000250   -2.660729    0.959870
     17          1           0        0.000250   -2.371949    2.034650
     18          1           0       -0.891870   -3.307689    0.817740
     19          1           0        0.892470   -3.307539    0.817700
     20          6           0       -2.947710   -1.511438   -0.835030
     21          1           0       -2.764940   -2.530828   -0.462020
     22          1           0       -4.026380   -1.263858   -0.723410
     23          1           0       -2.661480   -1.453838   -1.896550
     24          6           0       -2.480019   -0.664708    1.371160
     25          1           0       -3.557359   -0.425638    1.500940
     26          1           0       -2.281380   -1.681888    1.734660
     27          1           0       -1.871679    0.057051    1.939530
     28          6           0        2.947950   -1.510940   -0.835060
     29          1           0        4.026580   -1.263190   -0.723430
     30          1           0        2.765340   -2.530370   -0.462090
     31          1           0        2.661720   -1.453340   -1.896580
     32          6           0        2.480121   -0.664360    1.371150
     33          1           0        2.281600   -1.681590    1.734610
     34          1           0        3.557431   -0.425170    1.500950
     35          1           0        1.871681    0.057290    1.939540
     36          1           0        0.000011   -0.134539   -1.636640
     37          1           0       -0.000408    4.817041    0.638710
     38          6           0       -0.000089    1.050521   -0.232310
     39         45           0        0.000071   -0.867179   -0.237650
 ---------------------------------------------------------------------
 Rotational constants (GHZ):           0.5197210           0.5185160           0.2994469
 Standard basis: def2TZVPP (5D, 7F)
 There are   956 symmetry adapted cartesian basis functions of A   symmetry.
 There are   843 symmetry adapted basis functions of A   symmetry.
   843 basis functions,  1255 primitive gaussians,   956 cartesian basis functions
    66 alpha electrons       66 beta electrons
       nuclear repulsion energy      1397.5419895149 Hartrees.
 NAtoms=   39 NActive=   39 NUniq=   39 SFac= 1.00D+00 NAtFMM=   60 NAOKFM=F Big=F
 Integral buffers will be    131072 words long.
 Raffenetti 2 integral format.
 Two-electron integral symmetry is turned on.
 Nuclear repulsion after empirical dispersion term =     1397.5007254235 Hartrees.
 ------------------------------------------------------------------------------
 Polarizable Continuum Model (PCM)
 =================================
 Model                : PCM.
 Atomic radii         : UFF (Universal Force Field).
 Polarization charges : Total charges.
 Charge compensation  : None.
 Solution method      : On-the-fly selection.
 Cavity type          : Scaled VdW (van der Waals Surface) (Alpha=1.100).
 Cavity algorithm     : GePol (No added spheres)
                        Default sphere list used, NSphG=   39.
                        Lebedev-Laikov grids with approx.  5.0 points / Ang**2.
                        Smoothing algorithm: York/Karplus (Gamma=1.0000).
                        Polarization charges: spherical gaussians, with
                                              point-specific exponents (IZeta= 3).
                        Self-potential: point-specific (ISelfS= 7).
                        Self-field    : sphere-specific E.n sum rule (ISelfD= 2).
 1st derivatives      : Analytical E(r).r(x)/FMM algorithm (CHGder, D1EAlg=3).
                        Cavity 1st derivative terms included.
 Solvent              : Dichloromethane, Eps=   8.930000 Eps(inf)=   2.028346
 ------------------------------------------------------------------------------
 One-electron integrals computed using PRISM.
 PrsmSu:  requested number of processors reduced to:   5 ShMem   1 Linda.
   1 Symmetry operations used in ECPInt.
 ECPInt:  NShTT=   51040 NPrTT=  129190 LenC2=   46906 LenP2D=   91921.
 LDataN:  DoStor=T MaxTD1= 8 Len=  415
 NBasis=   843 RedAO= T EigKep=  4.40D-06  NBF=   843
 NBsUse=   843 1.00D-06 EigRej= -1.00D+00 NBFU=   843
 Defaulting to unpruned grid for atomic number  45.
 ExpMin= 3.70D-02 ExpMax= 1.97D+04 ExpMxC= 6.73D+02 IAcc=3 IRadAn=         5 AccDes= 0.00D+00
 Harris functional with IExCor= 4639 and IRadAn=       5 diagonalized for initial guess.
 HarFok:  IExCor= 4639 AccDes= 0.00D+00 IRadAn=         5 IDoV= 1 UseB2=F ITyADJ=14
 ICtDFT=  3500011 ScaDFX=  1.000000  1.000000  1.000000  1.000000
 Defaulting to unpruned grid for atomic number  45.
 FoFCou: FMM=F IPFlag=           0 FMFlag=      100000 FMFlg1=           0
         NFxFlg=           0 DoJE=T BraDBF=F KetDBF=T FulRan=T
         wScrn=  0.000000 ICntrl=       500 IOpCl=  0 I1Cent=   200000004 NGrid=           0
         NMat0=    1 NMatS0=      1 NMatT0=    0 NMatD0=    1 NMtDS0=    0 NMtDT0=    0
 Petite list used in FoFCou.
 Requested convergence on RMS density matrix=1.00D-08 within 128 cycles.
 Requested convergence on MAX density matrix=1.00D-06.
 Requested convergence on             energy=1.00D-06.
 No special actions if energy rises.
 Defaulting to unpruned grid for atomic number  45.
 Defaulting to unpruned grid for atomic number  45.
 Defaulting to unpruned grid for atomic number  45.
 Defaulting to unpruned grid for atomic number  45.
 Defaulting to unpruned grid for atomic number  45.
 Defaulting to unpruned grid for atomic number  45.
 Defaulting to unpruned grid for atomic number  45.
 Defaulting to unpruned grid for atomic number  45.
 Inv3:  Mode=1 IEnd=    17802288.
 Iteration    1 A*A^-1 deviation from unit magnitude is 3.00D-15 for    107.
 Iteration    1 A*A^-1 deviation from orthogonality  is 3.13D-15 for    928    307.
 Iteration    1 A^-1*A deviation from unit magnitude is 3.11D-15 for   1081.
 Iteration    1 A^-1*A deviation from orthogonality  is 2.49D-15 for   1997   1730.
 Error on total polarization charges =  0.01797
 SCF Done:  E(RwB97XD) =  -729.345115608     A.U. after   18 cycles
            NFock= 18  Conv=0.26D-08     -V/T= 2.1128

 **********************************************************************

            Population analysis using the SCF Density.

 **********************************************************************

 Orbital symmetries:
       Occupied  (A) (A) (A) (A) (A) (A) (A) (A) (A) (A) (A) (A)
                 (A) (A) (A) (A) (A) (A) (A) (A) (A) (A) (A) (A)
                 (A) (A) (A) (A) (A) (A) (A) (A) (A) (A) (A) (A)
                 (A) (A) (A) (A) (A) (A) (A) (A) (A) (A) (A) (A)
                 (A) (A) (A) (A) (A) (A) (A) (A) (A) (A) (A) (A)
                 (A) (A) (A) (A) (A) (A)
       Virtual   (A) (A) (A) (A) (A) (A) (A) (A) (A) (A) (A) (A)
                 (A) (A) (A) (A) (A) (A) (A) (A) (A) (A) (A) (A)
                 (A) (A) (A) (A) (A) (A) (A) (A) (A) (A) (A) (A)
                 (A) (A) (A) (A) (A) (A) (A) (A) (A) (A) (A) (A)
                 (A) (A) (A) (A) (A) (A) (A) (A) (A) (A) (A) (A)
                 (A) (A) (A) (A) (A) (A) (A) (A) (A) (A) (A) (A)
                 (A) (A) (A) (A) (A) (A) (A) (A) (A) (A) (A) (A)
                 (A) (A) (A) (A) (A) (A) (A) (A) (A) (A) (A) (A)
                 (A) (A) (A) (A) (A) (A) (A) (A) (A) (A) (A) (A)
                 (A) (A) (A) (A) (A) (A) (A) (A) (A) (A) (A) (A)
                 (A) (A) (A) (A) (A) (A) (A) (A) (A) (A) (A) (A)
                 (A) (A) (A) (A) (A) (A) (A) (A) (A) (A) (A) (A)
                 (A) (A) (A) (A) (A) (A) (A) (A) (A) (A) (A) (A)
                 (A) (A) (A) (A) (A) (A) (A) (A) (A) (A) (A) (A)
                 (A) (A) (A) (A) (A) (A) (A) (A) (A) (A) (A) (A)
                 (A) (A) (A) (A) (A) (A) (A) (A) (A) (A) (A) (A)
                 (A) (A) (A) (A) (A) (A) (A) (A) (A) (A) (A) (A)
                 (A) (A) (A) (A) (A) (A) (A) (A) (A) (A) (A) (A)
                 (A) (A) (A) (A) (A) (A) (A) (A) (A) (A) (A) (A)
                 (A) (A) (A) (A) (A) (A) (A) (A) (A) (A) (A) (A)
                 (A) (A) (A) (A) (A) (A) (A) (A) (A) (A) (A) (A)
                 (A) (A) (A) (A) (A) (A) (A) (A) (A) (A) (A) (A)
                 (A) (A) (A) (A) (A) (A) (A) (A) (A) (A) (A) (A)
                 (A) (A) (A) (A) (A) (A) (A) (A) (A) (A) (A) (A)
                 (A) (A) (A) (A) (A) (A) (A) (A) (A) (A) (A) (A)
                 (A) (A) (A) (A) (A) (A) (A) (A) (A) (A) (A) (A)
                 (A) (A) (A) (A) (A) (A) (A) (A) (A) (A) (A) (A)
                 (A) (A) (A) (A) (A) (A) (A) (A) (A) (A) (A) (A)
                 (A) (A) (A) (A) (A) (A) (A) (A) (A) (A) (A) (A)
                 (A) (A) (A) (A) (A) (A) (A) (A) (A) (A) (A) (A)
                 (A) (A) (A) (A) (A) (A) (A) (A) (A) (A) (A) (A)
                 (A) (A) (A) (A) (A) (A) (A) (A) (A) (A) (A) (A)
                 (A) (A) (A) (A) (A) (A) (A) (A) (A) (A) (A) (A)
                 (A) (A) (A) (A) (A) (A) (A) (A) (A) (A) (A) (A)
                 (A) (A) (A) (A) (A) (A) (A) (A) (A) (A) (A) (A)
                 (A) (A) (A) (A) (A) (A) (A) (A) (A) (A) (A) (A)
                 (A) (A) (A) (A) (A) (A) (A) (A) (A) (A) (A) (A)
                 (A) (A) (A) (A) (A) (A) (A) (A) (A) (A) (A) (A)
                 (A) (A) (A) (A) (A) (A) (A) (A) (A) (A) (A) (A)
                 (A) (A) (A) (A) (A) (A) (A) (A) (A) (A) (A) (A)
                 (A) (A) (A) (A) (A) (A) (A) (A) (A) (A) (A) (A)
                 (A) (A) (A) (A) (A) (A) (A) (A) (A) (A) (A) (A)
                 (A) (A) (A) (A) (A) (A) (A) (A) (A) (A) (A) (A)
                 (A) (A) (A) (A) (A) (A) (A) (A) (A) (A) (A) (A)
                 (A) (A) (A) (A) (A) (A) (A) (A) (A) (A) (A) (A)
                 (A) (A) (A) (A) (A) (A) (A) (A) (A) (A) (A) (A)
                 (A) (A) (A) (A) (A) (A) (A) (A) (A) (A) (A) (A)
                 (A) (A) (A) (A) (A) (A) (A) (A) (A) (A) (A) (A)
                 (A) (A) (A) (A) (A) (A) (A) (A) (A) (A) (A) (A)
                 (A) (A) (A) (A) (A) (A) (A) (A) (A) (A) (A) (A)
                 (A) (A) (A) (A) (A) (A) (A) (A) (A) (A) (A) (A)
                 (A) (A) (A) (A) (A) (A) (A) (A) (A) (A) (A) (A)
                 (A) (A) (A) (A) (A) (A) (A) (A) (A) (A) (A) (A)
                 (A) (A) (A) (A) (A) (A) (A) (A) (A) (A) (A) (A)
                 (A) (A) (A) (A) (A) (A) (A) (A) (A) (A) (A) (A)
                 (A) (A) (A) (A) (A) (A) (A) (A) (A) (A) (A) (A)
                 (A) (A) (A) (A) (A) (A) (A) (A) (A) (A) (A) (A)
                 (A) (A) (A) (A) (A) (A) (A) (A) (A) (A) (A) (A)
                 (A) (A) (A) (A) (A) (A) (A) (A) (A) (A) (A) (A)
                 (A) (A) (A) (A) (A) (A) (A) (A) (A) (A) (A) (A)
                 (A) (A) (A) (A) (A) (A) (A) (A) (A) (A) (A) (A)
                 (A) (A) (A) (A) (A) (A) (A) (A) (A) (A) (A) (A)
                 (A) (A) (A) (A) (A) (A) (A) (A) (A) (A) (A) (A)
                 (A) (A) (A) (A) (A) (A) (A) (A) (A) (A) (A) (A)
                 (A) (A) (A) (A) (A) (A) (A) (A) (A)
 The electronic state is 1-A.
 Alpha  occ. eigenvalues --  -14.48817 -14.48816 -10.32403 -10.32403 -10.31286
 Alpha  occ. eigenvalues --  -10.31286 -10.30975 -10.30975 -10.28766 -10.28765
 Alpha  occ. eigenvalues --  -10.28524 -10.28513 -10.28397 -10.28024 -10.22233
 Alpha  occ. eigenvalues --   -3.31208  -2.07220  -2.06057  -2.05057  -1.05037
 Alpha  occ. eigenvalues --   -1.04704  -0.94971  -0.87494  -0.85257  -0.81179
 Alpha  occ. eigenvalues --   -0.81172  -0.78984  -0.78584  -0.72532  -0.71431
 Alpha  occ. eigenvalues --   -0.70602  -0.66916  -0.66677  -0.59904  -0.58210
 Alpha  occ. eigenvalues --   -0.57531  -0.57265  -0.56675  -0.55449  -0.55322
 Alpha  occ. eigenvalues --   -0.53130  -0.50318  -0.50150  -0.49408  -0.48778
 Alpha  occ. eigenvalues --   -0.48199  -0.47257  -0.46593  -0.45998  -0.45942
 Alpha  occ. eigenvalues --   -0.45534  -0.45379  -0.44004  -0.42614  -0.42584
 Alpha  occ. eigenvalues --   -0.42046  -0.41137  -0.40940  -0.37624  -0.36312
 Alpha  occ. eigenvalues --   -0.32403  -0.31915  -0.30470  -0.30365  -0.28815
 Alpha  occ. eigenvalues --   -0.24624
 Alpha virt. eigenvalues --    0.03569   0.05687   0.07748   0.08734   0.09266
 Alpha virt. eigenvalues --    0.10065   0.10736   0.12304   0.14300   0.14581
 Alpha virt. eigenvalues --    0.15073   0.15590   0.15615   0.16655   0.17090
 Alpha virt. eigenvalues --    0.17160   0.18110   0.18168   0.18595   0.19242
 Alpha virt. eigenvalues --    0.19608   0.20070   0.21127   0.21737   0.22143
 Alpha virt. eigenvalues --    0.22471   0.22532   0.23216   0.23378   0.23576
 Alpha virt. eigenvalues --    0.24543   0.24622   0.25607   0.25661   0.26313
 Alpha virt. eigenvalues --    0.26363   0.27148   0.28728   0.28825   0.29582
 Alpha virt. eigenvalues --    0.30185   0.30422   0.31238   0.32124   0.32298
 Alpha virt. eigenvalues --    0.33215   0.33382   0.33912   0.34077   0.34395
 Alpha virt. eigenvalues --    0.35372   0.36214   0.37185   0.37903   0.37938
 Alpha virt. eigenvalues --    0.38211   0.38882   0.39800   0.39920   0.40487
 Alpha virt. eigenvalues --    0.41306   0.41621   0.42055   0.42797   0.43148
 Alpha virt. eigenvalues --    0.43834   0.44553   0.45085   0.45377   0.45890
 Alpha virt. eigenvalues --    0.46291   0.46382   0.46966   0.47415   0.47902
 Alpha virt. eigenvalues --    0.49107   0.49509   0.49923   0.50451   0.50691
 Alpha virt. eigenvalues --    0.50955   0.51115   0.51450   0.51948   0.52003
 Alpha virt. eigenvalues --    0.52419   0.52984   0.53298   0.53711   0.53982
 Alpha virt. eigenvalues --    0.54198   0.54439   0.54648   0.55293   0.56530
 Alpha virt. eigenvalues --    0.57076   0.57294   0.57764   0.58356   0.59022
 Alpha virt. eigenvalues --    0.59343   0.59765   0.60542   0.60908   0.61716
 Alpha virt. eigenvalues --    0.62014   0.62526   0.63405   0.63814   0.64752
 Alpha virt. eigenvalues --    0.65570   0.66299   0.67365   0.68355   0.68456
 Alpha virt. eigenvalues --    0.68697   0.70151   0.70726   0.72553   0.72904
 Alpha virt. eigenvalues --    0.73549   0.73910   0.75014   0.75636   0.77010
 Alpha virt. eigenvalues --    0.77470   0.78556   0.78777   0.80475   0.81672
 Alpha virt. eigenvalues --    0.81930   0.83098   0.83280   0.84012   0.84266
 Alpha virt. eigenvalues --    0.85630   0.86267   0.87071   0.87737   0.88795
 Alpha virt. eigenvalues --    0.90029   0.90667   0.91418   0.91624   0.92225
 Alpha virt. eigenvalues --    0.92781   0.92789   0.94576   0.94811   0.95703
 Alpha virt. eigenvalues --    0.95958   0.96089   0.96458   0.99184   0.99783
 Alpha virt. eigenvalues --    1.00342   1.00479   1.01051   1.02030   1.02272
 Alpha virt. eigenvalues --    1.03389   1.03549   1.04507   1.04564   1.05862
 Alpha virt. eigenvalues --    1.06303   1.07229   1.07371   1.08088   1.08713
 Alpha virt. eigenvalues --    1.09293   1.09899   1.09968   1.10673   1.11640
 Alpha virt. eigenvalues --    1.11958   1.12144   1.12503   1.12603   1.12830
 Alpha virt. eigenvalues --    1.14544   1.14738   1.16420   1.16582   1.17627
 Alpha virt. eigenvalues --    1.18816   1.19121   1.19132   1.19866   1.20847
 Alpha virt. eigenvalues --    1.21275   1.21833   1.22208   1.22968   1.23414
 Alpha virt. eigenvalues --    1.23790   1.24866   1.25498   1.25935   1.27095
 Alpha virt. eigenvalues --    1.27252   1.28337   1.29099   1.29764   1.30283
 Alpha virt. eigenvalues --    1.31231   1.32528   1.33140   1.33535   1.34615
 Alpha virt. eigenvalues --    1.34828   1.36055   1.36094   1.36596   1.36763
 Alpha virt. eigenvalues --    1.37765   1.37877   1.38195   1.40297   1.40512
 Alpha virt. eigenvalues --    1.40583   1.41548   1.41996   1.42699   1.43125
 Alpha virt. eigenvalues --    1.44492   1.45006   1.45230   1.46056   1.46808
 Alpha virt. eigenvalues --    1.47335   1.47873   1.47968   1.48052   1.48727
 Alpha virt. eigenvalues --    1.50173   1.50210   1.50687   1.50816   1.53291
 Alpha virt. eigenvalues --    1.53918   1.54348   1.54924   1.55138   1.56150
 Alpha virt. eigenvalues --    1.56222   1.56811   1.57482   1.57902   1.57962
 Alpha virt. eigenvalues --    1.59448   1.60082   1.61043   1.61220   1.61647
 Alpha virt. eigenvalues --    1.62160   1.64372   1.64663   1.64888   1.66147
 Alpha virt. eigenvalues --    1.67335   1.67761   1.68516   1.68680   1.68912
 Alpha virt. eigenvalues --    1.69366   1.70009   1.70285   1.71543   1.72623
 Alpha virt. eigenvalues --    1.73083   1.75362   1.75410   1.76193   1.77077
 Alpha virt. eigenvalues --    1.78623   1.78795   1.79204   1.80563   1.81278
 Alpha virt. eigenvalues --    1.83151   1.83189   1.84518   1.86069   1.86550
 Alpha virt. eigenvalues --    1.86784   1.86933   1.87758   1.89125   1.89768
 Alpha virt. eigenvalues --    1.90030   1.92309   1.93071   1.95119   1.95649
 Alpha virt. eigenvalues --    1.97084   1.97827   1.98652   1.99683   2.01555
 Alpha virt. eigenvalues --    2.03383   2.03874   2.07229   2.07677   2.07961
 Alpha virt. eigenvalues --    2.09093   2.09788   2.10846   2.11872   2.14144
 Alpha virt. eigenvalues --    2.14237   2.15843   2.16934   2.17793   2.18838
 Alpha virt. eigenvalues --    2.20781   2.22320   2.23657   2.23731   2.24281
 Alpha virt. eigenvalues --    2.25422   2.25590   2.27371   2.28275   2.30063
 Alpha virt. eigenvalues --    2.30992   2.33165   2.34850   2.36593   2.37762
 Alpha virt. eigenvalues --    2.39170   2.40759   2.41672   2.43363   2.43673
 Alpha virt. eigenvalues --    2.45298   2.45542   2.49743   2.51440   2.52904
 Alpha virt. eigenvalues --    2.55356   2.58812   2.59020   2.60173   2.61383
 Alpha virt. eigenvalues --    2.62633   2.62675   2.63814   2.65624   2.65936
 Alpha virt. eigenvalues --    2.67663   2.68124   2.70697   2.70777   2.72085
 Alpha virt. eigenvalues --    2.72401   2.73814   2.74141   2.74301   2.75878
 Alpha virt. eigenvalues --    2.76259   2.78323   2.78457   2.78958   2.80450
 Alpha virt. eigenvalues --    2.80593   2.83930   2.84082   2.84264   2.85950
 Alpha virt. eigenvalues --    2.86747   2.87141   2.87716   2.88097   2.89350
 Alpha virt. eigenvalues --    2.90197   2.90812   2.91775   2.92839   2.93137
 Alpha virt. eigenvalues --    2.93201   2.93772   2.94640   2.95688   2.96048
 Alpha virt. eigenvalues --    2.97408   2.97518   2.97996   2.98127   2.98207
 Alpha virt. eigenvalues --    2.99195   3.00726   3.00727   3.00985   3.01839
 Alpha virt. eigenvalues --    3.02482   3.03673   3.04030   3.04435   3.05399
 Alpha virt. eigenvalues --    3.06502   3.06634   3.07225   3.07524   3.08836
 Alpha virt. eigenvalues --    3.09413   3.10535   3.11062   3.11654   3.12484
 Alpha virt. eigenvalues --    3.12896   3.13516   3.14337   3.15614   3.16390
 Alpha virt. eigenvalues --    3.16882   3.17732   3.17977   3.17995   3.19161
 Alpha virt. eigenvalues --    3.19403   3.20127   3.20538   3.20578   3.21629
 Alpha virt. eigenvalues --    3.22291   3.22750   3.24191   3.24814   3.26345
 Alpha virt. eigenvalues --    3.26533   3.27432   3.27823   3.28145   3.29232
 Alpha virt. eigenvalues --    3.29836   3.30532   3.30998   3.31125   3.32251
 Alpha virt. eigenvalues --    3.32478   3.32625   3.34450   3.35959   3.36204
 Alpha virt. eigenvalues --    3.36486   3.36776   3.38231   3.39321   3.39974
 Alpha virt. eigenvalues --    3.40002   3.41307   3.41722   3.42321   3.42990
 Alpha virt. eigenvalues --    3.43425   3.44060   3.45166   3.45591   3.46493
 Alpha virt. eigenvalues --    3.47622   3.48076   3.48368   3.49155   3.49830
 Alpha virt. eigenvalues --    3.50330   3.51694   3.52801   3.53103   3.53355
 Alpha virt. eigenvalues --    3.53613   3.54175   3.54188   3.55184   3.55234
 Alpha virt. eigenvalues --    3.55761   3.57110   3.57734   3.57939   3.58520
 Alpha virt. eigenvalues --    3.60075   3.60296   3.61348   3.61353   3.62428
 Alpha virt. eigenvalues --    3.63250   3.63803   3.65156   3.65728   3.66323
 Alpha virt. eigenvalues --    3.67369   3.67603   3.68150   3.68761   3.69118
 Alpha virt. eigenvalues --    3.70206   3.70554   3.71851   3.71892   3.73372
 Alpha virt. eigenvalues --    3.73769   3.73907   3.74580   3.75044   3.76118
 Alpha virt. eigenvalues --    3.76260   3.78464   3.78772   3.78968   3.79750
 Alpha virt. eigenvalues --    3.80568   3.80622   3.81994   3.83164   3.83620
 Alpha virt. eigenvalues --    3.83912   3.84807   3.85220   3.86384   3.86646
 Alpha virt. eigenvalues --    3.88278   3.88553   3.88956   3.89861   3.90050
 Alpha virt. eigenvalues --    3.91566   3.91874   3.93539   3.93606   3.94659
 Alpha virt. eigenvalues --    3.95392   3.96666   3.97181   3.97787   3.98065
 Alpha virt. eigenvalues --    3.99034   4.00344   4.00529   4.01634   4.01845
 Alpha virt. eigenvalues --    4.02218   4.02955   4.03232   4.05447   4.06126
 Alpha virt. eigenvalues --    4.07032   4.08746   4.09485   4.09499   4.11417
 Alpha virt. eigenvalues --    4.12848   4.13285   4.13658   4.13853   4.15347
 Alpha virt. eigenvalues --    4.15387   4.16225   4.17485   4.17982   4.19140
 Alpha virt. eigenvalues --    4.19337   4.19359   4.20601   4.20714   4.21621
 Alpha virt. eigenvalues --    4.21768   4.22896   4.22937   4.23617   4.24398
 Alpha virt. eigenvalues --    4.25134   4.25679   4.25691   4.26509   4.26609
 Alpha virt. eigenvalues --    4.27297   4.28060   4.28589   4.28676   4.29126
 Alpha virt. eigenvalues --    4.29963   4.30281   4.30630   4.31992   4.32379
 Alpha virt. eigenvalues --    4.33482   4.33771   4.34177   4.34804   4.35479
 Alpha virt. eigenvalues --    4.35864   4.36297   4.36654   4.36902   4.38475
 Alpha virt. eigenvalues --    4.39296   4.40364   4.40882   4.41533   4.42387
 Alpha virt. eigenvalues --    4.43087   4.43198   4.43436   4.44847   4.45800
 Alpha virt. eigenvalues --    4.46302   4.47088   4.47542   4.48739   4.50065
 Alpha virt. eigenvalues --    4.50428   4.50939   4.51901   4.52637   4.53158
 Alpha virt. eigenvalues --    4.53895   4.54677   4.55419   4.58155   4.59630
 Alpha virt. eigenvalues --    4.62541   4.63392   4.63401   4.64947   4.65296
 Alpha virt. eigenvalues --    4.66270   4.66894   4.67750   4.69763   4.70113
 Alpha virt. eigenvalues --    4.71873   4.71897   4.72267   4.72370   4.74838
 Alpha virt. eigenvalues --    4.75748   4.76812   4.77366   4.77414   4.78604
 Alpha virt. eigenvalues --    4.78766   4.80543   4.81285   4.81721   4.82881
 Alpha virt. eigenvalues --    4.84208   4.84741   4.86767   4.88709   4.89350
 Alpha virt. eigenvalues --    4.90207   4.90632   4.92028   4.92074   4.93586
 Alpha virt. eigenvalues --    4.94615   4.95672   4.96918   4.97322   4.99113
 Alpha virt. eigenvalues --    5.00608   5.02467   5.04079   5.04930   5.05843
 Alpha virt. eigenvalues --    5.07796   5.08690   5.08935   5.09913   5.10615
 Alpha virt. eigenvalues --    5.11081   5.12751   5.14170   5.14861   5.16333
 Alpha virt. eigenvalues --    5.16746   5.19231   5.19481   5.19651   5.19869
 Alpha virt. eigenvalues --    5.22635   5.22673   5.23403   5.23862   5.24423
 Alpha virt. eigenvalues --    5.26277   5.26362   5.28283   5.28616   5.28938
 Alpha virt. eigenvalues --    5.30354   5.30367   5.31072   5.31077   5.32012
 Alpha virt. eigenvalues --    5.33578   5.34879   5.36360   5.36491   5.37495
 Alpha virt. eigenvalues --    5.37779   5.38306   5.38381   5.40463   5.41843
 Alpha virt. eigenvalues --    5.42240   5.42725   5.44279   5.45243   5.46376
 Alpha virt. eigenvalues --    5.48083   5.49819   5.50507   5.51910   5.52182
 Alpha virt. eigenvalues --    5.53440   5.54171   5.54655   5.56237   5.56381
 Alpha virt. eigenvalues --    5.57326   5.59980   5.60833   5.65497   5.65747
 Alpha virt. eigenvalues --    5.66167   5.66775   5.67758   5.68116   5.69294
 Alpha virt. eigenvalues --    5.69359   5.72803   5.74163   5.74217   5.74799
 Alpha virt. eigenvalues --    5.78037   5.78977   5.79609   5.80056   5.80586
 Alpha virt. eigenvalues --    5.81217   5.82744   5.83872   5.84343   5.87322
 Alpha virt. eigenvalues --    5.88909   5.92943   5.95523   5.98275   6.00200
 Alpha virt. eigenvalues --    6.00744   6.10637   6.12240   6.13065   6.17709
 Alpha virt. eigenvalues --    6.21642   6.28904   6.33181   6.34476   6.53234
 Alpha virt. eigenvalues --   22.63882  23.20173  23.24072  23.29611  23.29826
 Alpha virt. eigenvalues --   23.45679  23.52446  23.53982  23.75323  23.75998
 Alpha virt. eigenvalues --   23.85716  23.86214  23.97957  31.27750  32.93167
 Alpha virt. eigenvalues --   32.96757 102.35315
          Condensed to atoms (all electrons):
               1          2          3          4          5          6
     1  C    5.709466   0.108173   0.329932  -0.169675   0.037976  -0.048872
     2  C    0.108173   5.709467  -0.169680   0.329934   0.037980  -0.003898
     3  C    0.329932  -0.169680   5.102035   0.060719   0.420076   0.440722
     4  C   -0.169675   0.329934   0.060719   5.102030   0.420068   0.009607
     5  C    0.037976   0.037980   0.420076   0.420068   5.023102  -0.044267
     6  H   -0.048872  -0.003898   0.440722   0.009607  -0.044267   0.517532
     7  H   -0.003898  -0.048870   0.009607   0.440722  -0.044267  -0.000147
     8  C    0.292767   0.026656  -0.092655  -0.009708   0.016214  -0.006434
     9  H   -0.045600   0.001932  -0.005070  -0.000267   0.000809  -0.000095
    10  H   -0.058745  -0.002334   0.002661   0.000504  -0.000570   0.002076
    11  C    0.026653   0.292778  -0.009707  -0.092653   0.016214   0.000074
    12  H    0.001932  -0.045600  -0.000267  -0.005070   0.000809  -0.000005
    13  H   -0.002333  -0.058744   0.000504   0.002660  -0.000570   0.000000
    14  N   -0.000716  -0.015372   0.006644   0.000682  -0.000801   0.000099
    15  N   -0.015371  -0.000718   0.000681   0.006643  -0.000800   0.000001
    16  C   -0.004689  -0.004690   0.001433   0.001434  -0.000418   0.000014
    17  H    0.000185   0.000185  -0.000057  -0.000057   0.000023  -0.000001
    18  H   -0.000089   0.000128  -0.000027  -0.000013   0.000003  -0.000000
    19  H    0.000128  -0.000089  -0.000013  -0.000027   0.000003  -0.000000
    20  C    0.008578   0.000931  -0.000831  -0.000035   0.000061  -0.000022
    21  H   -0.001003   0.000099  -0.000018  -0.000003   0.000002  -0.000000
    22  H    0.002373  -0.000129   0.000184   0.000007  -0.000010   0.000013
    23  H   -0.002078  -0.000023  -0.000159  -0.000004   0.000011  -0.000006
    24  C    0.000468   0.003235  -0.000869  -0.000250   0.000308  -0.000147
    25  H   -0.004520  -0.000353   0.000729   0.000073  -0.000115   0.000066
    26  H    0.000857   0.000113  -0.000216  -0.000032   0.000025  -0.000006
    27  H    0.015405   0.000315   0.002647  -0.000034  -0.000012   0.000162
    28  C    0.000931   0.008578  -0.000035  -0.000831   0.000061   0.000000
    29  H   -0.000129   0.002373   0.000007   0.000184  -0.000010   0.000000
    30  H    0.000099  -0.001003  -0.000003  -0.000018   0.000002  -0.000000
    31  H   -0.000023  -0.002078  -0.000004  -0.000159   0.000011   0.000000
    32  C    0.003234   0.000468  -0.000250  -0.000868   0.000308  -0.000003
    33  H    0.000113   0.000857  -0.000032  -0.000217   0.000025  -0.000000
    34  H   -0.000353  -0.004520   0.000073   0.000729  -0.000115   0.000000
    35  H    0.000314   0.015404  -0.000034   0.002648  -0.000012   0.000004
    36  H   -0.010113  -0.010108  -0.006038  -0.006038   0.002989  -0.000140
    37  H    0.012556   0.012556  -0.049809  -0.049809   0.452382  -0.004789
    38  C    0.052598   0.052586   0.125350   0.125355  -0.187841   0.019754
    39  Rh  -0.106506  -0.106515   0.023648   0.023647  -0.005095  -0.000557
               7          8          9         10         11         12
     1  C   -0.003898   0.292767  -0.045600  -0.058745   0.026653   0.001932
     2  C   -0.048870   0.026656   0.001932  -0.002334   0.292778  -0.045600
     3  C    0.009607  -0.092655  -0.005070   0.002661  -0.009707  -0.000267
     4  C    0.440722  -0.009708  -0.000267   0.000504  -0.092653  -0.005070
     5  C   -0.044267   0.016214   0.000809  -0.000570   0.016214   0.000809
     6  H   -0.000147  -0.006434  -0.000095   0.002076   0.000074  -0.000005
     7  H    0.517531   0.000074  -0.000005   0.000000  -0.006434  -0.000095
     8  C    0.000074   4.925645   0.447095   0.439597   0.000596   0.000041
     9  H   -0.000005   0.447095   0.560826  -0.021457   0.000041   0.000026
    10  H    0.000000   0.439597  -0.021457   0.562139  -0.000028  -0.000003
    11  C   -0.006434   0.000596   0.000041  -0.000028   4.925634   0.447093
    12  H   -0.000095   0.000041   0.000026  -0.000003   0.447093   0.560829
    13  H    0.002076  -0.000028  -0.000003  -0.000000   0.439596  -0.021457
    14  N    0.000001   0.272197  -0.035235  -0.027855  -0.001208   0.000011
    15  N    0.000099  -0.001208   0.000011  -0.000012   0.272203  -0.035235
    16  C    0.000014  -0.001271  -0.000639   0.000184  -0.001271  -0.000639
    17  H   -0.000001  -0.000082   0.000011  -0.000000  -0.000082   0.000011
    18  H   -0.000000   0.000184   0.000041  -0.000018   0.000035   0.000007
    19  H   -0.000000   0.000035   0.000007  -0.000001   0.000184   0.000041
    20  C    0.000000  -0.038481  -0.005284  -0.007636   0.000050  -0.000008
    21  H   -0.000000   0.008060   0.000606  -0.000547   0.000003   0.000001
    22  H    0.000000  -0.011281  -0.003633   0.006822  -0.000002  -0.000000
    23  H    0.000000  -0.003852   0.002380  -0.000213  -0.000015   0.000005
    24  C   -0.000003  -0.026155   0.006527  -0.018246   0.000193  -0.000004
    25  H    0.000000  -0.009844  -0.000169   0.007496  -0.000009  -0.000000
    26  H   -0.000000   0.005833  -0.000127  -0.000025   0.000003   0.000001
    27  H    0.000004  -0.012348   0.000236  -0.002315   0.000146  -0.000002
    28  C   -0.000022   0.000050  -0.000008   0.000001  -0.038484  -0.005284
    29  H    0.000013  -0.000002  -0.000000  -0.000000  -0.011280  -0.003633
    30  H   -0.000000   0.000003   0.000001  -0.000000   0.008060   0.000606
    31  H   -0.000006  -0.000015   0.000005  -0.000000  -0.003852   0.002379
    32  C   -0.000147   0.000193  -0.000004   0.000008  -0.026155   0.006526
    33  H   -0.000006   0.000003   0.000001   0.000000   0.005834  -0.000127
    34  H    0.000066  -0.000009  -0.000000  -0.000000  -0.009845  -0.000169
    35  H    0.000162   0.000146  -0.000002  -0.000002  -0.012347   0.000236
    36  H   -0.000140   0.006348   0.001147   0.000195   0.006347   0.001147
    37  H   -0.004789  -0.000153   0.000009  -0.000016  -0.000153   0.000009
    38  C    0.019754  -0.113232  -0.007154   0.008993  -0.113234  -0.007154
    39  Rh  -0.000557  -0.040168  -0.006704   0.009027  -0.040164  -0.006704
              13         14         15         16         17         18
     1  C   -0.002333  -0.000716  -0.015371  -0.004689   0.000185  -0.000089
     2  C   -0.058744  -0.015372  -0.000718  -0.004690   0.000185   0.000128
     3  C    0.000504   0.006644   0.000681   0.001433  -0.000057  -0.000027
     4  C    0.002660   0.000682   0.006643   0.001434  -0.000057  -0.000013
     5  C   -0.000570  -0.000801  -0.000800  -0.000418   0.000023   0.000003
     6  H    0.000000   0.000099   0.000001   0.000014  -0.000001  -0.000000
     7  H    0.002076   0.000001   0.000099   0.000014  -0.000001  -0.000000
     8  C   -0.000028   0.272197  -0.001208  -0.001271  -0.000082   0.000184
     9  H   -0.000003  -0.035235   0.000011  -0.000639   0.000011   0.000041
    10  H   -0.000000  -0.027855  -0.000012   0.000184  -0.000000  -0.000018
    11  C    0.439596  -0.001208   0.272203  -0.001271  -0.000082   0.000035
    12  H   -0.021457   0.000011  -0.035235  -0.000639   0.000011   0.000007
    13  H    0.562136  -0.000012  -0.027854   0.000184  -0.000000  -0.000001
    14  N   -0.000012   6.351434  -0.004372  -0.017061  -0.000414   0.000961
    15  N   -0.027854  -0.004372   6.351438  -0.017065  -0.000414   0.000774
    16  C    0.000184  -0.017061  -0.017065   5.474596   0.403398   0.395150
    17  H   -0.000000  -0.000414  -0.000414   0.403398   0.570325  -0.025268
    18  H   -0.000001   0.000961   0.000774   0.395150  -0.025268   0.591114
    19  H   -0.000018   0.000774   0.000961   0.395156  -0.025269  -0.015423
    20  C    0.000001   0.247532   0.000276  -0.006009   0.000401  -0.002505
    21  H   -0.000000  -0.030864   0.000019  -0.002597   0.000018   0.002710
    22  H   -0.000000  -0.021679  -0.000012   0.000755  -0.000037  -0.000313
    23  H   -0.000000  -0.037392   0.000031  -0.001197   0.000021   0.000465
    24  C    0.000008   0.221748   0.001446  -0.012676  -0.003392  -0.005165
    25  H   -0.000000  -0.024321  -0.000026   0.001814  -0.000060  -0.000489
    26  H    0.000000  -0.026403   0.000134  -0.008569  -0.002167   0.001573
    27  H   -0.000002  -0.038345   0.000037   0.000638  -0.000653   0.000402
    28  C   -0.007636   0.000276   0.247531  -0.006010   0.000401   0.000038
    29  H    0.006821  -0.000012  -0.021679   0.000755  -0.000037   0.000000
    30  H   -0.000547   0.000019  -0.030864  -0.002597   0.000018   0.000078
    31  H   -0.000213   0.000031  -0.037392  -0.001197   0.000021   0.000013
    32  C   -0.018244   0.001446   0.221744  -0.012680  -0.003393   0.000798
    33  H   -0.000025   0.000134  -0.026405  -0.008572  -0.002169   0.000780
    34  H    0.007496  -0.000026  -0.024320   0.001815  -0.000060  -0.000016
    35  H   -0.002315   0.000037  -0.038345   0.000638  -0.000654  -0.000129
    36  H    0.000194   0.001258   0.001259  -0.024458  -0.000255   0.001050
    37  H   -0.000016   0.000007   0.000007  -0.000001   0.000000   0.000000
    38  C    0.008993  -0.082311  -0.082304  -0.057573   0.001430   0.001039
    39  Rh   0.009027   0.264779   0.264773   0.293971  -0.003138  -0.019223
              19         20         21         22         23         24
     1  C    0.000128   0.008578  -0.001003   0.002373  -0.002078   0.000468
     2  C   -0.000089   0.000931   0.000099  -0.000129  -0.000023   0.003235
     3  C   -0.000013  -0.000831  -0.000018   0.000184  -0.000159  -0.000869
     4  C   -0.000027  -0.000035  -0.000003   0.000007  -0.000004  -0.000250
     5  C    0.000003   0.000061   0.000002  -0.000010   0.000011   0.000308
     6  H   -0.000000  -0.000022  -0.000000   0.000013  -0.000006  -0.000147
     7  H   -0.000000   0.000000  -0.000000   0.000000   0.000000  -0.000003
     8  C    0.000035  -0.038481   0.008060  -0.011281  -0.003852  -0.026155
     9  H    0.000007  -0.005284   0.000606  -0.003633   0.002380   0.006527
    10  H   -0.000001  -0.007636  -0.000547   0.006822  -0.000213  -0.018246
    11  C    0.000184   0.000050   0.000003  -0.000002  -0.000015   0.000193
    12  H    0.000041  -0.000008   0.000001  -0.000000   0.000005  -0.000004
    13  H   -0.000018   0.000001  -0.000000  -0.000000  -0.000000   0.000008
    14  N    0.000774   0.247532  -0.030864  -0.021679  -0.037392   0.221748
    15  N    0.000961   0.000276   0.000019  -0.000012   0.000031   0.001446
    16  C    0.395156  -0.006009  -0.002597   0.000755  -0.001197  -0.012676
    17  H   -0.025269   0.000401   0.000018  -0.000037   0.000021  -0.003392
    18  H   -0.015423  -0.002505   0.002710  -0.000313   0.000465  -0.005165
    19  H    0.591112   0.000038   0.000078   0.000000   0.000013   0.000798
    20  C    0.000038   4.798379   0.421816   0.407107   0.426399  -0.033855
    21  H    0.000078   0.421816   0.548077  -0.022834  -0.016663  -0.004719
    22  H    0.000000   0.407107  -0.022834   0.561863  -0.024281  -0.013028
    23  H    0.000013   0.426399  -0.016663  -0.024281   0.551237   0.007038
    24  C    0.000798  -0.033855  -0.004719  -0.013028   0.007038   4.841250
[...]
 00004629,-0.00000917,-0.00005747,0.00025206,0.00006224,0.00016967,-0.0
 0000081,0.00004927,0.00000995,-0.00005148,-0.00009633,-0.00006208,-0.0
 0005630,-0.00000628,0.00002710,-0.00000764,-0.00000054,0.00000321,0.00
 000166,-0.00000232,-0.00000828,0.00000050,0.00001333,-0.00000384,-0.00
 000922,-0.00000597,0.00000080,-0.00000739,-0.00000162,-0.00000343,-0.0
 0062562,0.00022541,0.00064036,-0.00000658,0.00012282,-0.00015924,-0.00
 005708,0.00005656,0.00001814,-0.00006943,0.00001406,0.00003802,-0.0029
 0801,0.00243961,0.00282357,0.00029110,0.00004506,-0.00001482,0.0000399
 1,-0.00012520,0.00021278,-0.00014822,0.00015289,0.00003560,-0.00016764
 ,0.00017296,0.00007041,0.00000089,-0.00000033,0.00002369,0.00000140,-0
 .00000402,-0.00000068,-0.00000189,-0.00000127,-0.00000705,0.00000260,0
 .00000187,-0.00000430,-0.00000651,-0.00003085,-0.00005309,0.00000453,0
 .00000466,0.00001865,-0.00000898,-0.00001732,-0.00000706,-0.00003189,0
 .00002935,-0.00000210,-0.00033759,0.00036651,0.00060291,0.00015266,-0.
 00005725,0.00000374,-0.00001174,0.00045884,0.00008183,0.00019512,0.000
 44571,0.00003413,0.09895044,-0.16939676,-0.09497967,0.01662448,-0.0160
 6613,-0.01544775,-0.00460445,0.00507988,0.00461400,-0.10715387,0.17620
 000,-0.00022235,0.00025498,0.00002567,-0.00015497,0.00040219,0.0000518
 8,-0.00005965,-0.00025812,-0.00007229,-0.00017439,0.00040068,0.0001051
 0,0.00028970,0.00000998,-0.00001278,0.00001282,-0.00001204,-0.00000019
 ,-0.00001479,-0.00000689,0.00000226,-0.00003196,-0.00006418,0.00003640
 ,0.00001248,0.00001783,-0.00000054,0.00001101,0.00002153,-0.00000766,0
 .00053757,-0.00144622,0.00062461,-0.00000088,-0.00013566,0.00018775,0.
 00012704,0.00022124,-0.00006668,-0.00023916,0.00003041,-0.00001114,0.0
 1788058,-0.02397627,-0.02308906,-0.00013428,0.00021186,0.00010689,-0.0
 0001693,-0.00004077,-0.00002442,0.00000155,0.00000389,-0.00000219,0.00
 010109,0.00009459,-0.00002518,-0.00001379,0.00002492,0.00001139,-0.000
 00192,-0.00000109,0.00000273,-0.00000549,-0.00001221,-0.00001192,0.000
 00075,-0.00000187,-0.00001278,0.00000570,0.00000086,-0.00003939,0.0000
 0059,0.00000552,0.00000781,-0.00000265,0.00000263,0.00000411,-0.000007
 72,-0.00000210,0.00001674,-0.00279317,0.00245621,-0.00587636,0.0001015
 0,0.00013617,0.00006688,-0.00016567,-0.00001186,0.00025586,0.00116342,
 -0.00125204,-0.00115335,0.07277603,-0.08688560,-0.11899288,-0.00626224
 ,0.00605245,0.00644636,-0.00184310,0.00309064,0.00308349,-0.08133432,0
 .10156997,0.13870879,0.00040076,0.00121999,0.00083517,0.00040139,-0.00
 121996,-0.00083515,-0.00024443,-0.00019612,0.00004982,-0.00024468,0.00
 019594,-0.00004980,0.00010298,0.00000005,0.,-0.00000620,0.00003778,0.0
 0000540,-0.00000620,-0.00003787,-0.00000539,0.00026302,0.00011854,0.00
 028591,0.00018219,-0.00000927,-0.00008485,0.00018606,-0.00022067,0.000
 04835,0.00026299,-0.00011864,-0.00028586,0.00018216,0.00000930,0.00008
 480,0.00018597,0.00022074,-0.00004835,0.00100406,-0.00174495,0.0060986
 8,0.00100394,0.00174503,-0.00609844,0.00457965,0.00000102,0.00000041,-
 0.00002910,-0.00000012,-0.00000004,-0.00020160,0.00110140,-0.00033391,
 -0.00020138,-0.00110120,0.00033375,0.00015654,-0.00017590,-0.00012086,
 0.00000733,0.00004076,-0.00000374,0.00020368,0.00009317,0.00010605,0.0
 0000121,-0.00004907,0.00013161,-0.00069764,0.00028136,0.00003107,-0.00
 027736,-0.00001105,0.00014110,0.00005956,0.00011840,-0.00010088,-0.000
 03432,-0.00014368,-0.00019600,0.00015649,0.00017598,0.00012086,0.00020
 373,-0.00009315,-0.00010605,0.00000735,-0.00004076,0.00000374,0.000001
 20,0.00004906,-0.00013163,-0.00069758,-0.00028138,-0.00003104,0.000059
 57,-0.00011837,0.00010089,-0.00027729,0.00001099,-0.00014110,-0.000034
 33,0.00014362,0.00019598,0.01960989,0.00258101,0.00019707,-0.00013100,
 -0.00258098,0.00019644,-0.00013113,-0.00131367,0.00087437,-0.00011741,
 0.00131349,0.00087461,-0.00011742,0.00000005,-0.00052158,-0.00000863,-
 0.00006092,0.00050361,-0.00004222,0.00006083,0.00050361,-0.00004222,-0
 .00033571,0.00085306,-0.00030753,-0.00015478,-0.00000085,0.00030289,-0
 .00031166,-0.00024608,0.00000767,0.00033561,0.00085310,-0.00030758,0.0
 0015481,-0.00000083,0.00030290,0.00031173,-0.00024599,0.00000766,0.001
 03582,0.00050153,-0.00145118,-0.00103574,0.00050164,-0.00145218,0.0000
 0102,-0.00778520,-0.00500115,-0.00000012,0.00141277,0.00050989,0.00025
 969,-0.00138516,0.00095792,-0.00025949,-0.00138538,0.00095798,-0.00012
 995,-0.00035558,-0.00004274,0.00007149,0.00000649,-0.00003071,0.000212
 62,0.00009201,0.00002323,-0.00001992,0.00004920,0.00012811,0.00007217,
 -0.00060062,-0.00017415,0.00047843,0.00010631,0.00001708,-0.00004205,-
 0.00014647,-0.00003694,0.00009149,0.00034752,0.00016093,0.00013003,-0.
 00035553,-0.00004272,-0.00021260,0.00009196,0.00002321,-0.00007149,0.0
 0000647,-0.00003071,0.00001991,0.00004922,0.00012809,-0.00007219,-0.00
 060067,-0.00017416,0.00004208,-0.00014648,-0.00003692,-0.00047849,0.00
 010623,0.00001706,-0.00009155,0.00034753,0.00016096,-0.00000008,0.0205
 0638,-0.00094758,-0.00171513,0.00098239,0.00094786,-0.00171497,0.00098
 239,0.00061814,-0.00041642,0.00053203,-0.00061807,-0.00041652,0.000532
 03,-0.00000004,0.00054996,-0.00010265,-0.00006170,-0.00013562,-0.00007
 952,0.00006172,-0.00013561,-0.00007952,0.00080555,0.00048065,-0.000788
 45,0.00039009,-0.00021008,-0.00014863,0.00014506,-0.00016491,0.0001706
 6,-0.00080563,0.00048051,-0.00078845,-0.00039006,-0.00021014,-0.000148
 63,-0.00014503,-0.00016493,0.00017066,0.00053158,-0.00072065,0.0005171
 3,-0.00053146,-0.00072074,0.00051713,-0.00000041,0.00499389,0.00571180
 ,0.00000015,-0.00176981,0.00046860,-0.00033457,0.00151216,-0.00053271,
 0.00033432,0.00151222,-0.00053271,0.00013288,-0.00040674,-0.00035967,-
 0.00009373,-0.00002544,0.00003235,0.00022774,0.00007315,0.00013523,0.0
 0012870,0.00009382,0.00015184,-0.00025429,-0.00034469,0.00005975,0.000
 25454,0.00007008,0.00006202,-0.00014992,-0.00000835,0.00003940,0.00004
 565,0.00017193,0.00011177,-0.00013282,-0.00040677,-0.00035967,-0.00022
 775,0.00007311,0.00013523,0.00009374,-0.00002543,0.00003235,-0.0001287
 2,0.00009380,0.00015184,0.00025435,-0.00034465,0.00005975,0.00014992,-
 0.00000832,0.00003940,-0.00025455,0.00007004,0.00006202,-0.00004567,0.
 00017192,0.00011177,0.00000394,-0.04752248,0.16985100,-0.00458035,-0.0
 0241555,-0.00069155,-0.00458124,0.00241469,0.00069175,0.00418613,-0.02
 799704,-0.00505629,0.00418205,0.02799948,0.00505668,-0.05951633,0.0000
 2235,0.00000448,0.00105295,0.00055776,0.00015455,0.00105299,-0.0005576
 9,-0.00015470,0.00066718,-0.00078531,-0.00000622,-0.00006649,-0.000038
 10,-0.00005879,-0.00001335,-0.00000308,0.00004505,0.00066715,0.0007854
 6,0.00000624,-0.00006651,0.00003810,0.00005880,-0.00001335,0.00000308,
 -0.00004506,-0.00024212,-0.00032212,-0.00016092,-0.00024220,0.00032211
 ,0.00016094,-0.00002132,0.,0.,-0.00000228,0.,0.,0.00000515,0.00000285,
 0.00000242,0.00000515,-0.00000285,-0.00000242,0.00006677,-0.00010594,0
 .00011235,-0.00002947,-0.00004781,-0.00002018,-0.00000396,0.00001031,0
 .00000094,-0.00000181,0.00000975,0.00000105,0.00003191,-0.00002717,-0.
 00006340,-0.00000510,0.00000217,-0.00000176,-0.00000875,-0.00001172,0.
 00001944,-0.00000275,0.00001206,-0.00000836,0.00006677,0.00010596,-0.0
 0011237,-0.00000396,-0.00001031,-0.00000094,-0.00002948,0.00004781,0.0
 0002018,-0.00000181,-0.00000975,-0.00000105,0.00003191,0.00002718,0.00
 006341,-0.00000875,0.00001172,-0.00001945,-0.00000511,-0.00000217,0.00
 000176,-0.00000274,-0.00001206,0.00000836,0.00000299,0.,0.,0.05886385,
 -0.00299034,0.00060195,-0.00118155,0.00298949,0.00060284,-0.00118144,0
 .00319913,-0.01064923,-0.00236899,-0.00319669,-0.01064515,-0.00236816,
 0.00002235,-0.33136393,-0.05440270,-0.00032677,0.00067901,0.00091671,0
 .00032683,0.00067897,0.00091668,0.00056764,-0.00021921,-0.00010746,-0.
 00009233,-0.00009409,-0.00004785,-0.00004802,-0.00000948,0.00003653,-0
 .00056749,-0.00021917,-0.00010746,0.00009233,-0.00009407,-0.00004784,0
 .00004802,-0.00000947,0.00003653,-0.00019725,-0.00014493,-0.00010017,0
 .00019724,-0.00014484,-0.00010014,0.,-0.00007441,0.00006984,0.,-0.0000
 1715,0.00002375,-0.00001777,-0.00002295,0.00000900,0.00001778,-0.00002
 295,0.00000900,0.00007977,-0.00003984,0.00011869,-0.00002057,-0.000039
 75,-0.00001395,-0.00002284,0.00000765,-0.00000274,-0.00000248,0.000008
 21,0.00000159,0.00003571,-0.00002302,-0.00009150,-0.00002165,0.0000046
 3,0.00000565,-0.00000293,-0.00001557,0.00001690,0.00000063,0.00001282,
 -0.00001803,-0.00007976,-0.00003983,0.00011867,0.00002284,0.00000765,-
 0.00000274,0.00002057,-0.00003974,-0.00001394,0.00000247,0.00000821,0.
 00000159,-0.00003570,-0.00002302,-0.00009149,0.00000293,-0.00001557,0.
 00001690,0.00002165,0.00000463,0.00000565,-0.00000063,0.00001282,-0.00
 001803,0.,0.00007786,-0.00000738,-0.00002399,0.35061315,-0.00072334,-0
 .00100343,0.00641035,0.00072351,-0.00100332,0.00641035,0.00059347,-0.0
 0254261,0.00217833,-0.00059305,-0.00254272,0.00217833,0.00000447,-0.05
 432782,-0.04399632,0.00004314,0.00089971,-0.00416234,-0.00004329,0.000
 89970,-0.00416234,0.00007451,-0.00008339,0.00060707,0.00007321,-0.0000
 0485,0.00001750,-0.00000899,-0.00003070,-0.00002591,-0.00007450,-0.000
 08340,0.00060707,-0.00007321,-0.00000487,0.00001750,0.00000900,-0.0000
 3070,-0.00002591,-0.00017956,-0.00023438,-0.00007733,0.00017960,-0.000
 23435,-0.00007733,0.,0.00004586,0.00002576,0.,-0.00001274,0.00001176,0
 .00000422,-0.00000259,-0.00000228,-0.00000422,-0.00000259,-0.00000228,
 0.00001204,-0.00000250,0.00004412,0.00000372,-0.00000922,-0.00000837,-
 0.00001584,-0.00000315,-0.00000177,0.00000015,0.00000442,0.00000017,0.
 00001554,-0.00000156,-0.00003546,-0.00000416,0.00000330,0.00000063,0.0
 0000577,-0.00000028,0.00000258,0.00000403,0.00000430,-0.00000135,-0.00
 001204,-0.00000250,0.00004412,0.00001584,-0.00000315,-0.00000177,-0.00
 000372,-0.00000922,-0.00000837,-0.00000015,0.00000442,0.00000017,-0.00
 001554,-0.00000156,-0.00003546,-0.00000577,-0.00000028,0.00000258,0.00
 000416,0.00000330,0.00000063,-0.00000403,0.00000430,-0.00000135,0.,0.0
 0009375,-0.00005342,-0.00000491,0.05960706,0.03595816,-0.27788709,0.06
 380662,0.00015298,-0.27785936,-0.06382718,-0.00015076,0.03714213,0.082
 67845,0.01246689,0.03716099,-0.08266750,-0.01246583,-0.07953458,-0.000
 00692,-0.00000019,0.00156272,-0.00074234,0.00089079,0.00156249,0.00074
 350,-0.00089040,-0.03871857,0.00695743,-0.00049486,-0.00103228,0.00043
 185,0.00070620,-0.00416372,-0.00331732,-0.00041964,-0.03871966,-0.0069
 6625,0.00049498,-0.00103253,-0.00043172,-0.00070608,-0.00416470,0.0033
 1715,0.00041973,-0.00416461,-0.00371172,0.00031356,-0.00416546,0.00371
 099,-0.00031353,0.00981914,0.00000114,-0.00000086,0.00066816,0.0000003
 1,-0.00000003,-0.00021726,0.00167061,-0.00176849,-0.00021702,-0.001670
 68,0.00176846,-0.00054367,0.00048779,0.00017956,0.00002843,-0.00002077
 ,0.00006618,-0.00014395,-0.00002375,-0.00011673,-0.00004075,0.00007811
 ,0.00011454,-0.00046635,-0.00002519,0.00010832,0.00025572,-0.00009437,
 -0.00008499,-0.00003162,-0.00007308,0.00010310,0.00002983,-0.00010395,
 -0.00001464,-0.00054353,-0.00048766,-0.00017949,-0.00014380,0.00002367
 ,0.00011671,0.00002843,0.00002081,-0.00006619,-0.00004075,-0.00007814,
 -0.00011452,-0.00046636,0.00002526,-0.00010860,-0.00003164,0.00007309,
 -0.00010311,0.00025581,0.00009442,0.00008511,0.00002978,0.00010393,0.0
 0001469,-0.00096268,0.00000015,-0.00000004,-0.00136327,-0.00000017,-0.
 00000005,0.69102969,0.10490584,-0.15300232,-0.01302591,-0.10492640,-0.
 15303008,-0.01302589,0.03205529,-0.02936842,-0.00647736,-0.03204435,-0
 .02938729,-0.00647939,-0.00000692,0.00461412,0.00250144,-0.00066224,-0
 .00551778,-0.00237828,0.00066340,-0.00551755,-0.00237843,-0.01361037,0
 .01492592,-0.00058683,-0.00191481,-0.00182894,-0.00072667,-0.00265419,
 -0.00312022,-0.00056001,0.01360154,0.01492702,-0.00058675,0.00191494,-
 0.00182870,-0.00072678,0.00265402,-0.00311924,-0.00055995,-0.00142636,
 0.00025300,-0.00011103,0.00142564,0.00025385,-0.00011108,0.00000114,-0
 .00397969,0.01042758,0.00000031,-0.00306206,0.00038083,-0.00021525,0.0
 0020462,0.00014524,0.00021518,0.00020438,0.00014553,0.00035940,-0.0012
 9901,-0.00042118,0.00000717,-0.00016803,0.00003998,0.00094498,0.000305
 93,0.00011973,-0.00010144,0.00014123,-0.00012726,-0.00002193,-0.000855
 16,0.00166453,0.00063008,-0.00003083,-0.00070943,-0.00002393,-0.000058
 92,0.00003913,-0.00021390,0.00014012,-0.00028964,-0.00035927,-0.001299
 15,-0.00042121,-0.00094505,0.00030578,0.00011975,-0.00000713,-0.000168
 02,0.00003997,0.00010141,0.00014124,-0.00012728,0.00002199,-0.00085515
 ,0.00166451,0.00002393,-0.00005890,0.00003912,-0.00063004,-0.00003092,
 -0.00070942,0.00021388,0.00014018,-0.00028964,0.00000015,-0.00276399,0
 .00051474,-0.00000017,0.00069271,0.00057009,0.00001453,0.51463397,0.01
 365450,-0.01366608,-0.07132190,-0.01365217,-0.01366831,-0.07132190,0.0
 0510816,-0.00670278,0.01128435,-0.00510707,-0.00670359,0.01128436,-0.0
 0000005,0.00076523,-0.00713682,-0.00010336,-0.00221443,0.00712714,0.00
 010373,-0.00221442,0.00712714,-0.00733382,0.00156261,0.00367647,-0.000
 37434,-0.00005925,0.00048842,-0.00010418,-0.00082761,0.00034705,0.0073
 3358,0.00156382,0.00367647,0.00037435,-0.00005918,0.00048842,0.0001043
 2,-0.00082759,0.00034705,-0.00143117,-0.00005115,0.00135861,0.00143118
 ,-0.00005092,0.00135861,-0.00000095,0.01160254,0.00300197,0.00000015,-
 0.00176256,0.00088679,-0.00015187,0.00121699,-0.00108176,0.00015167,0.
 00121702,-0.00108176,-0.00004921,0.00017489,0.00018729,0.00005207,-0.0
 0002853,-0.00011513,-0.00025407,-0.00004406,0.00002805,-0.00010814,-0.
 00012797,0.00009663,-0.00009898,-0.00008496,-0.00083813,-0.00006943,0.
 00010255,0.00019178,0.00005259,0.00000215,0.00012784,0.00017083,0.0002
 5262,0.00015888,0.00004919,0.00017490,0.00018729,0.00025408,-0.0000440
 2,0.00002805,-0.00005206,-0.00002854,-0.00011513,0.00010816,-0.0001279
 5,0.00009664,0.00009899,-0.00008494,-0.00083813,-0.00005259,0.00000214
 ,0.00012784,0.00006941,0.00010256,0.00019178,-0.00017088,0.00025260,0.
 00015889,0.00000067,-0.00811692,-0.00501820,-0.00000003,0.00034965,-0.
 00162763,-0.00000385,0.04546928,0.13639539,0.00061470,0.01665650,0.001
 98299,0.00061939,-0.01665272,-0.00198297,-0.00478360,-0.00003408,0.000
 21368,-0.00478334,0.00003288,-0.00021376,0.00127952,0.00000036,0.00000
 004,0.00011492,0.00093404,0.00018576,0.00011507,-0.00093397,-0.0001857
 3,-0.00688169,0.01433416,-0.00223610,0.00032917,-0.00080628,0.00054511
 ,0.00089773,-0.00130471,-0.00032219,-0.00687740,-0.01433393,0.00223626
 ,0.00032911,0.00080623,-0.00054508,0.00089752,0.00130516,0.00032204,-0
 .03419624,0.00209667,-0.00152319,-0.03419781,-0.00209612,0.00152199,-0
 .04965121,0.00000084,-0.00000118,-0.00122866,-0.00000040,0.00000008,0.
 00247627,-0.01229200,0.00866510,0.00247421,0.01229294,-0.00866562,-0.0
 0948381,-0.00494121,-0.00420850,-0.00005090,0.00086961,0.00033133,0.00
 131883,0.00094980,0.00066376,-0.00006501,0.00059306,0.00106117,-0.0068
 4857,-0.00049872,0.00983480,0.00160879,-0.00007178,-0.00108613,-0.0005
 3774,0.00003734,-0.00064852,-0.00089129,0.00043417,-0.00023848,-0.0094
 8585,0.00493896,0.00420815,0.00131850,-0.00094937,-0.00066355,-0.00005
 097,-0.00086958,-0.00033133,-0.00006494,-0.00059306,-0.00106114,-0.006
 84884,0.00049711,-0.00983454,-0.00053795,-0.00003743,0.00064840,0.0016
 0850,0.00007205,0.00108593,-0.00089111,-0.00043422,0.00023860,-0.02530
 991,-0.00000104,-0.00000388,-0.00007041,0.,0.,-0.04291810,0.00000893,0
 .00000060,0.23065315,0.01182643,-0.02233349,-0.00006972,-0.01182266,-0
 .02233816,-0.00007004,0.00155773,0.00248902,0.00052676,-0.00155892,0.0
 0248876,0.00052672,0.00000035,-0.00303794,-0.00052252,0.00003455,-0.00
 037406,-0.00016662,-0.00003447,-0.00037422,-0.00016665,0.01170415,-0.0
 0823798,-0.00093736,0.00045650,0.00061546,-0.00015314,0.00006040,-0.00
 183182,0.00089699,-0.01170393,-0.00824227,-0.00093699,-0.00045655,0.00
 061552,-0.00015322,-0.00005995,-0.00183162,0.00089704,-0.01153247,-0.0
 3752375,0.00732262,0.01153303,-0.03752219,0.00732286,0.00000083,-0.059
 76249,0.01436401,-0.00000041,0.00371078,-0.00104677,-0.00020544,-0.003
 24288,0.00317447,0.00020638,-0.00324082,0.00317304,-0.00751056,0.00418
 676,0.00217814,-0.00125665,-0.00026228,0.00003783,-0.00289174,-0.00130
 609,-0.00122993,-0.00013074,-0.00005064,-0.00014083,-0.00111721,0.0029
 4791,-0.00153348,-0.00168231,-0.00003479,0.00124707,-0.00132497,0.0000
 1892,0.00075970,0.00068766,-0.00062004,-0.00075494,0.00750832,0.004188
 80,0.00217883,0.00289217,-0.00130577,-0.00123004,0.00125668,-0.0002622
 1,0.00003777,0.00013073,-0.00005072,-0.00014100,0.00111560,0.00294817,
 -0.00153509,0.00132488,0.00001913,0.00075980,0.00168258,-0.00003450,0.
 00124724,-0.00068771,-0.00062023,-0.00075490,-0.00000104,-0.01251857,0
 .04673380,0.,-0.00004576,0.00003765,0.00000893,-0.15153369,-0.00731579
 ,-0.00001020,0.35430976,-0.00174983,-0.00303389,0.00616310,0.00175033,
 -0.00303359,0.00616310,0.00108915,-0.00053908,0.00254475,-0.00108905,-
 0.00053927,0.00254475,0.,0.00008112,-0.00042622,0.00007587,-0.00030333
 ,-0.00038238,-0.00007582,-0.00030335,-0.00038238,-0.00350158,0.0007856
 8,0.00000809,-0.00014863,-0.00027126,0.00002363,-0.00020761,0.00120337
 ,0.00012904,0.00350145,0.00078627,0.00000809,0.00014867,-0.00027123,0.
 00002363,0.00020741,0.00120340,0.00012904,-0.00052716,0.00467840,-0.03
 512336,0.00052638,0.00467849,-0.03512336,-0.00000148,0.01807804,-0.021
 49613,-0.00000069,0.00836882,-0.00867050,0.00073051,-0.00117710,-0.000
 04706,-0.00073032,-0.00117723,-0.00004706,-0.00636653,0.00150766,0.000
 62359,0.00006281,-0.00003483,0.00021259,-0.00138872,-0.00102988,-0.000
 31063,-0.00088005,0.00019329,-0.00009229,0.01360953,-0.00201860,-0.000
 94723,0.00121295,0.00004054,-0.00283023,0.00117868,0.00039334,-0.00024
 242,0.00126394,-0.00061627,-0.00061520,0.00636629,0.00150871,0.0006235
 8,0.00138889,-0.00102966,-0.00031063,-0.00006280,-0.00003484,0.0002125
 9,0.00088001,0.00019343,-0.00009230,-0.01360919,-0.00202084,-0.0009472
 2,-0.00117874,0.00039315,-0.00024242,-0.00121296,0.00004034,-0.0028302
 3,-0.00126384,-0.00061648,-0.00061520,-0.00000509,0.06151880,-0.172628
 31,0.,0.00001316,-0.00021021,0.00000107,-0.01305203,-0.02993271,0.0000
 0615,-0.07456328,0.29513610\\0.00000575,-0.00001067,-0.00000853,-0.000
 00575,-0.00001068,-0.00000853,-0.00000358,0.00000270,-0.00001024,0.000
 00357,0.00000271,-0.00001024,0.,0.00000135,-0.00001126,0.00000027,0.00
 000002,-0.00001259,-0.00000027,0.00000002,-0.00001259,-0.00000305,-0.0
 0000137,-0.00000349,-0.00000047,-0.00000534,-0.00000109,0.00000242,0.0
 0000050,-0.00000394,0.00000305,-0.00000137,-0.00000349,0.00000047,-0.0
 0000533,-0.00000109,-0.00000242,0.00000051,-0.00000394,-0.00000423,-0.
 00000227,0.00000037,0.00000423,-0.00000226,0.00000038,0.,-0.00000147,0
 .00001348,0.,0.00001282,0.00000613,0.00000167,0.00000030,0.00001294,-0
 .00000167,0.00000030,0.00001294,-0.00000339,-0.00000102,0.00000729,0.0
 0000143,-0.00000214,0.00000771,0.00000228,-0.00000321,0.00000401,-0.00
 000042,-0.00000713,0.00000468,-0.00000079,0.00000405,0.00000434,0.0000
 0185,0.00000493,0.00000094,-0.00000057,0.00000692,0.00000548,0.0000000
 6,0.00000528,-0.00000020,0.00000338,-0.00000102,0.00000728,-0.00000228
 ,-0.00000321,0.00000401,-0.00000143,-0.00000214,0.00000771,0.00000042,
 -0.00000714,0.00000468,0.00000079,0.00000404,0.00000434,0.00000057,0.0
 0000692,0.00000548,-0.00000185,0.00000494,0.00000094,-0.00000006,0.000
 00528,-0.00000020,0.,-0.00001848,0.00000411,0.,0.00000116,-0.00001698,
 0.,0.00000918,0.00000719,0.,0.00001233,-0.00001801\\\@
 The archive entry for this job was punched.


 THE PROGRESS OF RIVERS TO THE SEA IS NOT AS RAPID
 AS THAT OF MAN TO ERROR.
                                              -- VOLTAIRE
 Job cpu time:       4 days  0 hours  9 minutes 21.7 seconds.
 Elapsed time:       0 days 12 hours 32 minutes 39.5 seconds.
 File lengths (MBytes):  RWF=   1822 Int=      0 D2E=      0 Chk=     67 Scr=      1
 Normal termination of Gaussian 16 at Fri Mar  8 10:15:19 2024.
