 Entering Gaussian System, Link 0=g16
 Input=Me-NCNPtPh.com
 Output=Me-NCNPtPh.log
 Initial command:
 /usr/local/g16/l1.exe "/hdd/Gau-905990.inp" -scrdir="/hdd/"
 Entering Link 1 = /usr/local/g16/l1.exe PID=    905992.
  
 Copyright (c) 1988-2019, Gaussian, Inc.  All Rights Reserved.
  
 This is part of the Gaussian(R) 16 program.  It is based on
 the Gaussian(R) 09 system (copyright 2009, Gaussian, Inc.),
 the Gaussian(R) 03 system (copyright 2003, Gaussian, Inc.),
 the Gaussian(R) 98 system (copyright 1998, Gaussian, Inc.),
 the Gaussian(R) 94 system (copyright 1995, Gaussian, Inc.),
 the Gaussian 92(TM) system (copyright 1992, Gaussian, Inc.),
 the Gaussian 90(TM) system (copyright 1990, Gaussian, Inc.),
 the Gaussian 88(TM) system (copyright 1988, Gaussian, Inc.),
 the Gaussian 86(TM) system (copyright 1986, Carnegie Mellon
 University), and the Gaussian 82(TM) system (copyright 1983,
 Carnegie Mellon University). Gaussian is a federally registered
 trademark of Gaussian, Inc.
  
 This software contains proprietary and confidential information,
 including trade secrets, belonging to Gaussian, Inc.
  
 This software is provided under written license and may be
 used, copied, transmitted, or stored only in accord with that
 written license.
  
 The following legend is applicable only to US Government
 contracts under FAR:
  
                    RESTRICTED RIGHTS LEGEND
  
 Use, reproduction and disclosure by the US Government is
 subject to restrictions as set forth in subparagraphs (a)
 and (c) of the Commercial Computer Software - Restricted
 Rights clause in FAR 52.227-19.
  
 Gaussian, Inc.
 340 Quinnipiac St., Bldg. 40, Wallingford CT 06492
  
  
 ---------------------------------------------------------------
 Warning -- This program may not be used in any manner that
 competes with the business of Gaussian, Inc. or will provide
 assistance to any competitor of Gaussian, Inc.  The licensee
 of this program is prohibited from giving any competitor of
 Gaussian, Inc. access to this program.  By using this program,
 the user acknowledges that Gaussian, Inc. is engaged in the
 business of creating and licensing software in the field of
 computational chemistry and represents and warrants to the
 licensee that it is not a competitor of Gaussian, Inc. and that
 it will not use this program in any manner prohibited above.
 ---------------------------------------------------------------
  

 Cite this work as:
 Gaussian 16, Revision C.01,
 M. J. Frisch, G. W. Trucks, H. B. Schlegel, G. E. Scuseria, 
 M. A. Robb, J. R. Cheeseman, G. Scalmani, V. Barone, 
 G. A. Petersson, H. Nakatsuji, X. Li, M. Caricato, A. V. Marenich, 
 J. Bloino, B. G. Janesko, R. Gomperts, B. Mennucci, H. P. Hratchian, 
 J. V. Ortiz, A. F. Izmaylov, J. L. Sonnenberg, D. Williams-Young, 
 F. Ding, F. Lipparini, F. Egidi, J. Goings, B. Peng, A. Petrone, 
 T. Henderson, D. Ranasinghe, V. G. Zakrzewski, J. Gao, N. Rega, 
 G. Zheng, W. Liang, M. Hada, M. Ehara, K. Toyota, R. Fukuda, 
 J. Hasegawa, M. Ishida, T. Nakajima, Y. Honda, O. Kitao, H. Nakai, 
 T. Vreven, K. Throssell, J. A. Montgomery, Jr., J. E. Peralta, 
 F. Ogliaro, M. J. Bearpark, J. J. Heyd, E. N. Brothers, K. N. Kudin, 
 V. N. Staroverov, T. A. Keith, R. Kobayashi, J. Normand, 
 K. Raghavachari, A. P. Rendell, J. C. Burant, S. S. Iyengar, 
 J. Tomasi, M. Cossi, J. M. Millam, M. Klene, C. Adamo, R. Cammi, 
 J. W. Ochterski, R. L. Martin, K. Morokuma, O. Farkas, 
 J. B. Foresman, and D. J. Fox, Gaussian, Inc., Wallingford CT, 2019.
 
 ******************************************
 Gaussian 16:  ES64L-G16RevC.01  3-Jul-2019
                23-May-2022 
 ******************************************
 %nprocshared=12
 Will use up to   12 processors via shared memory.
 %mem=128MW
 %chk=Me-NCNPtPh.chk
 ----------------------------------------------------------------------
 # opt freq gen scrf=(iefpcm,solvent=thf) m06 EmpiricalDispersion=GD3 P
 seudo=Read
 ----------------------------------------------------------------------
 1/18=20,19=15,26=3,38=1/1,3;
 2/9=110,12=2,17=6,18=5,40=1/2;
 3/5=7,11=2,16=1,17=8,25=1,30=1,70=2201,71=1,72=20,74=-54,124=31/1,2,3;
 4//1;
 5/5=2,38=5,53=20/2;
 6/7=2,8=2,9=2,10=2,28=1/1;
 7//1,2,3,16;
 1/18=20,19=15,26=3/3(2);
 2/9=110/2;
 99//99;
 2/9=110/2;
 3/5=7,6=1,11=2,16=1,17=8,25=1,30=1,70=2205,71=1,72=20,74=-54,82=7,124=31/1,2,3;
 4/5=5,16=3,69=1/1;
 5/5=2,38=5,53=20/2;
 7//1,2,3,16;
 1/18=20,19=15,26=3/3(-5);
 2/9=110/2;
 6/7=2,8=2,9=2,10=2,19=2,28=1/1;
 99/9=1/99;
 ---------------------------------------------------------
 M06 Me-(NCN)PtPh; Custom Lanl2tz(f)+6-311g(d,p) basis set
 ---------------------------------------------------------
 Symbolic Z-matrix:
 Charge =  1 Multiplicity = 1
 Pt                    0.00031  -0.02568  -0.11741 
 C                     0.21492  -2.25477  -0.8663 
 C                    -0.96355  -2.54831  -0.10884 
 C                     1.45034  -2.30951  -0.14454 
 C                    -0.87092  -3.21205   1.12519 
 C                     1.53062  -2.97109   1.08827 
 C                     0.37951  -3.50851   1.68245 
 H                    -1.78408  -3.47408   1.65552 
 H                     2.49234  -3.0482    1.59012 
 H                     0.44916  -4.06486   2.61081 
 N                     2.17391   0.00553  -0.17979 
 N                    -2.13781  -0.4175   -0.11338 
 C                     0.19344  -2.06794  -2.37647 
 H                    -0.77217  -2.36535  -2.79431 
 H                     0.94923  -2.71883  -2.83202 
 H                     0.39119  -1.04092  -2.70825 
 C                    -2.25106  -1.88613  -0.53077 
 H                    -2.39102  -1.90804  -1.61503 
 H                    -3.13271  -2.33966  -0.06451 
 C                     2.56247  -1.40802  -0.62112 
 H                     2.6463   -1.39454  -1.71272 
 H                     3.53934  -1.68266  -0.21188 
 C                     2.6411    1.03105  -1.19185 
 C                     4.14651   1.10834  -1.43888 
 H                     2.25453   1.99889  -0.85621 
 H                     2.11661   0.78587  -2.12527 
 H                     4.3236    1.71761  -2.33085 
 H                     4.67704   1.58751  -0.61132 
 H                     4.59434   0.12462  -1.6215 
 C                     2.62038   0.32934   1.23883 
 C                     4.04129  -0.06051   1.64937 
 H                     1.90934  -0.16113   1.91603 
 H                     2.46218   1.40904   1.34732 
 H                     4.24762   0.39737   2.62243 
 H                     4.15972  -1.14166   1.78001 
 H                     4.80907   0.28673   0.95457 
 C                    -2.58083  -0.20304   1.32044 
 C                    -4.05926  -0.41499   1.64455 
 H                    -2.28822   0.82239   1.57341 
 H                    -1.96038  -0.87299   1.92979 
 H                    -4.17459  -0.41253   2.7334 
 H                    -4.68656   0.39073   1.25336 
 H                    -4.45222  -1.37203   1.28086 
 C                    -2.83382   0.49539  -1.10472 
 C                    -4.23116   0.08582  -1.57276 
 H                    -2.16709   0.55516  -1.97533 
 H                    -2.84796   1.49113  -0.64684 
 H                    -4.56756   0.81991  -2.31247 
 H                    -4.24019  -0.8909   -2.06839 
 H                    -4.97165   0.0686   -0.77128 
 C                    -0.18839   1.9644    0.16872 
 C                    -0.29623   2.85615  -0.91731 
 C                    -0.21866   2.48109   1.48059 
 C                    -0.44093   4.23488  -0.69389 
 H                    -0.26908   2.48018  -1.94017 
 C                    -0.363     3.86136   1.6993 
 H                    -0.12758   1.81213   2.33665 
 C                    -0.47702   4.74121   0.61391 
 H                    -0.52481   4.91052  -1.54045 
 H                    -0.38568   4.2447    2.71555 
 H                    -0.58955   5.80727   0.78372 
 

 GradGradGradGradGradGradGradGradGradGradGradGradGradGradGradGradGradGrad
 Berny optimization.
 Initialization pass.
                           ----------------------------
                           !    Initial Parameters    !
                           ! (Angstroms and Degrees)  !
 --------------------------                            --------------------------
 ! Name  Definition              Value          Derivative Info.                !
 --------------------------------------------------------------------------------
 ! R1    R(1,2)                  2.3613         estimate D2E/DX2                !
 ! R2    R(1,11)                 2.1747         estimate D2E/DX2                !
 ! R3    R(1,12)                 2.1737         estimate D2E/DX2                !
 ! R4    R(1,51)                 2.0194         estimate D2E/DX2                !
 ! R5    R(2,3)                  1.4313         estimate D2E/DX2                !
 ! R6    R(2,4)                  1.4318         estimate D2E/DX2                !
 ! R7    R(2,13)                 1.5218         estimate D2E/DX2                !
 ! R8    R(3,5)                  1.4043         estimate D2E/DX2                !
 ! R9    R(3,17)                 1.508          estimate D2E/DX2                !
 ! R10   R(4,6)                  1.4014         estimate D2E/DX2                !
 ! R11   R(4,20)                 1.5089         estimate D2E/DX2                !
 ! R12   R(5,7)                  1.4007         estimate D2E/DX2                !
 ! R13   R(5,8)                  1.088          estimate D2E/DX2                !
 ! R14   R(6,7)                  1.4025         estimate D2E/DX2                !
 ! R15   R(6,9)                  1.0875         estimate D2E/DX2                !
 ! R16   R(7,10)                 1.0845         estimate D2E/DX2                !
 ! R17   R(11,20)                1.531          estimate D2E/DX2                !
 ! R18   R(11,23)                1.5147         estimate D2E/DX2                !
 ! R19   R(11,30)                1.5221         estimate D2E/DX2                !
 ! R20   R(12,17)                1.531          estimate D2E/DX2                !
 ! R21   R(12,37)                1.5159         estimate D2E/DX2                !
 ! R22   R(12,44)                1.5168         estimate D2E/DX2                !
 ! R23   R(13,14)                1.0934         estimate D2E/DX2                !
 ! R24   R(13,15)                1.0965         estimate D2E/DX2                !
 ! R25   R(13,16)                1.0973         estimate D2E/DX2                !
 ! R26   R(17,18)                1.0935         estimate D2E/DX2                !
 ! R27   R(17,19)                1.0956         estimate D2E/DX2                !
 ! R28   R(20,21)                1.0949         estimate D2E/DX2                !
 ! R29   R(20,22)                1.0942         estimate D2E/DX2                !
 ! R30   R(23,24)                1.5275         estimate D2E/DX2                !
 ! R31   R(23,25)                1.0949         estimate D2E/DX2                !
 ! R32   R(23,26)                1.0984         estimate D2E/DX2                !
 ! R33   R(24,27)                1.0946         estimate D2E/DX2                !
 ! R34   R(24,28)                1.0936         estimate D2E/DX2                !
 ! R35   R(24,29)                1.0962         estimate D2E/DX2                !
 ! R36   R(30,31)                1.5295         estimate D2E/DX2                !
 ! R37   R(30,32)                1.0976         estimate D2E/DX2                !
 ! R38   R(30,33)                1.0966         estimate D2E/DX2                !
 ! R39   R(31,34)                1.095          estimate D2E/DX2                !
 ! R40   R(31,35)                1.0954         estimate D2E/DX2                !
 ! R41   R(31,36)                1.0921         estimate D2E/DX2                !
 ! R42   R(37,38)                1.5283         estimate D2E/DX2                !
 ! R43   R(37,39)                1.096          estimate D2E/DX2                !
 ! R44   R(37,40)                1.0978         estimate D2E/DX2                !
 ! R45   R(38,41)                1.0949         estimate D2E/DX2                !
 ! R46   R(38,42)                1.0935         estimate D2E/DX2                !
 ! R47   R(38,43)                1.0966         estimate D2E/DX2                !
 ! R48   R(44,45)                1.5295         estimate D2E/DX2                !
 ! R49   R(44,46)                1.0982         estimate D2E/DX2                !
 ! R50   R(44,47)                1.0961         estimate D2E/DX2                !
 ! R51   R(45,48)                1.0951         estimate D2E/DX2                !
 ! R52   R(45,49)                1.0953         estimate D2E/DX2                !
 ! R53   R(45,50)                1.0913         estimate D2E/DX2                !
 ! R54   R(51,52)                1.4094         estimate D2E/DX2                !
 ! R55   R(51,53)                1.4103         estimate D2E/DX2                !
 ! R56   R(52,54)                1.4042         estimate D2E/DX2                !
 ! R57   R(52,55)                1.0901         estimate D2E/DX2                !
 ! R58   R(53,56)                1.4049         estimate D2E/DX2                !
 ! R59   R(53,57)                1.0903         estimate D2E/DX2                !
 ! R60   R(54,58)                1.4029         estimate D2E/DX2                !
 ! R61   R(54,59)                1.0864         estimate D2E/DX2                !
 ! R62   R(56,58)                1.4019         estimate D2E/DX2                !
 ! R63   R(56,60)                1.0864         estimate D2E/DX2                !
 ! R64   R(58,61)                1.0854         estimate D2E/DX2                !
 ! A1    A(2,1,11)              85.0442         estimate D2E/DX2                !
 ! A2    A(2,1,12)              85.4015         estimate D2E/DX2                !
 ! A3    A(11,1,51)             94.7791         estimate D2E/DX2                !
 ! A4    A(12,1,51)             94.9024         estimate D2E/DX2                !
 ! A5    A(1,2,3)               87.1877         estimate D2E/DX2                !
 ! A6    A(1,2,4)               87.4            estimate D2E/DX2                !
 ! A7    A(1,2,13)             101.3937         estimate D2E/DX2                !
 ! A8    A(3,2,4)              115.8358         estimate D2E/DX2                !
 ! A9    A(3,2,13)             122.5952         estimate D2E/DX2                !
 ! A10   A(4,2,13)             121.1366         estimate D2E/DX2                !
 ! A11   A(2,3,5)              120.509          estimate D2E/DX2                !
 ! A12   A(2,3,17)             117.6985         estimate D2E/DX2                !
 ! A13   A(5,3,17)             120.646          estimate D2E/DX2                !
 ! A14   A(2,4,6)              120.7237         estimate D2E/DX2                !
 ! A15   A(2,4,20)             116.9943         estimate D2E/DX2                !
 ! A16   A(6,4,20)             121.1772         estimate D2E/DX2                !
 ! A17   A(3,5,7)              120.5665         estimate D2E/DX2                !
 ! A18   A(3,5,8)              119.1313         estimate D2E/DX2                !
 ! A19   A(7,5,8)              120.288          estimate D2E/DX2                !
 ! A20   A(4,6,7)              120.4362         estimate D2E/DX2                !
 ! A21   A(4,6,9)              119.3454         estimate D2E/DX2                !
 ! A22   A(7,6,9)              120.2087         estimate D2E/DX2                !
 ! A23   A(5,7,6)              118.885          estimate D2E/DX2                !
 ! A24   A(5,7,10)             120.4281         estimate D2E/DX2                !
 ! A25   A(6,7,10)             120.432          estimate D2E/DX2                !
 ! A26   A(1,11,20)            104.3997         estimate D2E/DX2                !
 ! A27   A(1,11,23)            109.7046         estimate D2E/DX2                !
 ! A28   A(1,11,30)            105.6344         estimate D2E/DX2                !
 ! A29   A(20,11,23)           110.7466         estimate D2E/DX2                !
 ! A30   A(20,11,30)           112.9952         estimate D2E/DX2                !
 ! A31   A(23,11,30)           112.8456         estimate D2E/DX2                !
 ! A32   A(1,12,17)            104.1916         estimate D2E/DX2                !
 ! A33   A(1,12,37)            105.29           estimate D2E/DX2                !
 ! A34   A(1,12,44)            109.9783         estimate D2E/DX2                !
 ! A35   A(17,12,37)           111.8359         estimate D2E/DX2                !
 ! A36   A(17,12,44)           111.421          estimate D2E/DX2                !
 ! A37   A(37,12,44)           113.5117         estimate D2E/DX2                !
 ! A38   A(2,13,14)            110.9964         estimate D2E/DX2                !
 ! A39   A(2,13,15)            109.2484         estimate D2E/DX2                !
 ! A40   A(2,13,16)            114.3567         estimate D2E/DX2                !
 ! A41   A(14,13,15)           106.7674         estimate D2E/DX2                !
 ! A42   A(14,13,16)           107.3501         estimate D2E/DX2                !
 ! A43   A(15,13,16)           107.8032         estimate D2E/DX2                !
 ! A44   A(3,17,12)            106.3664         estimate D2E/DX2                !
 ! A45   A(3,17,18)            112.2046         estimate D2E/DX2                !
 ! A46   A(3,17,19)            112.7175         estimate D2E/DX2                !
 ! A47   A(12,17,18)           107.3986         estimate D2E/DX2                !
 ! A48   A(12,17,19)           109.9127         estimate D2E/DX2                !
 ! A49   A(18,17,19)           108.101          estimate D2E/DX2                !
 ! A50   A(4,20,11)            105.8739         estimate D2E/DX2                !
 ! A51   A(4,20,21)            112.2528         estimate D2E/DX2                !
 ! A52   A(4,20,22)            112.9516         estimate D2E/DX2                !
 ! A53   A(11,20,21)           107.1851         estimate D2E/DX2                !
 ! A54   A(11,20,22)           110.5198         estimate D2E/DX2                !
 ! A55   A(21,20,22)           107.9168         estimate D2E/DX2                !
 ! A56   A(11,23,24)           116.5067         estimate D2E/DX2                !
 ! A57   A(11,23,25)           106.5446         estimate D2E/DX2                !
 ! A58   A(11,23,26)           105.6287         estimate D2E/DX2                !
 ! A59   A(24,23,25)           110.6591         estimate D2E/DX2                !
 ! A60   A(24,23,26)           110.1491         estimate D2E/DX2                !
 ! A61   A(25,23,26)           106.8112         estimate D2E/DX2                !
 ! A62   A(23,24,27)           108.6264         estimate D2E/DX2                !
 ! A63   A(23,24,28)           112.2041         estimate D2E/DX2                !
 ! A64   A(23,24,29)           112.5917         estimate D2E/DX2                !
 ! A65   A(27,24,28)           107.1143         estimate D2E/DX2                !
 ! A66   A(27,24,29)           107.3164         estimate D2E/DX2                !
 ! A67   A(28,24,29)           108.7286         estimate D2E/DX2                !
 ! A68   A(11,30,31)           117.9329         estimate D2E/DX2                !
 ! A69   A(11,30,32)           106.8557         estimate D2E/DX2                !
 ! A70   A(11,30,33)           105.0316         estimate D2E/DX2                !
 ! A71   A(31,30,32)           108.8027         estimate D2E/DX2                !
 ! A72   A(31,30,33)           111.0028         estimate D2E/DX2                !
 ! A73   A(32,30,33)           106.5867         estimate D2E/DX2                !
 ! A74   A(30,31,34)           107.877          estimate D2E/DX2                !
 ! A75   A(30,31,35)           112.5812         estimate D2E/DX2                !
 ! A76   A(30,31,36)           113.6582         estimate D2E/DX2                !
 ! A77   A(34,31,35)           106.6388         estimate D2E/DX2                !
 ! A78   A(34,31,36)           107.4529         estimate D2E/DX2                !
 ! A79   A(35,31,36)           108.28           estimate D2E/DX2                !
 ! A80   A(12,37,38)           117.624          estimate D2E/DX2                !
 ! A81   A(12,37,39)           105.8227         estimate D2E/DX2                !
 ! A82   A(12,37,40)           105.8725         estimate D2E/DX2                !
 ! A83   A(38,37,39)           109.8205         estimate D2E/DX2                !
 ! A84   A(38,37,40)           110.1447         estimate D2E/DX2                !
 ! A85   A(39,37,40)           106.9774         estimate D2E/DX2                !
 ! A86   A(37,38,41)           108.2081         estimate D2E/DX2                !
 ! A87   A(37,38,42)           112.1414         estimate D2E/DX2                !
 ! A88   A(37,38,43)           113.4112         estimate D2E/DX2                !
 ! A89   A(41,38,42)           107.0787         estimate D2E/DX2                !
 ! A90   A(41,38,43)           107.0989         estimate D2E/DX2                !
 ! A91   A(42,38,43)           108.5917         estimate D2E/DX2                !
 ! A92   A(12,44,45)           117.2625         estimate D2E/DX2                !
 ! A93   A(12,44,46)           105.8019         estimate D2E/DX2                !
 ! A94   A(12,44,47)           106.24           estimate D2E/DX2                !
 ! A95   A(45,44,46)           109.0644         estimate D2E/DX2                !
 ! A96   A(45,44,47)           111.0582         estimate D2E/DX2                !
 ! A97   A(46,44,47)           106.8316         estimate D2E/DX2                !
 ! A98   A(44,45,48)           107.9294         estimate D2E/DX2                !
 ! A99   A(44,45,49)           112.6307         estimate D2E/DX2                !
 ! A100  A(44,45,50)           113.5399         estimate D2E/DX2                !
 ! A101  A(48,45,49)           106.8325         estimate D2E/DX2                !
 ! A102  A(48,45,50)           107.3509         estimate D2E/DX2                !
 ! A103  A(49,45,50)           108.2188         estimate D2E/DX2                !
 ! A104  A(1,51,52)            121.434          estimate D2E/DX2                !
 ! A105  A(1,51,53)            119.6609         estimate D2E/DX2                !
 ! A106  A(52,51,53)           118.9047         estimate D2E/DX2                !
 ! A107  A(51,52,54)           120.433          estimate D2E/DX2                !
 ! A108  A(51,52,55)           120.1932         estimate D2E/DX2                !
 ! A109  A(54,52,55)           119.3737         estimate D2E/DX2                !
 ! A110  A(51,53,56)           120.4618         estimate D2E/DX2                !
 ! A111  A(51,53,57)           120.2522         estimate D2E/DX2                !
 ! A112  A(56,53,57)           119.2858         estimate D2E/DX2                !
 ! A113  A(52,54,58)           120.3556         estimate D2E/DX2                !
 ! A114  A(52,54,59)           119.6446         estimate D2E/DX2                !
 ! A115  A(58,54,59)           119.9998         estimate D2E/DX2                !
 ! A116  A(53,56,58)           120.294          estimate D2E/DX2                !
 ! A117  A(53,56,60)           119.633          estimate D2E/DX2                !
 ! A118  A(58,56,60)           120.0731         estimate D2E/DX2                !
 ! A119  A(54,58,56)           119.5491         estimate D2E/DX2                !
 ! A120  A(54,58,61)           120.201          estimate D2E/DX2                !
 ! A121  A(56,58,61)           120.2496         estimate D2E/DX2                !
 ! A122  L(2,1,51,12,-1)       180.3039         estimate D2E/DX2                !
 ! A123  L(11,1,12,51,-1)      189.6815         estimate D2E/DX2                !
 ! A124  L(2,1,51,12,-2)       190.3768         estimate D2E/DX2                !
 ! A125  L(11,1,12,51,-2)      179.8306         estimate D2E/DX2                !
 ! D1    D(11,1,2,3)           147.241          estimate D2E/DX2                !
 ! D2    D(11,1,2,4)            31.2009         estimate D2E/DX2                !
 ! D3    D(11,1,2,13)          -90.0554         estimate D2E/DX2                !
 ! D4    D(12,1,2,3)           -31.1835         estimate D2E/DX2                !
 ! D5    D(12,1,2,4)          -147.2235         estimate D2E/DX2                !
 ! D6    D(12,1,2,13)           91.5201         estimate D2E/DX2                !
 ! D7    D(2,1,11,20)           -1.5401         estimate D2E/DX2                !
 ! D8    D(2,1,11,23)          117.1731         estimate D2E/DX2                !
 ! D9    D(2,1,11,30)         -120.9249         estimate D2E/DX2                !
 ! D10   D(51,1,11,20)        -171.1586         estimate D2E/DX2                !
 ! D11   D(51,1,11,23)         -52.4454         estimate D2E/DX2                !
 ! D12   D(51,1,11,30)          69.4566         estimate D2E/DX2                !
 ! D13   D(2,1,12,17)            2.201          estimate D2E/DX2                !
 ! D14   D(2,1,12,37)          120.0324         estimate D2E/DX2                !
 ! D15   D(2,1,12,44)         -117.3218         estimate D2E/DX2                !
 ! D16   D(51,1,12,17)         171.8243         estimate D2E/DX2                !
 ! D17   D(51,1,12,37)         -70.3444         estimate D2E/DX2                !
 ! D18   D(51,1,12,44)          52.3014         estimate D2E/DX2                !
 ! D19   D(11,1,51,52)          90.1238         estimate D2E/DX2                !
 ! D20   D(11,1,51,53)         -90.1091         estimate D2E/DX2                !
 ! D21   D(12,1,51,52)         -89.7068         estimate D2E/DX2                !
 ! D22   D(12,1,51,53)          90.0604         estimate D2E/DX2                !
 ! D23   D(1,2,3,5)           -103.3297         estimate D2E/DX2                !
 ! D24   D(1,2,3,17)            64.5109         estimate D2E/DX2                !
 ! D25   D(4,2,3,5)            -17.5876         estimate D2E/DX2                !
 ! D26   D(4,2,3,17)           150.253          estimate D2E/DX2                !
 ! D27   D(13,2,3,5)           154.9372         estimate D2E/DX2                !
 ! D28   D(13,2,3,17)          -37.2222         estimate D2E/DX2                !
 ! D29   D(1,2,4,6)            103.1276         estimate D2E/DX2                !
 ! D30   D(1,2,4,20)           -64.995          estimate D2E/DX2                !
 ! D31   D(3,2,4,6)             17.5182         estimate D2E/DX2                !
 ! D32   D(3,2,4,20)          -150.6044         estimate D2E/DX2                !
 ! D33   D(13,2,4,6)          -155.1246         estimate D2E/DX2                !
 ! D34   D(13,2,4,20)           36.7528         estimate D2E/DX2                !
 ! D35   D(1,2,13,14)         -104.3566         estimate D2E/DX2                !
 ! D36   D(1,2,13,15)          138.1714         estimate D2E/DX2                !
 ! D37   D(1,2,13,16)           17.2693         estimate D2E/DX2                !
 ! D38   D(3,2,13,14)          -10.3744         estimate D2E/DX2                !
 ! D39   D(3,2,13,15)         -127.8464         estimate D2E/DX2                !
 ! D40   D(3,2,13,16)          111.2515         estimate D2E/DX2                !
 ! D41   D(4,2,13,14)          161.7628         estimate D2E/DX2                !
 ! D42   D(4,2,13,15)           44.2907         estimate D2E/DX2                !
 ! D43   D(4,2,13,16)          -76.6113         estimate D2E/DX2                !
 ! D44   D(2,3,5,7)              4.8013         estimate D2E/DX2                !
 ! D45   D(2,3,5,8)           -176.5684         estimate D2E/DX2                !
 ! D46   D(17,3,5,7)          -162.6792         estimate D2E/DX2                !
 ! D47   D(17,3,5,8)            15.951          estimate D2E/DX2                !
 ! D48   D(2,3,17,12)          -73.2848         estimate D2E/DX2                !
 ! D49   D(2,3,17,18)           43.8757         estimate D2E/DX2                !
 ! D50   D(2,3,17,19)          166.1992         estimate D2E/DX2                !
 ! D51   D(5,3,17,12)           94.5384         estimate D2E/DX2                !
 ! D52   D(5,3,17,18)         -148.3012         estimate D2E/DX2                !
 ! D53   D(5,3,17,19)          -25.9777         estimate D2E/DX2                !
 ! D54   D(2,4,6,7)             -4.6104         estimate D2E/DX2                !
 ! D55   D(2,4,6,9)            176.5176         estimate D2E/DX2                !
 ! D56   D(20,4,6,7)           163.012          estimate D2E/DX2                !
 ! D57   D(20,4,6,9)           -15.86           estimate D2E/DX2                !
 ! D58   D(2,4,20,11)           74.2169         estimate D2E/DX2                !
 ! D59   D(2,4,20,21)          -42.4143         estimate D2E/DX2                !
 ! D60   D(2,4,20,22)         -164.7067         estimate D2E/DX2                !
 ! D61   D(6,4,20,11)          -93.8484         estimate D2E/DX2                !
 ! D62   D(6,4,20,21)          149.5205         estimate D2E/DX2                !
 ! D63   D(6,4,20,22)           27.228          estimate D2E/DX2                !
 ! D64   D(3,5,7,6)              8.8522         estimate D2E/DX2                !
 ! D65   D(3,5,7,10)          -176.9221         estimate D2E/DX2                !
 ! D66   D(8,5,7,6)           -169.7622         estimate D2E/DX2                !
 ! D67   D(8,5,7,10)             4.4636         estimate D2E/DX2                !
 ! D68   D(4,6,7,5)             -8.9494         estimate D2E/DX2                !
 ! D69   D(4,6,7,10)           176.8251         estimate D2E/DX2                !
 ! D70   D(9,6,7,5)            169.9128         estimate D2E/DX2                !
 ! D71   D(9,6,7,10)            -4.3127         estimate D2E/DX2                !
 ! D72   D(1,11,20,4)          -28.0325         estimate D2E/DX2                !
 ! D73   D(1,11,20,21)          91.9708         estimate D2E/DX2                !
 ! D74   D(1,11,20,22)        -150.6692         estimate D2E/DX2                !
 ! D75   D(23,11,20,4)        -146.0344         estimate D2E/DX2                !
 ! D76   D(23,11,20,21)        -26.0311         estimate D2E/DX2                !
 ! D77   D(23,11,20,22)         91.3289         estimate D2E/DX2                !
 ! D78   D(30,11,20,4)          86.2487         estimate D2E/DX2                !
 ! D79   D(30,11,20,21)       -153.748          estimate D2E/DX2                !
 ! D80   D(30,11,20,22)        -36.388          estimate D2E/DX2                !
 ! D81   D(1,11,23,24)        -175.5281         estimate D2E/DX2                !
 ! D82   D(1,11,23,25)          60.4555         estimate D2E/DX2                !
 ! D83   D(1,11,23,26)         -52.8975         estimate D2E/DX2                !
 ! D84   D(20,11,23,24)        -60.8114         estimate D2E/DX2                !
 ! D85   D(20,11,23,25)        175.1722         estimate D2E/DX2                !
 ! D86   D(20,11,23,26)         61.8192         estimate D2E/DX2                !
 ! D87   D(30,11,23,24)         66.9872         estimate D2E/DX2                !
 ! D88   D(30,11,23,25)        -57.0292         estimate D2E/DX2                !
 ! D89   D(30,11,23,26)       -170.3822         estimate D2E/DX2                !
 ! D90   D(1,11,30,31)         158.3701         estimate D2E/DX2                !
 ! D91   D(1,11,30,32)          35.5618         estimate D2E/DX2                !
 ! D92   D(1,11,30,33)         -77.4058         estimate D2E/DX2                !
 ! D93   D(20,11,30,31)         44.8362         estimate D2E/DX2                !
 ! D94   D(20,11,30,32)        -77.9722         estimate D2E/DX2                !
 ! D95   D(20,11,30,33)        169.0603         estimate D2E/DX2                !
 ! D96   D(23,11,30,31)        -81.7734         estimate D2E/DX2                !
 ! D97   D(23,11,30,32)        155.4183         estimate D2E/DX2                !
 ! D98   D(23,11,30,33)         42.4507         estimate D2E/DX2                !
 ! D99   D(1,12,17,3)           26.9482         estimate D2E/DX2                !
 ! D100  D(1,12,17,18)         -93.3689         estimate D2E/DX2                !
 ! D101  D(1,12,17,19)         149.2565         estimate D2E/DX2                !
 ! D102  D(37,12,17,3)         -86.2779         estimate D2E/DX2                !
 ! D103  D(37,12,17,18)        153.405          estimate D2E/DX2                !
 ! D104  D(37,12,17,19)         36.0304         estimate D2E/DX2                !
 ! D105  D(44,12,17,3)         145.4888         estimate D2E/DX2                !
 ! D106  D(44,12,17,18)         25.1717         estimate D2E/DX2                !
 ! D107  D(44,12,17,19)        -92.2028         estimate D2E/DX2                !
 ! D108  D(1,12,37,38)        -179.7016         estimate D2E/DX2                !
 ! D109  D(1,12,37,39)          57.2            estimate D2E/DX2                !
 ! D110  D(1,12,37,40)         -56.1349         estimate D2E/DX2                !
 ! D111  D(17,12,37,38)        -67.1603         estimate D2E/DX2                !
 ! D112  D(17,12,37,39)        169.7413         estimate D2E/DX2                !
 ! D113  D(17,12,37,40)         56.4065         estimate D2E/DX2                !
 ! D114  D(44,12,37,38)         59.9532         estimate D2E/DX2                !
 ! D115  D(44,12,37,39)        -63.1452         estimate D2E/DX2                !
 ! D116  D(44,12,37,40)       -176.4801         estimate D2E/DX2                !
 ! D117  D(1,12,44,45)         160.9818         estimate D2E/DX2                !
 ! D118  D(1,12,44,46)          39.1306         estimate D2E/DX2                !
 ! D119  D(1,12,44,47)         -74.1899         estimate D2E/DX2                !
 ! D120  D(17,12,44,45)         45.9675         estimate D2E/DX2                !
 ! D121  D(17,12,44,46)        -75.8838         estimate D2E/DX2                !
 ! D122  D(17,12,44,47)        170.7957         estimate D2E/DX2                !
 ! D123  D(37,12,44,45)        -81.3625         estimate D2E/DX2                !
 ! D124  D(37,12,44,46)        156.7862         estimate D2E/DX2                !
 ! D125  D(37,12,44,47)         43.4657         estimate D2E/DX2                !
 ! D126  D(11,23,24,27)        167.7444         estimate D2E/DX2                !
 ! D127  D(11,23,24,28)        -74.0268         estimate D2E/DX2                !
 ! D128  D(11,23,24,29)         49.0297         estimate D2E/DX2                !
 ! D129  D(25,23,24,27)        -70.3766         estimate D2E/DX2                !
 ! D130  D(25,23,24,28)         47.8522         estimate D2E/DX2                !
 ! D131  D(25,23,24,29)        170.9087         estimate D2E/DX2                !
 ! D132  D(26,23,24,27)         47.5016         estimate D2E/DX2                !
 ! D133  D(26,23,24,28)        165.7304         estimate D2E/DX2                !
 ! D134  D(26,23,24,29)        -71.2131         estimate D2E/DX2                !
 ! D135  D(11,30,31,34)        170.2369         estimate D2E/DX2                !
 ! D136  D(11,30,31,35)        -72.377          estimate D2E/DX2                !
 ! D137  D(11,30,31,36)         51.2008         estimate D2E/DX2                !
 ! D138  D(32,30,31,34)        -67.9448         estimate D2E/DX2                !
 ! D139  D(32,30,31,35)         49.4413         estimate D2E/DX2                !
 ! D140  D(32,30,31,36)        173.019          estimate D2E/DX2                !
 ! D141  D(33,30,31,34)         49.0388         estimate D2E/DX2                !
 ! D142  D(33,30,31,35)        166.4249         estimate D2E/DX2                !
 ! D143  D(33,30,31,36)        -69.9974         estimate D2E/DX2                !
 ! D144  D(12,37,38,41)        169.2143         estimate D2E/DX2                !
 ! D145  D(12,37,38,42)        -72.9054         estimate D2E/DX2                !
 ! D146  D(12,37,38,43)         50.548          estimate D2E/DX2                !
 ! D147  D(39,37,38,41)        -69.7389         estimate D2E/DX2                !
 ! D148  D(39,37,38,42)         48.1414         estimate D2E/DX2                !
 ! D149  D(39,37,38,43)        171.5948         estimate D2E/DX2                !
 ! D150  D(40,37,38,41)         47.8304         estimate D2E/DX2                !
 ! D151  D(40,37,38,42)        165.7107         estimate D2E/DX2                !
 ! D152  D(40,37,38,43)        -70.8359         estimate D2E/DX2                !
 ! D153  D(12,44,45,48)       -177.4291         estimate D2E/DX2                !
 ! D154  D(12,44,45,49)        -59.7426         estimate D2E/DX2                !
 ! D155  D(12,44,45,50)         63.6991         estimate D2E/DX2                !
 ! D156  D(46,44,45,48)        -57.2833         estimate D2E/DX2                !
 ! D157  D(46,44,45,49)         60.4032         estimate D2E/DX2                !
 ! D158  D(46,44,45,50)       -176.1551         estimate D2E/DX2                !
 ! D159  D(47,44,45,48)         60.1909         estimate D2E/DX2                !
 ! D160  D(47,44,45,49)        177.8774         estimate D2E/DX2                !
 ! D161  D(47,44,45,50)        -58.6809         estimate D2E/DX2                !
 ! D162  D(1,51,52,54)         179.3192         estimate D2E/DX2                !
 ! D163  D(1,51,52,55)          -0.6093         estimate D2E/DX2                !
 ! D164  D(53,51,52,54)         -0.4497         estimate D2E/DX2                !
 ! D165  D(53,51,52,55)        179.6218         estimate D2E/DX2                !
 ! D166  D(1,51,53,56)        -179.3515         estimate D2E/DX2                !
 ! D167  D(1,51,53,57)           0.8017         estimate D2E/DX2                !
 ! D168  D(52,51,53,56)          0.4215         estimate D2E/DX2                !
 ! D169  D(52,51,53,57)       -179.4252         estimate D2E/DX2                !
 ! D170  D(51,52,54,58)          0.1352         estimate D2E/DX2                !
 ! D171  D(51,52,54,59)       -179.885          estimate D2E/DX2                !
 ! D172  D(55,52,54,58)       -179.9357         estimate D2E/DX2                !
 ! D173  D(55,52,54,59)          0.0441         estimate D2E/DX2                !
 ! D174  D(51,53,56,58)         -0.0781         estimate D2E/DX2                !
 ! D175  D(51,53,56,60)        179.9369         estimate D2E/DX2                !
 ! D176  D(57,53,56,58)        179.7701         estimate D2E/DX2                !
 ! D177  D(57,53,56,60)         -0.2148         estimate D2E/DX2                !
 ! D178  D(52,54,58,56)          0.2139         estimate D2E/DX2                !
 ! D179  D(52,54,58,61)       -179.9635         estimate D2E/DX2                !
 ! D180  D(59,54,58,56)       -179.7659         estimate D2E/DX2                !
 ! D181  D(59,54,58,61)          0.0568         estimate D2E/DX2                !
 ! D182  D(53,56,58,54)         -0.2421         estimate D2E/DX2                !
 ! D183  D(53,56,58,61)        179.9354         estimate D2E/DX2                !
 ! D184  D(60,56,58,54)        179.7428         estimate D2E/DX2                !
 ! D185  D(60,56,58,61)         -0.0797         estimate D2E/DX2                !
 --------------------------------------------------------------------------------
 Trust Radius=3.00D-01 FncErr=1.00D-07 GrdErr=1.00D-06 EigMax=2.50D+02 EigMin=1.00D-04
 Number of steps in this run=    366 maximum allowed number of steps=    366.
 GradGradGradGradGradGradGradGradGradGradGradGradGradGradGradGradGradGrad

 Stoichiometry    C23H35N2Pt(1+)
 Framework group  C1[X(C23H35N2Pt)]
 Deg. of freedom   177
 Full point group                 C1      NOp   1
 Largest Abelian subgroup         C1      NOp   1
 Largest concise Abelian subgroup C1      NOp   1
                         Standard orientation:                         
 ---------------------------------------------------------------------
 Center     Atomic      Atomic             Coordinates (Angstroms)
 Number     Number       Type             X           Y           Z
 ---------------------------------------------------------------------
      1         78           0        0.000310   -0.025683   -0.117406
      2          6           0        0.214919   -2.254769   -0.866295
      3          6           0       -0.963547   -2.548313   -0.108837
      4          6           0        1.450340   -2.309505   -0.144539
      5          6           0       -0.870919   -3.212048    1.125185
      6          6           0        1.530618   -2.971093    1.088269
      7          6           0        0.379508   -3.508508    1.682451
      8          1           0       -1.784076   -3.474076    1.655517
      9          1           0        2.492336   -3.048202    1.590118
     10          1           0        0.449161   -4.064858    2.610810
     11          7           0        2.173913    0.005533   -0.179790
     12          7           0       -2.137808   -0.417496   -0.113377
     13          6           0        0.193439   -2.067945   -2.376467
     14          1           0       -0.772171   -2.365347   -2.794313
     15          1           0        0.949226   -2.718828   -2.832018
     16          1           0        0.391194   -1.040922   -2.708246
     17          6           0       -2.251062   -1.886132   -0.530773
     18          1           0       -2.391024   -1.908036   -1.615032
     19          1           0       -3.132709   -2.339660   -0.064506
     20          6           0        2.562472   -1.408020   -0.621119
     21          1           0        2.646299   -1.394536   -1.712722
     22          1           0        3.539341   -1.682664   -0.211876
     23          6           0        2.641101    1.031049   -1.191848
     24          6           0        4.146507    1.108344   -1.438880
     25          1           0        2.254525    1.998892   -0.856213
     26          1           0        2.116609    0.785872   -2.125267
     27          1           0        4.323600    1.717606   -2.330846
     28          1           0        4.677042    1.587510   -0.611319
     29          1           0        4.594340    0.124617   -1.621503
     30          6           0        2.620382    0.329339    1.238831
     31          6           0        4.041295   -0.060506    1.649365
     32          1           0        1.909340   -0.161129    1.916034
     33          1           0        2.462177    1.409042    1.347320
     34          1           0        4.247621    0.397367    2.622431
     35          1           0        4.159720   -1.141661    1.780010
     36          1           0        4.809067    0.286725    0.954567
     37          6           0       -2.580826   -0.203038    1.320439
     38          6           0       -4.059262   -0.414985    1.644554
     39          1           0       -2.288224    0.822391    1.573412
     40          1           0       -1.960378   -0.872994    1.929786
     41          1           0       -4.174586   -0.412527    2.733400
     42          1           0       -4.686563    0.390729    1.253357
     43          1           0       -4.452220   -1.372025    1.280855
     44          6           0       -2.833816    0.495390   -1.104719
     45          6           0       -4.231157    0.085823   -1.572758
     46          1           0       -2.167089    0.555164   -1.975333
     47          1           0       -2.847957    1.491127   -0.646841
     48          1           0       -4.567556    0.819906   -2.312466
     49          1           0       -4.240193   -0.890900   -2.068387
     50          1           0       -4.971646    0.068598   -0.771283
     51          6           0       -0.188390    1.964403    0.168719
     52          6           0       -0.296225    2.856148   -0.917313
     53          6           0       -0.218660    2.481093    1.480588
     54          6           0       -0.440931    4.234880   -0.693887
     55          1           0       -0.269080    2.480179   -1.940167
     56          6           0       -0.363002    3.861359    1.699302
     57          1           0       -0.127582    1.812127    2.336647
     58          6           0       -0.477015    4.741207    0.613907
     59          1           0       -0.524814    4.910523   -1.540446
     60          1           0       -0.385676    4.244702    2.715546
     61          1           0       -0.589547    5.807274    0.783720
 ---------------------------------------------------------------------
 Rotational constants (GHZ):           0.2164004           0.2109529           0.1389619
 General basis read from cards:  (5D, 7F)
 ======================================================================================================
                                       Pseudopotential Parameters
 ======================================================================================================
  Center     Atomic      Valence      Angular      Power
  Number     Number     Electrons     Momentum     of R      Exponent        Coefficient   SO-Coeffient
 ======================================================================================================
    1         78           18
                                      G and up 
                                                     1      728.9394056       -0.16192680    0.00000000
                                                     2      320.6567800    -1320.28738520    0.00000000
                                                     2       52.8680174     -298.31781350    0.00000000
                                                     2       12.0280128      -87.58370650    0.00000000
                                                     2        3.5238913       -8.14932740    0.00000000
                                      S - G
                                                     0      409.4437358        2.73342180    0.00000000
                                                     1      274.5419231       59.70243290    0.00000000
                                                     2      127.5658570      891.45895500    0.00000000
                                                     2       32.9036631      368.44676560    0.00000000
                                                     2        5.0593880      238.02630900    0.00000000
                                                     2        4.1506556     -107.05564540    0.00000000
                                      P - G
                                                     0      466.1728892        1.88785680    0.00000000
                                                     1      120.7888259       76.01386290    0.00000000
                                                     2       36.4118791      343.55111160    0.00000000
                                                     2        5.6985408      119.49117860    0.00000000
                                      D - G
                                                     0      249.5650763        2.93436780    0.00000000
                                                     1      126.6678585       59.33065710    0.00000000
                                                     2       63.1430586      452.44451940    0.00000000
                                                     2       17.9059470      210.47694790    0.00000000
                                                     2        4.2239373       58.62541120    0.00000000
                                      F - G
                                                     0      121.8158799        3.95342530    0.00000000
                                                     1       60.8757030       53.85551820    0.00000000
                                                     2       31.4767147      247.43051330    0.00000000
                                                     2        9.8811751      127.81879760    0.00000000
                                                     2        2.7319874       15.37720460    0.00000000
    2          6
                                   No pseudopotential on this center.
    3          6
                                   No pseudopotential on this center.
    4          6
                                   No pseudopotential on this center.
    5          6
                                   No pseudopotential on this center.
    6          6
                                   No pseudopotential on this center.
    7          6
                                   No pseudopotential on this center.
    8          1
                                   No pseudopotential on this center.
    9          1
                                   No pseudopotential on this center.
   10          1
                                   No pseudopotential on this center.
   11          7
                                   No pseudopotential on this center.
   12          7
                                   No pseudopotential on this center.
   13          6
                                   No pseudopotential on this center.
   14          1
                                   No pseudopotential on this center.
   15          1
                                   No pseudopotential on this center.
   16          1
                                   No pseudopotential on this center.
   17          6
                                   No pseudopotential on this center.
   18          1
                                   No pseudopotential on this center.
   19          1
                                   No pseudopotential on this center.
   20          6
                                   No pseudopotential on this center.
   21          1
                                   No pseudopotential on this center.
   22          1
                                   No pseudopotential on this center.
   23          6
                                   No pseudopotential on this center.
   24          6
                                   No pseudopotential on this center.
   25          1
                                   No pseudopotential on this center.
   26          1
                                   No pseudopotential on this center.
   27          1
                                   No pseudopotential on this center.
   28          1
                                   No pseudopotential on this center.
   29          1
                                   No pseudopotential on this center.
   30          6
                                   No pseudopotential on this center.
   31          6
                                   No pseudopotential on this center.
   32          1
                                   No pseudopotential on this center.
   33          1
                                   No pseudopotential on this center.
   34          1
                                   No pseudopotential on this center.
   35          1
                                   No pseudopotential on this center.
   36          1
                                   No pseudopotential on this center.
   37          6
                                   No pseudopotential on this center.
   38          6
                                   No pseudopotential on this center.
   39          1
                                   No pseudopotential on this center.
   40          1
                                   No pseudopotential on this center.
   41          1
                                   No pseudopotential on this center.
   42          1
                                   No pseudopotential on this center.
   43          1
                                   No pseudopotential on this center.
   44          6
                                   No pseudopotential on this center.
   45          6
                                   No pseudopotential on this center.
   46          1
                                   No pseudopotential on this center.
   47          1
                                   No pseudopotential on this center.
   48          1
                                   No pseudopotential on this center.
   49          1
                                   No pseudopotential on this center.
   50          1
                                   No pseudopotential on this center.
   51          6
                                   No pseudopotential on this center.
   52          6
                                   No pseudopotential on this center.
   53          6
                                   No pseudopotential on this center.
   54          6
                                   No pseudopotential on this center.
   55          1
                                   No pseudopotential on this center.
   56          6
                                   No pseudopotential on this center.
   57          1
                                   No pseudopotential on this center.
   58          6
                                   No pseudopotential on this center.
   59          1
                                   No pseudopotential on this center.
   60          1
                                   No pseudopotential on this center.
   61          1
                                   No pseudopotential on this center.
 ======================================================================================================
 There are   883 symmetry adapted cartesian basis functions of A   symmetry.
 There are   827 symmetry adapted basis functions of A   symmetry.
   827 basis functions,  1278 primitive gaussians,   883 cartesian basis functions
   102 alpha electrons      102 beta electrons
       nuclear repulsion energy      2877.5072562850 Hartrees.
 NAtoms=   61 NActive=   61 NUniq=   61 SFac= 1.00D+00 NAtFMM=   60 NAOKFM=T Big=T
 Integral buffers will be    131072 words long.
 Raffenetti 2 integral format.
 Two-electron integral symmetry is turned on.
 Nuclear repulsion after empirical dispersion term =     2877.4896340807 Hartrees.
 ------------------------------------------------------------------------------
 Polarizable Continuum Model (PCM)
 =================================
 Model                : PCM.
 Atomic radii         : UFF (Universal Force Field).
 Polarization charges : Total charges.
 Charge compensation  : None.
 Solution method      : On-the-fly selection.
 Cavity type          : Scaled VdW (van der Waals Surface) (Alpha=1.100).
 Cavity algorithm     : GePol (No added spheres)
                        Default sphere list used, NSphG=   61.
                        Lebedev-Laikov grids with approx.  5.0 points / Ang**2.
                        Smoothing algorithm: York/Karplus (Gamma=1.0000).
                        Polarization charges: spherical gaussians, with
                                              point-specific exponents (IZeta= 3).
                        Self-potential: point-specific (ISelfS= 7).
                        Self-field    : sphere-specific E.n sum rule (ISelfD= 2).
 1st derivatives      : Analytical E(r).r(x)/FMM algorithm (CHGder, D1EAlg=3).
                        Cavity 1st derivative terms included.
 Solvent              : TetraHydroFuran, Eps=   7.425700 Eps(inf)=   1.974025
 ------------------------------------------------------------------------------
 One-electron integrals computed using PRISM.
   1 Symmetry operations used in ECPInt.
 ECPInt:  NShTT=   46360 NPrTT=  151530 LenC2=   40132 LenP2D=   86498.
 LDataN:  DoStor=T MaxTD1= 7 Len=  274
 Number of processors reduced to  10 by ecpmxn.
 NBasis=   827 RedAO= T EigKep=  4.98D-05  NBF=   827
 NBsUse=   827 1.00D-06 EigRej= -1.00D+00 NBFU=   827
 Defaulting to unpruned grid for atomic number  78.
 ExpMin= 2.90D-02 ExpMax= 6.29D+03 ExpMxC= 9.49D+02 IAcc=3 IRadAn=         5 AccDes= 0.00D+00
 Harris functional with IExCor= 1009 and IRadAn=       5 diagonalized for initial guess.
 HarFok:  IExCor= 1009 AccDes= 0.00D+00 IRadAn=         5 IDoV= 1 UseB2=F ITyADJ=14
 ICtDFT=  3500011 ScaDFX=  1.000000  1.000000  1.000000  1.000000
 Defaulting to unpruned grid for atomic number  78.
 FoFCou: FMM=F IPFlag=           0 FMFlag=      100000 FMFlg1=        2001
         NFxFlg=           0 DoJE=T BraDBF=F KetDBF=T FulRan=T
         wScrn=  0.000000 ICntrl=       500 IOpCl=  0 I1Cent=   200000004 NGrid=           0
         NMat0=    1 NMatS0=      1 NMatT0=    0 NMatD0=    1 NMtDS0=    0 NMtDT0=    0
 Petite list used in FoFCou.
 Requested convergence on RMS density matrix=1.00D-08 within 128 cycles.
 Requested convergence on MAX density matrix=1.00D-06.
 Requested convergence on             energy=1.00D-06.
 No special actions if energy rises.
 Defaulting to unpruned grid for atomic number  78.
 Defaulting to unpruned grid for atomic number  78.
 Defaulting to unpruned grid for atomic number  78.
 Defaulting to unpruned grid for atomic number  78.
 Defaulting to unpruned grid for atomic number  78.
 Defaulting to unpruned grid for atomic number  78.
 Defaulting to unpruned grid for atomic number  78.
 Defaulting to unpruned grid for atomic number  78.
 Defaulting to unpruned grid for atomic number  78.
 Defaulting to unpruned grid for atomic number  78.
 Defaulting to unpruned grid for atomic number  78.
 Defaulting to unpruned grid for atomic number  78.
 Inv3:  Mode=1 IEnd=    40033227.
 Iteration    1 A*A^-1 deviation from unit magnitude is 3.11D-15 for   3311.
 Iteration    1 A*A^-1 deviation from orthogonality  is 2.44D-15 for   3251   1599.
 Iteration    1 A^-1*A deviation from unit magnitude is 3.33D-15 for   3311.
 Iteration    1 A^-1*A deviation from orthogonality  is 2.55D-15 for   3293    697.
 Error on total polarization charges =  0.02139
 SCF Done:  E(RM06) =  -1125.51405397     A.U. after   16 cycles
            NFock= 16  Conv=0.32D-08     -V/T= 2.0832

 **********************************************************************

            Population analysis using the SCF Density.

 **********************************************************************

 Orbital symmetries:
       Occupied  (A) (A) (A) (A) (A) (A) (A) (A) (A) (A) (A) (A)
                 (A) (A) (A) (A) (A) (A) (A) (A) (A) (A) (A) (A)
                 (A) (A) (A) (A) (A) (A) (A) (A) (A) (A) (A) (A)
                 (A) (A) (A) (A) (A) (A) (A) (A) (A) (A) (A) (A)
                 (A) (A) (A) (A) (A) (A) (A) (A) (A) (A) (A) (A)
                 (A) (A) (A) (A) (A) (A) (A) (A) (A) (A) (A) (A)
                 (A) (A) (A) (A) (A) (A) (A) (A) (A) (A) (A) (A)
                 (A) (A) (A) (A) (A) (A) (A) (A) (A) (A) (A) (A)
                 (A) (A) (A) (A) (A) (A)
       Virtual   (A) (A) (A) (A) (A) (A) (A) (A) (A) (A) (A) (A)
                 (A) (A) (A) (A) (A) (A) (A) (A) (A) (A) (A) (A)
                 (A) (A) (A) (A) (A) (A) (A) (A) (A) (A) (A) (A)
                 (A) (A) (A) (A) (A) (A) (A) (A) (A) (A) (A) (A)
                 (A) (A) (A) (A) (A) (A) (A) (A) (A) (A) (A) (A)
                 (A) (A) (A) (A) (A) (A) (A) (A) (A) (A) (A) (A)
                 (A) (A) (A) (A) (A) (A) (A) (A) (A) (A) (A) (A)
                 (A) (A) (A) (A) (A) (A) (A) (A) (A) (A) (A) (A)
                 (A) (A) (A) (A) (A) (A) (A) (A) (A) (A) (A) (A)
                 (A) (A) (A) (A) (A) (A) (A) (A) (A) (A) (A) (A)
                 (A) (A) (A) (A) (A) (A) (A) (A) (A) (A) (A) (A)
                 (A) (A) (A) (A) (A) (A) (A) (A) (A) (A) (A) (A)
                 (A) (A) (A) (A) (A) (A) (A) (A) (A) (A) (A) (A)
                 (A) (A) (A) (A) (A) (A) (A) (A) (A) (A) (A) (A)
                 (A) (A) (A) (A) (A) (A) (A) (A) (A) (A) (A) (A)
                 (A) (A) (A) (A) (A) (A) (A) (A) (A) (A) (A) (A)
                 (A) (A) (A) (A) (A) (A) (A) (A) (A) (A) (A) (A)
                 (A) (A) (A) (A) (A) (A) (A) (A) (A) (A) (A) (A)
                 (A) (A) (A) (A) (A) (A) (A) (A) (A) (A) (A) (A)
                 (A) (A) (A) (A) (A) (A) (A) (A) (A) (A) (A) (A)
                 (A) (A) (A) (A) (A) (A) (A) (A) (A) (A) (A) (A)
                 (A) (A) (A) (A) (A) (A) (A) (A) (A) (A) (A) (A)
                 (A) (A) (A) (A) (A) (A) (A) (A) (A) (A) (A) (A)
                 (A) (A) (A) (A) (A) (A) (A) (A) (A) (A) (A) (A)
                 (A) (A) (A) (A) (A) (A) (A) (A) (A) (A) (A) (A)
                 (A) (A) (A) (A) (A) (A) (A) (A) (A) (A) (A) (A)
                 (A) (A) (A) (A) (A) (A) (A) (A) (A) (A) (A) (A)
                 (A) (A) (A) (A) (A) (A) (A) (A) (A) (A) (A) (A)
                 (A) (A) (A) (A) (A) (A) (A) (A) (A) (A) (A) (A)
                 (A) (A) (A) (A) (A) (A) (A) (A) (A) (A) (A) (A)
                 (A) (A) (A) (A) (A) (A) (A) (A) (A) (A) (A) (A)
                 (A) (A) (A) (A) (A) (A) (A) (A) (A) (A) (A) (A)
                 (A) (A) (A) (A) (A) (A) (A) (A) (A) (A) (A) (A)
                 (A) (A) (A) (A) (A) (A) (A) (A) (A) (A) (A) (A)
                 (A) (A) (A) (A) (A) (A) (A) (A) (A) (A) (A) (A)
                 (A) (A) (A) (A) (A) (A) (A) (A) (A) (A) (A) (A)
                 (A) (A) (A) (A) (A) (A) (A) (A) (A) (A) (A) (A)
                 (A) (A) (A) (A) (A) (A) (A) (A) (A) (A) (A) (A)
                 (A) (A) (A) (A) (A) (A) (A) (A) (A) (A) (A) (A)
                 (A) (A) (A) (A) (A) (A) (A) (A) (A) (A) (A) (A)
                 (A) (A) (A) (A) (A) (A) (A) (A) (A) (A) (A) (A)
                 (A) (A) (A) (A) (A) (A) (A) (A) (A) (A) (A) (A)
                 (A) (A) (A) (A) (A) (A) (A) (A) (A) (A) (A) (A)
                 (A) (A) (A) (A) (A) (A) (A) (A) (A) (A) (A) (A)
                 (A) (A) (A) (A) (A) (A) (A) (A) (A) (A) (A) (A)
                 (A) (A) (A) (A) (A) (A) (A) (A) (A) (A) (A) (A)
                 (A) (A) (A) (A) (A) (A) (A) (A) (A) (A) (A) (A)
                 (A) (A) (A) (A) (A) (A) (A) (A) (A) (A) (A) (A)
                 (A) (A) (A) (A) (A) (A) (A) (A) (A) (A) (A) (A)
                 (A) (A) (A) (A) (A) (A) (A) (A) (A) (A) (A) (A)
                 (A) (A) (A) (A) (A) (A) (A) (A) (A) (A) (A) (A)
                 (A) (A) (A) (A) (A) (A) (A) (A) (A) (A) (A) (A)
                 (A) (A) (A) (A) (A) (A) (A) (A) (A) (A) (A) (A)
                 (A) (A) (A) (A) (A) (A) (A) (A) (A) (A) (A) (A)
                 (A) (A) (A) (A) (A) (A) (A) (A) (A) (A) (A) (A)
                 (A) (A) (A) (A) (A) (A) (A) (A) (A) (A) (A) (A)
                 (A) (A) (A) (A) (A) (A) (A) (A) (A) (A) (A) (A)
                 (A) (A) (A) (A) (A) (A) (A) (A) (A) (A) (A) (A)
                 (A) (A) (A) (A) (A) (A) (A) (A) (A) (A) (A) (A)
                 (A) (A) (A) (A) (A) (A) (A) (A) (A) (A) (A) (A)
                 (A) (A) (A) (A) (A)
 The electronic state is 1-A.
 Alpha  occ. eigenvalues --  -14.48195 -14.48164 -10.31266 -10.31220 -10.30207
 Alpha  occ. eigenvalues --  -10.29974 -10.29908 -10.29877 -10.29838 -10.29755
 Alpha  occ. eigenvalues --  -10.29737 -10.27909 -10.27685 -10.27668 -10.26476
 Alpha  occ. eigenvalues --  -10.26193 -10.25180 -10.25172 -10.25097 -10.25071
 Alpha  occ. eigenvalues --  -10.25022 -10.24978 -10.24927 -10.24917 -10.24705
 Alpha  occ. eigenvalues --   -3.92154  -2.16245  -2.15925  -2.12882  -0.99006
 Alpha  occ. eigenvalues --   -0.98452  -0.91744  -0.87153  -0.83680  -0.82935
 Alpha  occ. eigenvalues --   -0.80299  -0.80258  -0.78545  -0.77081  -0.76554
 Alpha  occ. eigenvalues --   -0.76145  -0.74968  -0.72696  -0.71996  -0.67096
 Alpha  occ. eigenvalues --   -0.67035  -0.64337  -0.64127  -0.62301  -0.61551
 Alpha  occ. eigenvalues --   -0.61135  -0.60459  -0.55914  -0.55035  -0.54258
 Alpha  occ. eigenvalues --   -0.53817  -0.53401  -0.52375  -0.51887  -0.50799
 Alpha  occ. eigenvalues --   -0.49474  -0.48720  -0.47596  -0.47334  -0.47151
 Alpha  occ. eigenvalues --   -0.46995  -0.46452  -0.45597  -0.45541  -0.44802
 Alpha  occ. eigenvalues --   -0.44686  -0.44092  -0.43990  -0.43534  -0.43308
 Alpha  occ. eigenvalues --   -0.43149  -0.42976  -0.42639  -0.42391  -0.41844
 Alpha  occ. eigenvalues --   -0.41235  -0.39961  -0.39812  -0.39705  -0.38712
 Alpha  occ. eigenvalues --   -0.38651  -0.38272  -0.38034  -0.37625  -0.36839
 Alpha  occ. eigenvalues --   -0.36753  -0.36504  -0.35545  -0.33165  -0.31759
 Alpha  occ. eigenvalues --   -0.29715  -0.29268  -0.28308  -0.28160  -0.27537
 Alpha  occ. eigenvalues --   -0.25726  -0.25074
 Alpha virt. eigenvalues --   -0.08706  -0.05286  -0.04435  -0.02769  -0.02097
 Alpha virt. eigenvalues --   -0.01744  -0.00616  -0.00001   0.00436   0.02053
 Alpha virt. eigenvalues --    0.03190   0.04144   0.04408   0.05313   0.05376
 Alpha virt. eigenvalues --    0.05600   0.05960   0.06286   0.06809   0.06958
 Alpha virt. eigenvalues --    0.07549   0.07767   0.07957   0.08011   0.08631
 Alpha virt. eigenvalues --    0.09099   0.09289   0.09639   0.09889   0.10218
 Alpha virt. eigenvalues --    0.10538   0.11050   0.11458   0.11930   0.12189
 Alpha virt. eigenvalues --    0.12476   0.12941   0.13247   0.13485   0.13606
 Alpha virt. eigenvalues --    0.13880   0.14368   0.14571   0.15038   0.15400
 Alpha virt. eigenvalues --    0.15491   0.15646   0.15838   0.16695   0.16872
 Alpha virt. eigenvalues --    0.17654   0.18332   0.18849   0.19058   0.19848
 Alpha virt. eigenvalues --    0.20271   0.20873   0.21851   0.22559   0.22977
 Alpha virt. eigenvalues --    0.24063   0.24584   0.25317   0.25507   0.25926
 Alpha virt. eigenvalues --    0.26267   0.26532   0.26839   0.27319   0.27522
 Alpha virt. eigenvalues --    0.27884   0.28027   0.28246   0.28484   0.28952
 Alpha virt. eigenvalues --    0.29299   0.29987   0.30323   0.30662   0.31276
 Alpha virt. eigenvalues --    0.31943   0.32639   0.33246   0.33517   0.33927
 Alpha virt. eigenvalues --    0.34331   0.34948   0.35690   0.35833   0.36652
 Alpha virt. eigenvalues --    0.37126   0.38002   0.38100   0.38333   0.38548
 Alpha virt. eigenvalues --    0.38950   0.39243   0.39875   0.40565   0.40634
 Alpha virt. eigenvalues --    0.41022   0.41358   0.41908   0.42429   0.42713
 Alpha virt. eigenvalues --    0.43216   0.43414   0.43675   0.43798   0.45032
 Alpha virt. eigenvalues --    0.45302   0.45865   0.46230   0.46572   0.46772
 Alpha virt. eigenvalues --    0.47148   0.47394   0.47789   0.48545   0.48822
 Alpha virt. eigenvalues --    0.48953   0.49766   0.50046   0.50490   0.50662
 Alpha virt. eigenvalues --    0.50799   0.51386   0.51537   0.51944   0.52048
 Alpha virt. eigenvalues --    0.52326   0.52544   0.52808   0.53201   0.53352
 Alpha virt. eigenvalues --    0.53773   0.54004   0.54398   0.54593   0.54797
 Alpha virt. eigenvalues --    0.55024   0.55220   0.55580   0.56136   0.56153
 Alpha virt. eigenvalues --    0.56206   0.56808   0.57228   0.57473   0.58016
 Alpha virt. eigenvalues --    0.58324   0.58732   0.58930   0.59203   0.59553
 Alpha virt. eigenvalues --    0.59763   0.59938   0.60334   0.61149   0.61182
 Alpha virt. eigenvalues --    0.61496   0.61712   0.61966   0.62548   0.62916
 Alpha virt. eigenvalues --    0.63700   0.64093   0.64496   0.64944   0.65163
 Alpha virt. eigenvalues --    0.65576   0.66062   0.66701   0.67477   0.67776
 Alpha virt. eigenvalues --    0.68035   0.68619   0.69086   0.69765   0.70089
 Alpha virt. eigenvalues --    0.70510   0.71331   0.71701   0.71965   0.72171
 Alpha virt. eigenvalues --    0.72307   0.73222   0.74181   0.74739   0.74831
 Alpha virt. eigenvalues --    0.75807   0.76308   0.76901   0.77027   0.77557
 Alpha virt. eigenvalues --    0.78163   0.78562   0.79119   0.79167   0.79844
 Alpha virt. eigenvalues --    0.80454   0.81228   0.82399   0.82519   0.83102
 Alpha virt. eigenvalues --    0.84265   0.84525   0.85128   0.85385   0.86011
 Alpha virt. eigenvalues --    0.86578   0.87152   0.88323   0.89634   0.90045
 Alpha virt. eigenvalues --    0.90733   0.91153   0.91877   0.92699   0.93347
 Alpha virt. eigenvalues --    0.93581   0.94240   0.94404   0.95236   0.95858
 Alpha virt. eigenvalues --    0.96709   0.97279   0.97626   0.98361   0.98753
 Alpha virt. eigenvalues --    0.99005   0.99607   1.00395   1.00826   1.01874
 Alpha virt. eigenvalues --    1.02380   1.02565   1.03521   1.04149   1.04520
 Alpha virt. eigenvalues --    1.05312   1.05799   1.06233   1.07271   1.08117
 Alpha virt. eigenvalues --    1.08391   1.08909   1.09496   1.09897   1.10111
 Alpha virt. eigenvalues --    1.10384   1.11166   1.11960   1.12381   1.12801
 Alpha virt. eigenvalues --    1.13197   1.14261   1.15015   1.15295   1.15803
 Alpha virt. eigenvalues --    1.16095   1.16656   1.17529   1.18566   1.18930
 Alpha virt. eigenvalues --    1.19438   1.19940   1.20252   1.20464   1.21002
 Alpha virt. eigenvalues --    1.21739   1.22809   1.23283   1.23921   1.24279
 Alpha virt. eigenvalues --    1.24504   1.25066   1.25231   1.25774   1.26033
 Alpha virt. eigenvalues --    1.26309   1.26771   1.27039   1.27443   1.27923
 Alpha virt. eigenvalues --    1.28505   1.28886   1.29998   1.30260   1.31081
 Alpha virt. eigenvalues --    1.31242   1.32097   1.32710   1.34018   1.34575
 Alpha virt. eigenvalues --    1.35263   1.36236   1.36627   1.36945   1.38314
 Alpha virt. eigenvalues --    1.39609   1.40233   1.40671   1.40797   1.42044
 Alpha virt. eigenvalues --    1.42859   1.43448   1.44736   1.44845   1.45351
 Alpha virt. eigenvalues --    1.46356   1.46507   1.47140   1.48224   1.48815
 Alpha virt. eigenvalues --    1.50122   1.50308   1.50939   1.52099   1.52480
 Alpha virt. eigenvalues --    1.52820   1.54038   1.54464   1.54798   1.54950
 Alpha virt. eigenvalues --    1.55758   1.56106   1.57785   1.58526   1.59962
 Alpha virt. eigenvalues --    1.62082   1.62504   1.63264   1.63648   1.65069
 Alpha virt. eigenvalues --    1.65505   1.66023   1.67222   1.67489   1.68397
 Alpha virt. eigenvalues --    1.69319   1.69956   1.70379   1.71152   1.71620
 Alpha virt. eigenvalues --    1.72413   1.72718   1.72936   1.73717   1.74295
 Alpha virt. eigenvalues --    1.75883   1.76086   1.76927   1.77301   1.78572
 Alpha virt. eigenvalues --    1.79849   1.80447   1.81145   1.81842   1.82072
 Alpha virt. eigenvalues --    1.83125   1.83740   1.83798   1.85298   1.85812
 Alpha virt. eigenvalues --    1.86685   1.87125   1.87506   1.88840   1.89376
 Alpha virt. eigenvalues --    1.94401   1.94949   1.95277   1.96325   1.97187
 Alpha virt. eigenvalues --    1.97569   1.99662   2.00556   2.01145   2.02397
 Alpha virt. eigenvalues --    2.03281   2.03798   2.04984   2.06318   2.06897
 Alpha virt. eigenvalues --    2.07395   2.08158   2.08449   2.08669   2.09034
 Alpha virt. eigenvalues --    2.09359   2.09763   2.10251   2.10592   2.11438
 Alpha virt. eigenvalues --    2.12153   2.12955   2.13398   2.14131   2.14414
 Alpha virt. eigenvalues --    2.14820   2.15478   2.15898   2.16119   2.16546
 Alpha virt. eigenvalues --    2.16817   2.17634   2.18678   2.18755   2.19384
 Alpha virt. eigenvalues --    2.19778   2.20247   2.20993   2.22001   2.23056
 Alpha virt. eigenvalues --    2.23279   2.24078   2.24794   2.25499   2.26496
 Alpha virt. eigenvalues --    2.26791   2.27736   2.28608   2.30044   2.30385
 Alpha virt. eigenvalues --    2.31657   2.33229   2.33700   2.34410   2.34643
 Alpha virt. eigenvalues --    2.35498   2.36497   2.37292   2.37482   2.38058
 Alpha virt. eigenvalues --    2.40124   2.40924   2.41613   2.42238   2.42753
 Alpha virt. eigenvalues --    2.43010   2.43334   2.44379   2.45217   2.47481
 Alpha virt. eigenvalues --    2.47741   2.48859   2.50017   2.50459   2.50859
 Alpha virt. eigenvalues --    2.51482   2.51599   2.52137   2.52803   2.53674
 Alpha virt. eigenvalues --    2.54428   2.54922   2.55989   2.56534   2.57434
 Alpha virt. eigenvalues --    2.57696   2.58525   2.58842   2.59485   2.60358
 Alpha virt. eigenvalues --    2.61383   2.62018   2.62556   2.63636   2.64223
 Alpha virt. eigenvalues --    2.64449   2.66144   2.67489   2.68657   2.70302
 Alpha virt. eigenvalues --    2.70633   2.70944   2.71812   2.72563   2.74561
 Alpha virt. eigenvalues --    2.75436   2.76288   2.77077   2.77930   2.78266
 Alpha virt. eigenvalues --    2.78799   2.79651   2.79936   2.80782   2.81106
 Alpha virt. eigenvalues --    2.81541   2.82135   2.83414   2.84845   2.85876
 Alpha virt. eigenvalues --    2.87409   2.87630   2.88042   2.88333   2.90213
 Alpha virt. eigenvalues --    2.90804   2.93064   2.98273   2.99265   3.00033
 Alpha virt. eigenvalues --    3.01213   3.02216   3.04126   3.05449   3.06050
 Alpha virt. eigenvalues --    3.07317   3.07584   3.08111   3.08888   3.09958
 Alpha virt. eigenvalues --    3.10984   3.12945   3.14110   3.14802   3.16056
 Alpha virt. eigenvalues --    3.16342   3.16916   3.18203   3.18496   3.18610
 Alpha virt. eigenvalues --    3.19002   3.19626   3.20285   3.20390   3.20643
 Alpha virt. eigenvalues --    3.21001   3.22046   3.23620   3.24064   3.24271
 Alpha virt. eigenvalues --    3.25260   3.26294   3.27156   3.27587   3.28261
 Alpha virt. eigenvalues --    3.28879   3.29862   3.30239   3.30576   3.31932
 Alpha virt. eigenvalues --    3.31954   3.32635   3.33691   3.34010   3.34430
 Alpha virt. eigenvalues --    3.34591   3.36341   3.36997   3.37147   3.37697
 Alpha virt. eigenvalues --    3.38184   3.39392   3.39665   3.40063   3.40861
 Alpha virt. eigenvalues --    3.41507   3.42054   3.42151   3.42722   3.43092
 Alpha virt. eigenvalues --    3.43517   3.44415   3.44792   3.46687   3.46860
 Alpha virt. eigenvalues --    3.47318   3.47858   3.48048   3.48927   3.49479
 Alpha virt. eigenvalues --    3.49709   3.50062   3.51002   3.51535   3.52628
 Alpha virt. eigenvalues --    3.52982   3.53126   3.53577   3.54156   3.54304
 Alpha virt. eigenvalues --    3.55027   3.55286   3.55463   3.56442   3.57091
 Alpha virt. eigenvalues --    3.57558   3.58009   3.58858   3.60035   3.60373
 Alpha virt. eigenvalues --    3.61446   3.61558   3.61923   3.62736   3.62992
 Alpha virt. eigenvalues --    3.64254   3.64566   3.65359   3.65708   3.66212
 Alpha virt. eigenvalues --    3.66420   3.67554   3.67916   3.68620   3.68709
 Alpha virt. eigenvalues --    3.69423   3.70734   3.70802   3.71122   3.71818
 Alpha virt. eigenvalues --    3.73101   3.73838   3.74812   3.75239   3.76640
 Alpha virt. eigenvalues --    3.76799   3.76992   3.78965   3.80861   3.81634
 Alpha virt. eigenvalues --    3.83528   3.83760   3.85024   3.86212   3.86818
 Alpha virt. eigenvalues --    3.87309   3.88192   3.88905   3.89769   3.91192
 Alpha virt. eigenvalues --    3.91513   3.93683   3.94564   3.94707   3.96046
 Alpha virt. eigenvalues --    4.02995   4.04827   4.05908   4.07722   4.09660
 Alpha virt. eigenvalues --    4.10528   4.10681   4.11511   4.11901   4.11976
 Alpha virt. eigenvalues --    4.12340   4.13128   4.13799   4.14519   4.15520
 Alpha virt. eigenvalues --    4.16240   4.16459   4.17222   4.18867   4.18955
 Alpha virt. eigenvalues --    4.22592   4.24260   4.27678   4.30974   4.36516
 Alpha virt. eigenvalues --    4.36878   4.37690   4.38763   4.43415   4.45363
 Alpha virt. eigenvalues --    4.45832   4.51521   4.52310   4.54496   4.59905
 Alpha virt. eigenvalues --    4.61821   4.73277   4.74802   4.75704   4.76687
 Alpha virt. eigenvalues --    4.77061   4.79274   4.79994   4.80921   5.16574
 Alpha virt. eigenvalues --    5.21105   5.25143   5.26639   5.29065   5.29586
 Alpha virt. eigenvalues --    5.37281   5.44288   5.46764   5.49855   5.59684
 Alpha virt. eigenvalues --    5.62434  13.32256  13.58662  13.68541  23.58727
 Alpha virt. eigenvalues --   23.62524  23.79280  23.80708  23.86343  23.89644
 Alpha virt. eigenvalues --   23.90354  23.91832  23.93023  23.93714  23.94239
 Alpha virt. eigenvalues --   23.95177  23.95623  23.96787  23.97423  23.98637
 Alpha virt. eigenvalues --   23.99879  24.00240  24.03443  24.03847  24.05838
 Alpha virt. eigenvalues --   24.06217  24.19585  35.46299  35.51446  38.88880
          Condensed to atoms (all electrons):
 Mulliken charges:
               1
     1  Pt   0.768757
     2  C   -0.351447
     3  C    0.143377
     4  C    0.147865
     5  C   -0.133067
     6  C   -0.119362
     7  C   -0.079536
     8  H    0.114310
     9  H    0.112471
    10  H    0.102706
    11  N   -0.632501
    12  N   -0.628535
    13  C   -0.274473
    14  H    0.137186
    15  H    0.152470
    16  H    0.147711
    17  C   -0.046737
    18  H    0.146935
    19  H    0.153856
    20  C   -0.059128
    21  H    0.155113
    22  H    0.157314
    23  C   -0.085391
    24  C   -0.286287
    25  H    0.157019
    26  H    0.146741
    27  H    0.133097
    28  H    0.121167
    29  H    0.119053
    30  C   -0.071811
    31  C   -0.287700
    32  H    0.165378
    33  H    0.160740
    34  H    0.135644
    35  H    0.111932
    36  H    0.113477
    37  C   -0.076384
    38  C   -0.295045
    39  H    0.159012
    40  H    0.149822
    41  H    0.135955
    42  H    0.122831
    43  H    0.115266
    44  C   -0.085860
    45  C   -0.280394
    46  H    0.157129
    47  H    0.159740
    48  H    0.133455
    49  H    0.117152
    50  H    0.112929
    51  C   -0.222026
    52  C   -0.162805
    53  C   -0.170139
    54  C   -0.096465
    55  H    0.100666
    56  C   -0.103060
    57  H    0.104823
    58  C   -0.065124
    59  H    0.080706
    60  H    0.080889
    61  H    0.078582
 Sum of Mulliken charges =   1.00000
 Mulliken charges with hydrogens summed into heavy atoms:
               1
     1  Pt   0.768757
     2  C   -0.351447
     3  C    0.143377
     4  C    0.147865
     5  C   -0.018757
     6  C   -0.006891
     7  C    0.023170
    11  N   -0.632501
    12  N   -0.628535
    13  C    0.162895
    17  C    0.254054
    20  C    0.253299
    23  C    0.218369
    24  C    0.087030
    30  C    0.254307
    31  C    0.073352
    37  C    0.232451
    38  C    0.079008
    44  C    0.231009
    45  C    0.083142
    51  C   -0.222026
    52  C   -0.062139
    53  C   -0.065316
    54  C   -0.015759
    56  C   -0.022171
    58  C    0.013458
 Electronic spatial extent (au):  <R**2>=           8904.5522
 Charge=              1.0000 electrons
 Dipole moment (field-independent basis, Debye):
    X=              0.5100    Y=             -4.3704    Z=             -0.6610  Tot=              4.4494
 Quadrupole moment (field-independent basis, Debye-Ang):
   XX=           -131.8075   YY=           -156.9955   ZZ=           -154.5925
   XY=              2.3464   XZ=              0.2367   YZ=             -3.7717
 Traceless Quadrupole moment (field-independent basis, Debye-Ang):
   XX=             15.9910   YY=             -9.1970   ZZ=             -6.7940
   XY=              2.3464   XZ=              0.2367   YZ=             -3.7717
 Octapole moment (field-independent basis, Debye-Ang**2):
  XXX=              9.4675  YYY=              0.7239  ZZZ=            -14.2253  XYY=             -5.3797
  XXY=            -28.2254  XXZ=             -7.8326  XZZ=              1.6722  YZZ=            -13.3361
  YYZ=             11.0318  XYZ=             -1.4717
 Hexadecapole moment (field-independent basis, Debye-Ang**3):
 XXXX=          -4895.7597 YYYY=          -4761.3008 ZZZZ=          -1669.1893 XXXY=             46.4163
 XXXZ=              9.3655 YYYX=            -18.5592 YYYZ=            -78.5964 ZZZX=             -1.5628
 ZZZY=             -8.8417 XXYY=          -1695.9156 XXZZ=          -1081.5637 YYZZ=           -988.3186
 XXYZ=            -34.9284 YYXZ=              3.6355 ZZXY=              2.1502
 N-N= 2.877489634081D+03 E-N=-8.309359619407D+03  KE= 1.039038157239D+03
   1 Symmetry operations used in ECPInt.
 ECPInt:  NShTT=   46360 NPrTT=  151530 LenC2=   40132 LenP2D=   86498.
 LDataN:  DoStor=T MaxTD1= 8 Len=  415
 D1PCM: PCM CHGder 1st derivatives, ID1Alg=3 FixD1E=F DoIter=F DoCFld=F I1PDM=0.
 Calling FoFJK, ICntrl=      2127 FMM=T ISym2X=0 I1Cent= 0 IOpClX= 0 NMat=1 NMatS=1 NMatT=0.
 Defaulting to unpruned grid for atomic number  78.
 Defaulting to unpruned grid for atomic number  78.
 Defaulting to unpruned grid for atomic number  78.
 Defaulting to unpruned grid for atomic number  78.
 Defaulting to unpruned grid for atomic number  78.
 Defaulting to unpruned grid for atomic number  78.
 Defaulting to unpruned grid for atomic number  78.
 Defaulting to unpruned grid for atomic number  78.
 Defaulting to unpruned grid for atomic number  78.
[...]
 00003368,0.00014140,-0.03838132,0.01519627,-0.01801774,-0.00404246,-0.
 00051528,0.00013403,0.00697377,0.00052536,-0.00000868,-0.00114231,-0.0
 0011251,0.00002850,0.00334027,-0.00017758,0.00038201,0.02727549,0.0000
 1734,0.00035362,0.00096767,0.00004874,-0.00048851,-0.00009125,0.000121
 49,-0.00003282,-0.00016909,-0.00011403,-0.00008247,-0.00016524,0.00003
 790,0.00000686,0.00000626,-0.00003465,0.00000337,-0.00000005,-0.000003
 84,0.00000847,0.00004406,-0.00001082,-0.00000332,0.00000356,0.00001021
 ,-0.00000156,0.00000436,0.00000060,-0.00000568,0.00000635,0.00007549,0
 .00005831,-0.00002315,-0.00010675,0.00003600,0.00000076,-0.00000291,-0
 .00000171,0.00002937,-0.00000562,-0.00000919,-0.00001399,0.00000880,-0
 .00000706,-0.00001209,-0.00000577,0.00002733,0.00000137,0.00003952,0.0
 0005011,0.00004558,0.00000144,0.00000340,-0.00000657,-0.00001369,-0.00
 001958,0.00000156,-0.00004797,0.00004277,0.00004824,-0.00000050,0.0000
 0346,-0.00000793,0.00001798,-0.00001623,-0.00000031,0.00002440,-0.0000
 7943,0.00009077,-0.00000003,0.00002187,-0.00002353,-0.00004161,0.00000
 759,0.00000789,-0.00000234,-0.00000933,-0.00000461,0.00002196,0.000007
 42,-0.00001050,0.00000625,-0.00000125,0.00000422,0.00000269,-0.0000027
 0,0.00000363,0.00002203,-0.00001776,-0.00005638,0.00000216,0.00001438,
 0.00001928,0.00000353,0.00001602,-0.00003431,-0.00001129,-0.00000328,0
 .00000039,0.00001127,-0.00000122,0.00000980,0.00000096,-0.00000464,-0.
 00000309,0.00001061,-0.00000175,-0.00000374,-0.00002232,-0.00000966,-0
 .00007232,0.00000238,0.00000280,0.00002516,0.00001903,0.00000176,-0.00
 000590,-0.00000555,0.00000269,-0.00001682,-0.00001332,-0.00000082,0.00
 000917,-0.00001204,0.00000355,-0.00000273,-0.00000393,-0.00000525,-0.0
 0000348,-0.00000775,-0.00008927,0.00006863,-0.00000731,0.00002644,-0.0
 0001252,0.00000510,-0.00000114,0.00000084,0.00002425,0.00001053,0.0000
 0523,-0.00002466,0.00000177,-0.00001208,-0.00000076,-0.00000465,0.0000
 0211,-0.00000607,-0.00000367,0.00000210,0.00109572,-0.00445541,-0.0014
 3726,0.00240627,-0.01376956,0.02575396,-0.00001435,-0.00095498,-0.0009
 2163,0.01513736,-0.15358061,0.12938985,-0.00051948,0.00132438,-0.00016
 915,0.00055033,0.00040505,-0.00284584,-0.00011289,0.00004934,0.0001161
 3,-0.00100174,0.01061100,-0.01063161,-0.01712199,0.15966751,-0.0000142
 6,-0.00000087,-0.00002181,0.00000045,-0.00000097,0.00001362,-0.0000206
 8,-0.00002898,0.00000888,0.00002545,-0.00002031,0.00000677,-0.00000913
 ,0.00001051,-0.00000776,0.00000643,0.00001067,-0.00000701,0.00000056,0
 .00000372,-0.00000261,0.00000255,-0.00000127,-0.00000112,-0.00000214,-
 0.00000175,-0.00000152,0.00000007,-0.00000109,-0.00000297,-0.00000739,
 -0.00003022,0.00002157,0.00001990,-0.00002942,0.00001660,0.00000046,0.
 00000808,-0.00000363,0.00000190,0.00000402,0.00000390,-0.00000275,0.00
 000258,0.00000366,0.00000089,-0.00000416,-0.00000570,-0.00000402,-0.00
 002766,-0.00000832,-0.00000094,0.00000010,0.00000210,0.00000322,0.0000
 0666,-0.00000215,0.00000890,-0.00002573,-0.00001007,0.00000077,-0.0000
 0037,0.00000179,-0.00000484,0.00000631,-0.00000161,-0.00001164,-0.0000
 0119,-0.00001867,-0.00000104,0.00001181,0.00000178,0.00003605,0.000012
 91,0.00000367,0.00000124,-0.00000503,-0.00000416,-0.00000433,-0.000001
 56,0.00000532,-0.00000425,0.00000105,-0.00000363,-0.00000924,0.0000014
 2,0.00000035,0.00000329,-0.00000630,0.00001330,0.00000131,0.00000374,-
 0.00000012,-0.00000120,-0.00000957,0.00000836,0.00002123,0.00000413,0.
 00000245,-0.00000064,-0.00000064,-0.00000248,-0.00000371,0.00000390,0.
 00000018,-0.00000405,0.00000050,0.00000212,-0.00000643,-0.00001254,0.0
 0001337,-0.00000316,0.00000692,-0.00000095,-0.00002144,-0.00000662,0.0
 0000861,0.00000128,-0.00000096,0.00000223,0.00000172,-0.00000125,-0.00
 000225,0.00000290,-0.00000147,0.00000108,0.00000524,0.00000386,0.00000
 139,0.00000884,0.00001514,-0.00000897,-0.00000065,0.00000759,-0.000003
 42,-0.00000379,-0.00001416,-0.00001007,-0.00002734,0.00000079,0.000002
 96,0.00000602,0.00000004,0.00000578,0.00000549,0.00000335,0.00000203,0
 .00000561,0.00000275,-0.00000124,-0.00002544,-0.00127767,0.00166853,0.
 00047008,-0.00428665,0.00571461,0.00010276,-0.00077764,-0.00002445,-0.
 01804863,0.12900212,-0.23052210,0.00008926,0.00043914,0.00059922,0.000
 03294,-0.00349509,-0.00379104,0.00001868,0.00013006,-0.00002558,-0.002
 48076,0.01946005,-0.01734080,0.01981946,-0.13999133,0.24341079,0.00004
 243,-0.00002037,0.00002967,0.00000581,0.00003383,0.00000246,-0.0000021
 3,0.00003194,-0.00000487,0.00002060,-0.00001717,0.00001628,0.00001044,
 -0.00000866,0.00001932,0.00001957,0.00001297,-0.00002012,-0.00002859,-
 0.00000050,-0.00000673,0.00000179,-0.00000350,-0.00000097,-0.00000170,
 0.00000386,0.00000039,-0.00000021,0.00000040,-0.00000028,-0.00009386,-
 0.00003284,0.00005386,-0.00006607,0.00000433,-0.00004646,0.00000563,-0
 .00000002,-0.00000458,-0.00000024,0.00000085,0.00000182,-0.00000122,0.
 00000031,-0.00000050,0.00000076,-0.00000208,-0.00000115,0.00000117,-0.
 00000514,-0.00000130,-0.00000050,-0.00000209,0.00000157,-0.00000028,0.
 00000075,-0.00000054,0.00001562,-0.00000683,-0.00000707,-0.00000146,-0
 .00000079,0.,-0.00000221,-0.00000020,0.00000106,0.00002800,0.00003379,
 -0.00004520,0.00000292,-0.00000460,0.00000511,0.00001116,-0.00000919,0
 .00000941,0.00000369,-0.00000141,0.00000524,-0.00000197,-0.00000100,0.
 00000198,-0.00000497,0.00000110,-0.00000241,-0.00000091,-0.00000295,-0
 .00000213,-0.00002571,0.00002350,0.00001906,-0.00000082,0.00000731,0.0
 0000622,-0.00000099,-0.00001724,0.00000244,0.00001655,0.00001136,0.000
 00007,-0.00000270,0.00000481,-0.00000561,-0.00000271,-0.00000258,-0.00
 000278,-0.00000303,0.00000295,0.00000200,-0.00002868,0.00001092,-0.000
 00187,0.00000367,-0.00001965,-0.00000661,0.00002026,-0.00003513,0.0000
 0387,0.00000400,0.00001296,0.00000728,0.00000020,-0.00000565,0.0000018
 7,-0.00000444,-0.00000083,-0.00000561,-0.00000785,0.00000314,0.0000036
 2,0.00002488,-0.00001206,0.00005674,0.00000389,-0.00000244,-0.00000632
 ,0.00001793,0.00001983,-0.00000877,0.00000209,-0.00000240,-0.00001233,
 0.00000073,0.00000013,-0.00000213,-0.00000269,0.00000199,0.00000144,0.
 00000095,-0.00000264,0.00000068,0.00690994,0.00110252,-0.00005438,-0.0
 0076934,0.00009766,-0.00004150,0.00364363,0.00106467,0.00265264,0.0069
 5698,0.00094902,-0.00061861,-0.00116193,-0.00012680,0.00003381,-0.0365
 0812,0.00289072,0.00134678,-0.00401562,-0.00052438,0.00010942,0.003404
 67,-0.00111349,-0.00238301,0.00019545,-0.00003122,-0.00012953,0.025272
 61,-0.00003614,0.00044905,-0.00024766,0.00003513,-0.00034125,-0.000052
 16,0.00006292,-0.00005687,-0.00009390,-0.00005257,-0.00008177,-0.00009
 155,0.00006572,-0.00000749,0.00000873,-0.00006046,-0.00001904,0.000006
 24,0.00000039,-0.00001599,0.00008057,-0.00001365,-0.00000720,0.0000014
 5,0.00001354,-0.00000467,0.00000166,0.00000041,-0.00000445,0.00000672,
 0.00008078,0.00008407,-0.00007574,-0.00011472,0.00006462,-0.00007433,0
 .00000040,-0.00001807,0.00004800,-0.00000675,-0.00001274,-0.00001053,0
 .00001033,-0.00000974,-0.00000989,-0.00000476,0.00002174,0.00002026,0.
 00006039,0.00002579,0.00004541,-0.00000215,0.00001025,-0.00000209,-0.0
 0001179,-0.00001916,0.00000072,-0.00006318,0.00001774,0.00004849,0.000
 00146,0.00001111,-0.00000417,0.00001585,-0.00001668,-0.00000153,0.0000
 4758,-0.00005122,0.00007021,-0.00000144,0.00002192,-0.00002462,-0.0000
 1238,-0.00000436,-0.00000399,-0.00000051,-0.00000254,0.00000382,0.0000
 1603,0.00000582,-0.00000592,0.00000928,0.00000130,0.00000515,0.0000017
 0,-0.00000382,0.00000358,0.00000323,-0.00003700,-0.00008555,0.00000303
 ,0.00001579,0.00002547,-0.00000095,-0.00000376,-0.00002098,-0.00000857
 ,0.00001883,-0.00000461,0.00001570,-0.00000181,0.00001127,-0.00000270,
 -0.00000016,-0.00000358,0.00000397,-0.00000139,-0.00000368,-0.00001048
 ,-0.00002776,-0.00009395,0.00000182,0.00000307,0.00002864,0.00001895,0
 .00001716,-0.00001364,-0.00000205,-0.00000594,-0.00000879,-0.00001535,
 -0.00000667,0.00001203,-0.00000894,0.00000101,-0.00000635,-0.00000048,
 0.00000153,-0.00000116,-0.00002420,-0.00006967,0.00006309,-0.00000760,
 0.00002842,-0.00001414,-0.00000020,0.00000280,0.00000029,0.00000715,0.
 00000360,-0.00000904,-0.00001545,0.00000104,-0.00000798,0.00000036,-0.
 00000323,0.00000272,-0.00000861,-0.00000497,0.00000250,0.00112328,-0.0
 0464865,-0.00048230,0.00006970,-0.00127004,0.00060646,0.00017679,-0.00
 750262,-0.02908859,0.00091857,-0.00137281,0.00338976,-0.00012404,0.000
 10546,-0.00006777,0.00284254,-0.09587330,-0.09554881,-0.00050603,0.001
 33668,0.00037947,-0.00017792,0.01092428,0.01791616,0.00001250,0.000293
 36,0.00093201,-0.00384151,0.09724021,0.00000018,0.00012599,0.00002566,
 0.00001883,-0.00019081,-0.00003832,0.00006142,0.00003465,-0.00005199,-
 0.00006892,0.00001511,-0.00005122,0.00002336,-0.00001184,0.00001511,-0
 .00002051,-0.00001480,0.00001566,-0.00000005,0.00000244,0.00001170,-0.
 00000609,-0.00000110,0.00000095,0.00000604,-0.00000064,0.00000119,0.00
 000026,-0.00000219,0.00000499,0.00003210,0.00004176,-0.00000633,-0.000
 04072,0.00003169,0.00000333,-0.00000184,-0.00000048,0.00002151,-0.0000
 0351,-0.00000581,-0.00000571,0.00000511,-0.00000393,-0.00000508,-0.000
 00221,0.00001026,0.00000756,0.00001361,0.00004022,0.00002027,0.0000006
 6,0.00000251,-0.00000193,-0.00000650,-0.00001236,0.00000146,-0.0000201
 4,0.00003628,0.00002353,-0.00000080,0.00000309,-0.00000210,0.00000946,
 -0.00001148,-0.00000001,0.00000580,-0.00000549,0.00003728,-0.00000185,
 -0.00000361,-0.00001277,-0.00004221,-0.00000503,-0.00000554,-0.0000005
 2,0.00000352,0.00000498,0.00000564,0.00000346,-0.00000351,0.00000819,0
 .00000041,0.00000515,0.00000891,-0.00000364,0.00000166,0.00001150,-0.0
 0001403,-0.00004113,0.00000060,-0.00000109,0.00000343,0.00000156,0.000
 01529,-0.00001650,-0.00003218,-0.00000428,-0.00000872,0.00000753,-0.00
 000212,0.00000871,0.00000491,-0.00000357,-0.00000035,0.00000605,-0.000
 00241,-0.00000388,-0.00000959,-0.00000152,-0.00004103,0.00000333,-0.00
 000802,0.00000768,0.00004039,0.00000996,-0.00002187,-0.00000206,0.0000
 0018,-0.00000407,-0.00000724,-0.00000382,0.00000838,-0.00000721,0.0000
 0086,-0.00000567,-0.00000822,-0.00000203,-0.00000053,-0.00000694,-0.00
 001553,0.00002496,-0.00000021,0.00000255,-0.00000430,0.00000079,0.0000
 1167,0.00000843,0.00003099,0.00000236,-0.00001102,-0.00000480,0.000001
 03,-0.00000445,-0.00000466,-0.00000523,-0.00000132,-0.00000827,-0.0000
 0450,0.00000247,-0.00012401,-0.00040824,0.00185857,-0.00000613,0.00043
 466,0.00035130,-0.00022578,0.00087992,-0.00077887,-0.00067952,0.004086
 86,-0.00196232,0.00004418,-0.00009020,-0.00007765,0.00130973,-0.095037
 79,-0.28978924,0.00016640,-0.00022916,0.00058222,0.00052554,-0.0122156
 6,-0.01779830,0.00003150,-0.00060979,-0.00097660,-0.00120607,0.1032068
 8,0.30757614,-0.00118055,-0.00013738,0.00001253,0.00005635,0.00001479,
 0.00000187,-0.00003970,-0.00010725,0.00006778,-0.00005967,0.00010343,-
 0.00006354,-0.00006612,0.00003012,-0.00009501,-0.00005193,-0.00004000,
 0.00009678,0.00010239,0.00001115,-0.00000325,-0.00000024,0.00000378,0.
 00000133,-0.00000042,-0.00000438,-0.00000168,0.00000207,0.00000041,-0.
 00000032,0.00020688,0.00009235,-0.00000760,0.00022996,-0.00005266,0.00
 000158,-0.00000210,0.00000044,-0.00000061,-0.00000005,-0.00000076,0.00
 000024,-0.00000122,0.00000189,0.00000102,-0.00000119,-0.00000077,-0.00
 000082,-0.00001276,-0.00004595,0.00000043,0.00000043,0.00000092,0.0000
 0163,0.00000086,-0.00000147,-0.00000139,-0.00001715,0.00003835,-0.0000
 0193,0.00000046,-0.00000092,-0.00000144,-0.00000059,0.00000389,0.00000
 113,0.00002185,-0.00002491,0.00004032,0.00000020,0.00001341,0.00000059
 ,0.00002141,0.00000034,-0.00001790,-0.00000386,0.00000420,-0.00000288,
 0.00000186,0.00000218,0.00000313,-0.00000216,0.00000189,-0.00000336,-0
 .00000312,-0.00000270,0.00000045,0.00002303,0.00000415,-0.00002571,-0.
 00000196,0.00000645,0.00000384,-0.00000270,0.00000073,0.00000720,0.000
 01099,-0.00000686,0.00001009,0.00000187,0.00000023,-0.00000052,-0.0000
 0054,-0.00000298,-0.00000100,-0.00000227,0.00000096,0.00000100,0.00002
 939,0.00000527,0.00003416,-0.00000134,-0.00000418,-0.00000364,-0.00001
 045,0.00000224,-0.00000377,-0.00000178,0.00000321,-0.00000393,0.000002
 88,-0.00000161,-0.00000213,-0.00000131,-0.00000072,-0.00000186,0.00000
 094,0.00000391,0.00000131,0.00001410,0.00002855,-0.00004203,0.00000425
 ,-0.00001242,0.00000043,-0.00000599,-0.00001104,-0.00000039,0.00001604
 ,0.00000030,0.00001595,0.00000272,-0.00000040,-0.00000094,-0.00000190,
 0.00000281,-0.00000046,0.00000024,-0.00000048,0.00000062,-0.00115907,-
 0.00017035,-0.00002536,0.00688341,0.00049440,-0.00010331,0.00693398,0.
 00077284,-0.00066062,0.00256103,0.00019258,-0.00013578,0.00025533,0.00
 003174,-0.00001755,0.00240930,0.00240362,0.00065852,0.00024907,0.00013
 548,0.00001508,-0.03705486,0.02712717,0.00257038,-0.00385535,-0.000418
 60,0.00014848,-0.00390712,-0.00048391,0.00016422,0.02740621,-0.0001098
 7,0.00009277,0.00012830,0.00001789,-0.00011887,-0.00003450,0.00003040,
 -0.00000479,-0.00003413,-0.00004123,-0.00000081,-0.00004621,0.00001403
 ,-0.00000526,-0.00000512,-0.00002309,-0.00001331,0.00001308,0.00000942
 ,0.00000009,0.00001695,-0.00000526,0.00000055,0.00000119,0.00000465,0.
 00000053,0.00000159,0.00000033,-0.00000078,0.00000466,0.00007715,0.000
 03127,-0.00002024,-0.00004466,0.00000423,-0.00001220,-0.00000188,-0.00
 000507,0.00001009,-0.00000365,-0.00000654,-0.00000602,0.00000531,-0.00
 000425,-0.00000529,-0.00000247,0.00000867,0.00000746,0.00001618,0.0000
 3830,0.00001998,0.00000102,0.00000098,-0.00000319,-0.00000615,-0.00001
 255,0.00000232,-0.00002670,0.00004200,0.00002367,-0.00000103,0.0000015
 5,-0.00000384,0.00000927,-0.00001137,0.00000138,0.00000536,-0.00001720
 ,0.00004364,-0.00000027,-0.00000293,-0.00000940,-0.00004802,-0.0000048
 7,-0.00000979,-0.00000238,0.00000809,0.00000470,0.00000663,0.00000402,
 -0.00000636,0.00000750,-0.00000091,0.00000601,0.00001002,-0.00000366,0
 .00000137,0.00000370,0.00000362,-0.00003585,-0.00000095,-0.00000344,0.
 00000188,0.00000044,0.00002064,-0.00001467,-0.00004001,-0.00001016,0.0
 0000090,0.00000369,0.00000009,0.00000708,0.00000667,-0.00000630,-0.000
 00061,0.00000755,-0.00000177,-0.00000416,0.00000434,0.00001795,-0.0000
 2918,0.00000441,-0.00001275,0.00000409,0.00004557,0.00001186,-0.000009
 78,-0.00000158,0.00000269,-0.00000361,-0.00000428,-0.00000055,0.000006
 56,-0.00000715,0.00000212,-0.00000445,-0.00001032,-0.00000473,-0.00000
 160,0.00000148,-0.00002335,0.00002219,-0.00000084,-0.00000050,-0.00000
 092,0.00000515,0.00002031,0.00000960,0.00003768,0.00000128,-0.00000918
 ,-0.00000608,0.00000166,-0.00000715,-0.00000580,-0.00000537,-0.0000020
 1,-0.00000842,-0.00000511,0.00000324,-0.00017485,0.00066664,0.00018884
 ,0.00049211,0.00133637,-0.00236748,0.00079941,0.00000758,0.00357582,0.
 00106591,-0.00806218,0.00119431,0.00007411,-0.00050944,0.00007792,0.00
 148406,-0.01429770,-0.00529160,0.00009265,-0.00080833,-0.00023645,0.02
 715214,-0.32432400,-0.03457567,-0.00044162,0.00060333,-0.00003345,-0.0
 0047026,0.00080021,-0.00007142,-0.03000743,0.34455944,0.00003928,0.000
 01176,0.00011462,0.00000218,-0.00003823,-0.00000432,0.00001190,0.00000
 951,-0.00001165,-0.00000921,-0.00000316,-0.00000720,0.00000019,0.00000
 055,0.00000343,0.00000313,0.00000254,-0.00000374,-0.00000380,0.0000031
 6,-0.00000075,-0.00000074,-0.00000105,0.00000007,0.00000079,-0.0000005
 4,0.00000011,0.00000005,-0.00000116,0.00000038,0.00000392,-0.00000390,
 0.00000972,-0.00001819,0.00000500,0.00000947,-0.00000115,0.00001099,-0
 .00000019,-0.00000064,0.00000123,-0.00000018,0.00000026,0.00000128,-0.
 00000022,-0.00000032,0.00000342,-0.00000647,-0.00000006,0.00000444,0.0
 0000778,0.00000021,0.00000233,0.00000055,-0.00000071,-0.00000171,-0.00
 000052,0.00000042,0.00000207,0.00000737,-0.00000088,0.00000188,0.00000
 081,0.00000115,-0.00000162,-0.00000051,0.00000150,0.00000657,-0.000000
 57,0.00000088,-0.00001367,0.00000449,-0.00002529,-0.00000807,-0.000018
 90,-0.00000325,0.00001018,0.00000860,-0.00000126,0.00000038,-0.0000013
 5,0.00000360,0.00000027,0.00000117,0.00000644,-0.00000043,-0.00000119,
 -0.00000199,-0.00001196,-0.00000449,0.00000150,0.00000748,0.00000847,0
 .00000170,-0.00000852,-0.00000126,0.00001577,0.00000895,-0.00000456,0.
 00000235,-0.00000055,0.00000073,-0.00000294,0.00000115,-0.00000082,-0.
 00000162,0.00000036,-0.00000096,0.00000387,-0.00002152,-0.00000834,-0.
 00000164,0.00000928,0.00000831,-0.00002240,-0.00000118,-0.00000114,-0.
 00000398,-0.00000125,0.00000024,-0.00000223,-0.00000046,0.00000080,0.0
 0000070,-0.00000062,-0.00000032,0.00000419,0.00000099,-0.00000115,-0.0
 0000310,-0.00000639,-0.00000340,0.00000069,-0.00000959,0.00000827,0.00
 001263,0.00002524,0.00001219,0.00001520,-0.00000282,-0.00001484,0.0000
 0114,0.00000067,-0.00000118,-0.00000342,-0.00000180,-0.00000197,-0.000
 00491,-0.00000163,-0.00000072,-0.00002432,0.00024380,-0.00129534,-0.00
 017701,-0.00156754,-0.00461032,-0.00058535,0.00274414,-0.00327714,0.00
 277592,-0.02911476,0.00104285,0.00011855,-0.00136493,-0.00021851,-0.00
 229640,0.02507473,0.00736543,-0.00011909,0.00120699,0.00008218,0.00259
 976,-0.03465023,-0.06180316,0.00008406,0.00069000,0.00126578,0.0002333
 5,-0.00076879,0.00109803,-0.00263136,0.03751673,0.06024554\\0.00000845
 ,0.00000646,0.00000315,-0.00000287,-0.00001563,0.00000633,-0.00000429,
 -0.00000354,0.00000127,-0.00000065,0.00000681,-0.00000445,0.00000013,0
 .00000177,-0.00000033,-0.00000693,-0.00000384,0.00000099,0.00000182,0.
 00000258,-0.00000122,-0.00000064,0.00000147,0.00000271,-0.00000047,-0.
 00000252,-0.00000215,-0.00000088,0.00000012,0.00000092,-0.00000270,-0.
 00000327,-0.00000337,0.00000268,-0.00000076,0.00000688,-0.00001267,0.0
 0000750,-0.00000484,-0.00000294,0.00000107,0.00000120,-0.00000331,-0.0
 0000314,-0.00000056,-0.00000550,-0.00000367,0.00000270,-0.00000250,-0.
 00000141,0.00000305,-0.00000282,0.00000384,0.00000430,-0.00000051,0.00
 000294,0.00000231,-0.00000249,-0.00000013,0.00000021,-0.00000574,-0.00
 000479,-0.00000305,-0.00000166,-0.00000185,-0.00000271,0.00000228,-0.0
 0000250,-0.00000393,-0.00000029,-0.00000206,-0.00000650,-0.00000023,-0
 .00000111,-0.00000340,-0.00000022,-0.00000099,-0.00000254,-0.00000049,
 -0.00000448,-0.00000504,0.00000019,-0.00000343,-0.00000712,-0.00000212
 ,-0.00000312,-0.00000544,0.00000349,-0.00000269,-0.00000182,0.00000166
 ,-0.00000314,-0.00000695,0.00000245,-0.00000095,-0.00000430,0.00000208
 ,-0.00000192,-0.00000292,0.00000330,-0.00000264,-0.00000458,0.00000075
 ,-0.00000313,-0.00000480,0.00000044,-0.00000462,-0.00000481,0.00000078
 ,0.00000330,-0.00000406,-0.00000145,0.00000562,0.00000992,0.00000428,0
 .00000187,0.00000267,0.00000224,0.00000212,0.00000534,0.00000183,0.000
 00275,0.00000387,0.00000289,0.00000353,0.00000624,0.00000158,0.0000053
 8,0.00000684,-0.00000817,0.00000491,-0.00000156,-0.00000318,0.00000236
 ,0.00000478,-0.00000032,0.00000080,0.00000253,0.00000065,0.00000193,0.
 00000298,-0.00000127,0.00000347,0.00000427,-0.00000300,0.00000399,0.00
 000495,-0.00000008,0.00000377,0.00000542,0.00000039,0.00000019,0.00000
 590,0.00000281,-0.00000117,-0.00000305,0.00000447,-0.00000092,-0.00000
 221,0.00000226,-0.00000114,-0.00000118,-0.00000091,0.00000042,0.000000
 18,0.00000439,0.00000264,-0.00000297,0.00000460,-0.00000003,-0.0000004
 5,0.00000437,-0.00000111,0.00000151,0.00000182,0.00000017,-0.00000040,
 0.00000656,0.00000110,-0.00000040,0.00000568,0.00000080,-0.00000036\\\
 @
 The archive entry for this job was punched.


 ALMOST ALL THE CHEMICAL PROCESSES WHICH OCCUR IN NATURE,
 WHETHER IN ANIMAL OR VEGETABLE ORGANISMS,
 OR IN THE NON-LIVING SURFACE OF THE EARTH ... 
 TAKE PLACE BETWEEN SUBSTANCES IN SOLUTION

                                    -- W. OSTWALD, 1890
 Job cpu time:       2 days 15 hours  3 minutes 40.8 seconds.
 Elapsed time:       0 days  5 hours 15 minutes 40.3 seconds.
 File lengths (MBytes):  RWF=   3348 Int=      0 D2E=      0 Chk=     74 Scr=      1
 Normal termination of Gaussian 16 at Mon May 23 19:54:14 2022.
