 Entering Gaussian System, Link 0=g16
 Input=MeOTf.com
 Output=MeOTf.log
 Initial command:
 /usr/local/g16/l1.exe "/hdd/Gau-917594.inp" -scrdir="/hdd/"
 Entering Link 1 = /usr/local/g16/l1.exe PID=    917596.
  
 Copyright (c) 1988-2019, Gaussian, Inc.  All Rights Reserved.
  
 This is part of the Gaussian(R) 16 program.  It is based on
 the Gaussian(R) 09 system (copyright 2009, Gaussian, Inc.),
 the Gaussian(R) 03 system (copyright 2003, Gaussian, Inc.),
 the Gaussian(R) 98 system (copyright 1998, Gaussian, Inc.),
 the Gaussian(R) 94 system (copyright 1995, Gaussian, Inc.),
 the Gaussian 92(TM) system (copyright 1992, Gaussian, Inc.),
 the Gaussian 90(TM) system (copyright 1990, Gaussian, Inc.),
 the Gaussian 88(TM) system (copyright 1988, Gaussian, Inc.),
 the Gaussian 86(TM) system (copyright 1986, Carnegie Mellon
 University), and the Gaussian 82(TM) system (copyright 1983,
 Carnegie Mellon University). Gaussian is a federally registered
 trademark of Gaussian, Inc.
  
 This software contains proprietary and confidential information,
 including trade secrets, belonging to Gaussian, Inc.
  
 This software is provided under written license and may be
 used, copied, transmitted, or stored only in accord with that
 written license.
  
 The following legend is applicable only to US Government
 contracts under FAR:
  
                    RESTRICTED RIGHTS LEGEND
  
 Use, reproduction and disclosure by the US Government is
 subject to restrictions as set forth in subparagraphs (a)
 and (c) of the Commercial Computer Software - Restricted
 Rights clause in FAR 52.227-19.
  
 Gaussian, Inc.
 340 Quinnipiac St., Bldg. 40, Wallingford CT 06492
  
  
 ---------------------------------------------------------------
 Warning -- This program may not be used in any manner that
 competes with the business of Gaussian, Inc. or will provide
 assistance to any competitor of Gaussian, Inc.  The licensee
 of this program is prohibited from giving any competitor of
 Gaussian, Inc. access to this program.  By using this program,
 the user acknowledges that Gaussian, Inc. is engaged in the
 business of creating and licensing software in the field of
 computational chemistry and represents and warrants to the
 licensee that it is not a competitor of Gaussian, Inc. and that
 it will not use this program in any manner prohibited above.
 ---------------------------------------------------------------
  

 Cite this work as:
 Gaussian 16, Revision C.01,
 M. J. Frisch, G. W. Trucks, H. B. Schlegel, G. E. Scuseria, 
 M. A. Robb, J. R. Cheeseman, G. Scalmani, V. Barone, 
 G. A. Petersson, H. Nakatsuji, X. Li, M. Caricato, A. V. Marenich, 
 J. Bloino, B. G. Janesko, R. Gomperts, B. Mennucci, H. P. Hratchian, 
 J. V. Ortiz, A. F. Izmaylov, J. L. Sonnenberg, D. Williams-Young, 
 F. Ding, F. Lipparini, F. Egidi, J. Goings, B. Peng, A. Petrone, 
 T. Henderson, D. Ranasinghe, V. G. Zakrzewski, J. Gao, N. Rega, 
 G. Zheng, W. Liang, M. Hada, M. Ehara, K. Toyota, R. Fukuda, 
 J. Hasegawa, M. Ishida, T. Nakajima, Y. Honda, O. Kitao, H. Nakai, 
 T. Vreven, K. Throssell, J. A. Montgomery, Jr., J. E. Peralta, 
 F. Ogliaro, M. J. Bearpark, J. J. Heyd, E. N. Brothers, K. N. Kudin, 
 V. N. Staroverov, T. A. Keith, R. Kobayashi, J. Normand, 
 K. Raghavachari, A. P. Rendell, J. C. Burant, S. S. Iyengar, 
 J. Tomasi, M. Cossi, J. M. Millam, M. Klene, C. Adamo, R. Cammi, 
 J. W. Ochterski, R. L. Martin, K. Morokuma, O. Farkas, 
 J. B. Foresman, and D. J. Fox, Gaussian, Inc., Wallingford CT, 2019.
 
 ******************************************
 Gaussian 16:  ES64L-G16RevC.01  3-Jul-2019
                23-May-2022 
 ******************************************
 %nprocshared=12
 Will use up to   12 processors via shared memory.
 %mem=32MW
 %chk=Me-NCNPtPh.chk
 ----------------------------------------------------------------------
 # opt freq 6-311G(2d,p) scrf=(iefpcm,solvent=thf) m06 EmpiricalDispers
 ion=GD3
 ----------------------------------------------------------------------
 1/18=20,19=15,26=3,38=1/1,3;
 2/9=110,12=2,17=6,18=5,40=1/2;
 3/5=4,6=6,7=102,11=2,25=1,30=1,70=2201,71=1,72=20,74=-54,124=31/1,2,3;
 4//1;
 5/5=2,38=5,53=20/2;
 6/7=2,8=2,9=2,10=2,28=1/1;
 7//1,2,3,16;
 1/18=20,19=15,26=3/3(2);
 2/9=110/2;
 99//99;
 2/9=110/2;
 3/5=4,6=6,7=102,11=2,25=1,30=1,70=2205,71=1,72=20,74=-54,124=31/1,2,3;
 4/5=5,16=3,69=1/1;
 5/5=2,38=5,53=20/2;
 7//1,2,3,16;
 1/18=20,19=15,26=3/3(-5);
 2/9=110/2;
 6/7=2,8=2,9=2,10=2,19=2,28=1/1;
 99/9=1/99;
 ---------------------------------------------------------
 M06 Me-(NCN)PtPh; Custom Lanl2tz(f)+6-311g(d,p) basis set
 ---------------------------------------------------------
 Symbolic Z-matrix:
 Charge =  0 Multiplicity = 1
 S                    -0.46638   0.57728   0.01066 
 O                    -0.75107   1.17497   1.45452 
 O                    -0.6201    1.45573  -1.30153 
 C                     1.3181   -0.28499   0.00302 
 F                     2.24882   0.70885   0.06622 
 F                     1.42964  -1.09447   1.08746 
 F                     1.47473  -0.99303  -1.14395 
 O                    -1.27688  -0.97214  -0.1758 
 C                    -2.73546  -0.92563  -0.02013 
 H                    -3.04375  -1.95679  -0.1922 
 H                    -3.00334  -0.60915   0.99211 
 H                    -3.18101  -0.26741  -0.77275 
 

 GradGradGradGradGradGradGradGradGradGradGradGradGradGradGradGradGradGrad
 Berny optimization.
 Initialization pass.
                           ----------------------------
                           !    Initial Parameters    !
                           ! (Angstroms and Degrees)  !
 --------------------------                            --------------------------
 ! Name  Definition              Value          Derivative Info.                !
 --------------------------------------------------------------------------------
 ! R1    R(1,2)                  1.5884         estimate D2E/DX2                !
 ! R2    R(1,3)                  1.5865         estimate D2E/DX2                !
 ! R3    R(1,4)                  1.9819         estimate D2E/DX2                !
 ! R4    R(1,8)                  1.7585         estimate D2E/DX2                !
 ! R5    R(4,5)                  1.3631         estimate D2E/DX2                !
 ! R6    R(4,6)                  1.3578         estimate D2E/DX2                !
 ! R7    R(4,7)                  1.357          estimate D2E/DX2                !
 ! R8    R(8,9)                  1.4676         estimate D2E/DX2                !
 ! R9    R(9,10)                 1.0899         estimate D2E/DX2                !
 ! R10   R(9,11)                 1.0939         estimate D2E/DX2                !
 ! R11   R(9,12)                 1.0946         estimate D2E/DX2                !
 ! A1    A(2,1,3)              121.7426         estimate D2E/DX2                !
 ! A2    A(2,1,4)              109.1832         estimate D2E/DX2                !
 ! A3    A(2,1,8)              110.2009         estimate D2E/DX2                !
 ! A4    A(3,1,4)              108.9621         estimate D2E/DX2                !
 ! A5    A(3,1,8)              110.8242         estimate D2E/DX2                !
 ! A6    A(4,1,8)               91.79           estimate D2E/DX2                !
 ! A7    A(1,4,5)              107.3013         estimate D2E/DX2                !
 ! A8    A(1,4,6)              109.2843         estimate D2E/DX2                !
 ! A9    A(1,4,7)              109.5235         estimate D2E/DX2                !
 ! A10   A(5,4,6)              109.9716         estimate D2E/DX2                !
 ! A11   A(5,4,7)              109.9265         estimate D2E/DX2                !
 ! A12   A(6,4,7)              110.7633         estimate D2E/DX2                !
 ! A13   A(1,8,9)              114.7649         estimate D2E/DX2                !
 ! A14   A(8,9,10)             103.5555         estimate D2E/DX2                !
 ! A15   A(8,9,11)             110.5304         estimate D2E/DX2                !
 ! A16   A(8,9,12)             110.5277         estimate D2E/DX2                !
 ! A17   A(10,9,11)            110.5212         estimate D2E/DX2                !
 ! A18   A(10,9,12)            110.1952         estimate D2E/DX2                !
 ! A19   A(11,9,12)            111.2595         estimate D2E/DX2                !
 ! D1    D(2,1,4,5)            -71.1167         estimate D2E/DX2                !
 ! D2    D(2,1,4,6)             48.092          estimate D2E/DX2                !
 ! D3    D(2,1,4,7)            169.5959         estimate D2E/DX2                !
 ! D4    D(3,1,4,5)             63.999          estimate D2E/DX2                !
 ! D5    D(3,1,4,6)           -176.7922         estimate D2E/DX2                !
 ! D6    D(3,1,4,7)            -55.2883         estimate D2E/DX2                !
 ! D7    D(8,1,4,5)            176.756          estimate D2E/DX2                !
 ! D8    D(8,1,4,6)            -64.0353         estimate D2E/DX2                !
 ! D9    D(8,1,4,7)             57.4686         estimate D2E/DX2                !
 ! D10   D(2,1,8,9)             59.6086         estimate D2E/DX2                !
 ! D11   D(3,1,8,9)            -78.0985         estimate D2E/DX2                !
 ! D12   D(4,1,8,9)            170.8192         estimate D2E/DX2                !
 ! D13   D(1,8,9,10)           178.6957         estimate D2E/DX2                !
 ! D14   D(1,8,9,11)           -62.9224         estimate D2E/DX2                !
 ! D15   D(1,8,9,12)            60.696          estimate D2E/DX2                !
 --------------------------------------------------------------------------------
 Trust Radius=3.00D-01 FncErr=1.00D-07 GrdErr=1.00D-06 EigMax=2.50D+02 EigMin=1.00D-04
 Number of steps in this run=     55 maximum allowed number of steps=    100.
 GradGradGradGradGradGradGradGradGradGradGradGradGradGradGradGradGradGrad

                          Input orientation:                          
 ---------------------------------------------------------------------
 Center     Atomic      Atomic             Coordinates (Angstroms)
 Number     Number       Type             X           Y           Z
 ---------------------------------------------------------------------
      1         16           0       -0.466380    0.577283    0.010655
      2          8           0       -0.751073    1.174971    1.454522
      3          8           0       -0.620096    1.455728   -1.301529
      4          6           0        1.318102   -0.284988    0.003019
      5          9           0        2.248817    0.708849    0.066216
      6          9           0        1.429640   -1.094472    1.087456
      7          9           0        1.474731   -0.993031   -1.143954
      8          8           0       -1.276876   -0.972143   -0.175797
      9          6           0       -2.735462   -0.925634   -0.020131
     10          1           0       -3.043750   -1.956791   -0.192202
     11          1           0       -3.003337   -0.609147    0.992107
     12          1           0       -3.181011   -0.267413   -0.772750
 ---------------------------------------------------------------------
                    Distance matrix (angstroms):
                    1          2          3          4          5
     1  S    0.000000
     2  O    1.588406   0.000000
     3  O    1.586544   2.773409   0.000000
     4  C    1.981905   2.918874   2.913511   0.000000
     5  F    2.718950   3.338264   3.264846   1.363061   0.000000
     6  F    2.747573   3.168693   4.051196   1.357832   2.228441
     7  F    2.750804   4.050495   3.226384   1.356984   2.227132
     8  O    1.758519   2.746727   2.755574   2.690366   3.913415
     9  C    2.721845   3.244217   3.433313   4.103943   5.246144
    10  H    3.620154   4.216160   4.330126   4.675338   5.931583
    11  H    2.967662   2.910257   3.899271   4.445021   5.493588
    12  H    2.948975   3.598029   3.131630   4.565539   5.580321
                    6          7          8          9         10
     6  F    0.000000
     7  F    2.234170   0.000000
     8  O    2.989315   2.917037   0.000000
     9  C    4.313158   4.358124   1.467606   0.000000
    10  H    4.732054   4.717132   2.022781   1.089924   0.000000
    11  H    4.460484   4.976265   2.115758   1.093868   1.794538
    12  H    5.040089   4.726547   2.116300   1.094625   1.791612
                   11         12
    11  H    0.000000
    12  H    1.806397   0.000000
 Stoichiometry    C2H3F3O3S
 Framework group  C1[X(C2H3F3O3S)]
 Deg. of freedom    30
 Full point group                 C1      NOp   1
 Largest Abelian subgroup         C1      NOp   1
 Largest concise Abelian subgroup C1      NOp   1
                         Standard orientation:                         
 ---------------------------------------------------------------------
 Center     Atomic      Atomic             Coordinates (Angstroms)
 Number     Number       Type             X           Y           Z
 ---------------------------------------------------------------------
      1         16           0       -0.466380    0.577283    0.010655
      2          8           0       -0.751073    1.174971    1.454522
      3          8           0       -0.620096    1.455728   -1.301529
      4          6           0        1.318102   -0.284988    0.003019
      5          9           0        2.248817    0.708849    0.066216
      6          9           0        1.429640   -1.094472    1.087456
      7          9           0        1.474731   -0.993031   -1.143954
      8          8           0       -1.276876   -0.972143   -0.175797
      9          6           0       -2.735462   -0.925634   -0.020131
     10          1           0       -3.043750   -1.956791   -0.192202
     11          1           0       -3.003337   -0.609147    0.992107
     12          1           0       -3.181011   -0.267413   -0.772750
 ---------------------------------------------------------------------
 Rotational constants (GHZ):           1.9562602           1.0675401           0.9894184
 Standard basis: 6-311G(2d,p) (5D, 7F)
 There are   251 symmetry adapted cartesian basis functions of A   symmetry.
 There are   233 symmetry adapted basis functions of A   symmetry.
   233 basis functions,   380 primitive gaussians,   251 cartesian basis functions
    41 alpha electrons       41 beta electrons
       nuclear repulsion energy       634.5296650371 Hartrees.
 NAtoms=   12 NActive=   12 NUniq=   12 SFac= 1.00D+00 NAtFMM=   60 NAOKFM=F Big=F
 Integral buffers will be    131072 words long.
 Raffenetti 2 integral format.
 Two-electron integral symmetry is turned on.
 Nuclear repulsion after empirical dispersion term =      634.5287104892 Hartrees.
 ------------------------------------------------------------------------------
 Polarizable Continuum Model (PCM)
 =================================
 Model                : PCM.
 Atomic radii         : UFF (Universal Force Field).
 Polarization charges : Total charges.
 Charge compensation  : None.
 Solution method      : On-the-fly selection.
 Cavity type          : Scaled VdW (van der Waals Surface) (Alpha=1.100).
 Cavity algorithm     : GePol (No added spheres)
                        Default sphere list used, NSphG=   12.
                        Lebedev-Laikov grids with approx.  5.0 points / Ang**2.
                        Smoothing algorithm: York/Karplus (Gamma=1.0000).
                        Polarization charges: spherical gaussians, with
                                              point-specific exponents (IZeta= 3).
                        Self-potential: point-specific (ISelfS= 7).
                        Self-field    : sphere-specific E.n sum rule (ISelfD= 2).
 1st derivatives      : Analytical E(r).r(x)/FMM algorithm (CHGder, D1EAlg=3).
                        Cavity 1st derivative terms included.
 Solvent              : TetraHydroFuran, Eps=   7.425700 Eps(inf)=   1.974025
 ------------------------------------------------------------------------------
 Spheres list:
 ISph  on   Nord     Re0    Alpha      Xe            Ye            Ze
    1   S      1    2.0175  1.100     -0.466380      0.577283      0.010655
    2   O      2    1.7500  1.100     -0.751073      1.174971      1.454522
    3   O      3    1.7500  1.100     -0.620096      1.455728     -1.301529
    4   C      4    1.9255  1.100      1.318102     -0.284988      0.003019
    5   F      5    1.6820  1.100      2.248817      0.708849      0.066216
    6   F      6    1.6820  1.100      1.429640     -1.094472      1.087456
    7   F      7    1.6820  1.100      1.474731     -0.993031     -1.143954
    8   O      8    1.7500  1.100     -1.276876     -0.972143     -0.175797
    9   C      9    1.9255  1.100     -2.735462     -0.925634     -0.020131
   10   H     10    1.4430  1.100     -3.043750     -1.956791     -0.192202
   11   H     11    1.4430  1.100     -3.003337     -0.609147      0.992107
   12   H     12    1.4430  1.100     -3.181011     -0.267413     -0.772750
 ------------------------------------------------------------------------------
 One-electron integrals computed using PRISM.
 PrsmSu:  requested number of processors reduced to:   9 ShMem   1 Linda.
 NBasis=   233 RedAO= T EigKep=  4.91D-03  NBF=   233
 NBsUse=   233 1.00D-06 EigRej= -1.00D+00 NBFU=   233
 ExpMin= 7.71D-02 ExpMax= 9.34D+04 ExpMxC= 3.17D+03 IAcc=3 IRadAn=         5 AccDes= 0.00D+00
 Harris functional with IExCor= 1009 and IRadAn=       5 diagonalized for initial guess.
 HarFok:  IExCor= 1009 AccDes= 0.00D+00 IRadAn=         5 IDoV= 1 UseB2=F ITyADJ=14
 ICtDFT=  3500011 ScaDFX=  1.000000  1.000000  1.000000  1.000000
 FoFCou: FMM=F IPFlag=           0 FMFlag=      100000 FMFlg1=           0
         NFxFlg=           0 DoJE=T BraDBF=F KetDBF=T FulRan=T
         wScrn=  0.000000 ICntrl=       500 IOpCl=  0 I1Cent=   200000004 NGrid=           0
         NMat0=    1 NMatS0=      1 NMatT0=    0 NMatD0=    1 NMtDS0=    0 NMtDT0=    0
 Petite list used in FoFCou.
 Requested convergence on RMS density matrix=1.00D-08 within 128 cycles.
 Requested convergence on MAX density matrix=1.00D-06.
 Requested convergence on             energy=1.00D-06.
 No special actions if energy rises.
 Inv3:  Mode=1 IEnd=     5998188.
 Iteration    1 A*A^-1 deviation from unit magnitude is 2.78D-15 for     50.
 Iteration    1 A*A^-1 deviation from orthogonality  is 1.51D-15 for   1271     71.
 Iteration    1 A^-1*A deviation from unit magnitude is 3.22D-15 for    363.
 Iteration    1 A^-1*A deviation from orthogonality  is 1.59D-15 for   1333    527.
 Error on total polarization charges =  0.00454
 SCF Done:  E(RM06) =  -1001.21422486     A.U. after   14 cycles
            NFock= 14  Conv=0.22D-08     -V/T= 2.0032

 **********************************************************************

            Population analysis using the SCF Density.

 **********************************************************************

 Orbital symmetries:
       Occupied  (A) (A) (A) (A) (A) (A) (A) (A) (A) (A) (A) (A)
                 (A) (A) (A) (A) (A) (A) (A) (A) (A) (A) (A) (A)
                 (A) (A) (A) (A) (A) (A) (A) (A) (A) (A) (A) (A)
                 (A) (A) (A) (A) (A)
       Virtual   (A) (A) (A) (A) (A) (A) (A) (A) (A) (A) (A) (A)
                 (A) (A) (A) (A) (A) (A) (A) (A) (A) (A) (A) (A)
                 (A) (A) (A) (A) (A) (A) (A) (A) (A) (A) (A) (A)
                 (A) (A) (A) (A) (A) (A) (A) (A) (A) (A) (A) (A)
                 (A) (A) (A) (A) (A) (A) (A) (A) (A) (A) (A) (A)
                 (A) (A) (A) (A) (A) (A) (A) (A) (A) (A) (A) (A)
                 (A) (A) (A) (A) (A) (A) (A) (A) (A) (A) (A) (A)
                 (A) (A) (A) (A) (A) (A) (A) (A) (A) (A) (A) (A)
                 (A) (A) (A) (A) (A) (A) (A) (A) (A) (A) (A) (A)
                 (A) (A) (A) (A) (A) (A) (A) (A) (A) (A) (A) (A)
                 (A) (A) (A) (A) (A) (A) (A) (A) (A) (A) (A) (A)
                 (A) (A) (A) (A) (A) (A) (A) (A) (A) (A) (A) (A)
                 (A) (A) (A) (A) (A) (A) (A) (A) (A) (A) (A) (A)
                 (A) (A) (A) (A) (A) (A) (A) (A) (A) (A) (A) (A)
                 (A) (A) (A) (A) (A) (A) (A) (A) (A) (A) (A) (A)
                 (A) (A) (A) (A) (A) (A) (A) (A) (A) (A) (A) (A)
 The electronic state is 1-A.
 Alpha  occ. eigenvalues --  -89.30771 -24.86159 -24.86129 -24.85928 -19.29579
 Alpha  occ. eigenvalues --  -19.26748 -19.26698 -10.57156 -10.31094  -8.29592
 Alpha  occ. eigenvalues --   -6.21290  -6.21108  -6.21039  -1.38671  -1.31336
 Alpha  occ. eigenvalues --   -1.31086  -1.13704  -1.06692  -1.03434  -0.80705
 Alpha  occ. eigenvalues --   -0.75056  -0.69350  -0.66071  -0.65909  -0.62295
 Alpha  occ. eigenvalues --   -0.55485  -0.53315  -0.53052  -0.51906  -0.50767
 Alpha  occ. eigenvalues --   -0.49975  -0.49918  -0.48146  -0.47891  -0.46249
 Alpha  occ. eigenvalues --   -0.42882  -0.37568  -0.37316  -0.36492  -0.35908
 Alpha  occ. eigenvalues --   -0.33799
 Alpha virt. eigenvalues --   -0.07887  -0.04557  -0.01187   0.01242   0.05631
 Alpha virt. eigenvalues --    0.08874   0.10011   0.10552   0.11465   0.12377
 Alpha virt. eigenvalues --    0.15344   0.17089   0.19157   0.20428   0.27933
 Alpha virt. eigenvalues --    0.29822   0.31434   0.34089   0.35845   0.39210
 Alpha virt. eigenvalues --    0.42317   0.42519   0.43552   0.49040   0.49966
 Alpha virt. eigenvalues --    0.50867   0.52122   0.55404   0.57710   0.60237
 Alpha virt. eigenvalues --    0.63290   0.65426   0.67601   0.72749   0.74022
 Alpha virt. eigenvalues --    0.79854   0.80138   0.81636   0.82356   0.84717
 Alpha virt. eigenvalues --    0.86405   0.87619   0.88054   0.90501   0.90842
 Alpha virt. eigenvalues --    0.92633   0.95658   0.96711   0.97304   0.98855
 Alpha virt. eigenvalues --    1.01410   1.04193   1.07216   1.08070   1.08678
 Alpha virt. eigenvalues --    1.16752   1.20263   1.23694   1.28994   1.34073
 Alpha virt. eigenvalues --    1.36805   1.39339   1.42195   1.45292   1.46228
 Alpha virt. eigenvalues --    1.46686   1.48081   1.48551   1.50538   1.51988
 Alpha virt. eigenvalues --    1.57607   1.57937   1.65602   1.71591   1.76496
 Alpha virt. eigenvalues --    1.81106   1.82524   1.83667   1.87194   1.87738
 Alpha virt. eigenvalues --    1.88889   1.92189   1.92926   1.94925   1.96203
 Alpha virt. eigenvalues --    1.98894   1.99802   2.00718   2.01736   2.03913
 Alpha virt. eigenvalues --    2.05546   2.07078   2.08052   2.08137   2.11145
 Alpha virt. eigenvalues --    2.16716   2.18168   2.24308   2.24783   2.32616
 Alpha virt. eigenvalues --    2.34685   2.36926   2.38178   2.40231   2.42360
 Alpha virt. eigenvalues --    2.43999   2.46224   2.47798   2.49821   2.58182
 Alpha virt. eigenvalues --    2.63403   2.67884   2.75132   2.83078   2.84994
 Alpha virt. eigenvalues --    3.06788   3.13245   3.22088   3.22675   3.24205
 Alpha virt. eigenvalues --    3.24861   3.26639   3.30720   3.31294   3.35081
 Alpha virt. eigenvalues --    3.56179   3.74816   3.93117   3.93642   4.02263
 Alpha virt. eigenvalues --    4.04720   4.77953   4.81218   4.82984   4.84055
 Alpha virt. eigenvalues --    4.86417   4.93999   5.04860   5.06741   5.39008
 Alpha virt. eigenvalues --    6.05109   6.05836   6.11170   6.12372   6.15818
 Alpha virt. eigenvalues --    6.16172   6.25079   6.55262   6.56667   6.76936
 Alpha virt. eigenvalues --    6.77710   6.78756   6.79766   6.81385   6.88575
 Alpha virt. eigenvalues --    6.90022   6.94500   7.01278   7.03670   7.06568
 Alpha virt. eigenvalues --    7.08104   7.23114   7.26934   7.32873   8.10068
 Alpha virt. eigenvalues --    9.06191   9.07442   9.07619   9.14761   9.15695
 Alpha virt. eigenvalues --    9.16097   9.16292   9.25786   9.25906   9.42763
 Alpha virt. eigenvalues --    9.50986   9.60251   9.60662   9.70754   9.70910
 Alpha virt. eigenvalues --   17.50605  17.53921  17.58048  23.62049  23.84704
 Alpha virt. eigenvalues --   49.71873  49.75295  49.81765  66.67161  66.67909
 Alpha virt. eigenvalues --   66.71423 189.04110
          Condensed to atoms (all electrons):
               1          2          3          4          5          6
     1  S   13.570781   0.459393   0.466281   0.253216   0.000719  -0.005723
     2  O    0.459393   8.118277  -0.015126  -0.016089   0.000417   0.000644
     3  O    0.466281  -0.015126   8.108991  -0.017386   0.000533   0.000142
     4  C    0.253216  -0.016089  -0.017386   4.095045   0.252176   0.256767
     5  F    0.000719   0.000417   0.000533   0.252176   9.106408  -0.035881
     6  F   -0.005723   0.000644   0.000142   0.256767  -0.035881   9.101764
     7  F   -0.005960   0.000143   0.000569   0.254530  -0.036269  -0.033545
     8  O    0.226745  -0.018290  -0.017380  -0.025961   0.000146   0.000992
     9  C   -0.035981   0.000525   0.000071   0.000024   0.000002   0.000030
    10  H    0.001326  -0.000044  -0.000135  -0.000186   0.000001   0.000016
    11  H   -0.009115   0.006717  -0.000557  -0.000039   0.000001  -0.000011
    12  H   -0.008323  -0.001115   0.004528  -0.000078   0.000002  -0.000004
               7          8          9         10         11         12
     1  S   -0.005960   0.226745  -0.035981   0.001326  -0.009115  -0.008323
     2  O    0.000143  -0.018290   0.000525  -0.000044   0.006717  -0.001115
     3  O    0.000569  -0.017380   0.000071  -0.000135  -0.000557   0.004528
     4  C    0.254530  -0.025961   0.000024  -0.000186  -0.000039  -0.000078
     5  F   -0.036269   0.000146   0.000002   0.000001   0.000001   0.000002
     6  F   -0.033545   0.000992   0.000030   0.000016  -0.000011  -0.000004
     7  F    9.103415   0.001340   0.000081   0.000023  -0.000007  -0.000011
     8  O    0.001340   8.231527   0.197717  -0.019757  -0.028167  -0.028114
     9  C    0.000081   0.197717   4.659989   0.397499   0.402003   0.400596
    10  H    0.000023  -0.019757   0.397499   0.516255  -0.024177  -0.024264
    11  H   -0.000007  -0.028167   0.402003  -0.024177   0.549166  -0.034586
    12  H   -0.000011  -0.028114   0.400596  -0.024264  -0.034586   0.551107
 Mulliken charges:
               1
     1  S    1.086642
     2  O   -0.535453
     3  O   -0.530532
     4  C    0.947981
     5  F   -0.288254
     6  F   -0.285193
     7  F   -0.284310
     8  O   -0.520798
     9  C   -0.022556
    10  H    0.153442
    11  H    0.138773
    12  H    0.140260
 Sum of Mulliken charges =  -0.00000
 Mulliken charges with hydrogens summed into heavy atoms:
               1
     1  S    1.086642
     2  O   -0.535453
     3  O   -0.530532
     4  C    0.947981
     5  F   -0.288254
     6  F   -0.285193
     7  F   -0.284310
     8  O   -0.520798
     9  C    0.409918
 Electronic spatial extent (au):  <R**2>=           1269.8914
 Charge=              0.0000 electrons
 Dipole moment (field-independent basis, Debye):
    X=             -1.5791    Y=             -2.9768    Z=             -0.0244  Tot=              3.3698
 Quadrupole moment (field-independent basis, Debye-Ang):
   XX=            -44.7478   YY=            -59.5765   ZZ=            -61.4408
   XY=              4.8998   XZ=              0.3211   YZ=              0.1103
 Traceless Quadrupole moment (field-independent basis, Debye-Ang):
   XX=             10.5072   YY=             -4.3215   ZZ=             -6.1858
   XY=              4.8998   XZ=              0.3211   YZ=              0.1103
 Octapole moment (field-independent basis, Debye-Ang**2):
  XXX=             -9.1374  YYY=            -15.2064  ZZZ=             -0.6240  XYY=              6.3847
  XXY=            -15.5386  XXZ=             -0.8543  XZZ=             10.3642  YZZ=             -7.7902
  YYZ=              0.6062  XYZ=              0.3268
 Hexadecapole moment (field-independent basis, Debye-Ang**3):
 XXXX=           -700.0191 YYYY=           -340.0532 ZZZZ=           -256.4672 XXXY=             23.6866
 XXXZ=              2.7706 YYYX=              8.8006 YYYZ=              3.1119 ZZZX=             -0.4141
 ZZZY=             -1.1097 XXYY=           -175.2516 XXZZ=           -174.8589 YYZZ=           -106.7267
 XXYZ=             -0.2480 YYXZ=              1.2378 ZZXY=              1.4651
 N-N= 6.345287104892D+02 E-N=-3.642518879212D+03  KE= 9.979916659981D+02
 PrsmSu:  requested number of processors reduced to:   9 ShMem   1 Linda.
 D1PCM: PCM CHGder 1st derivatives, ID1Alg=3 FixD1E=F DoIter=F DoCFld=F I1PDM=0.
 CoulSu:  requested number of processors reduced to:   8 ShMem   1 Linda.
 CoulSu:  requested number of processors reduced to:   9 ShMem   1 Linda.
 Calling FoFJK, ICntrl=      2127 FMM=F ISym2X=0 I1Cent= 0 IOpClX= 0 NMat=1 NMatS=1 NMatT=0.
 ***** Axes restored to original set *****
 -------------------------------------------------------------------
 Center     Atomic                   Forces (Hartrees/Bohr)
 Number     Number              X              Y              Z
 -------------------------------------------------------------------
      1       16          -0.042953037    0.048076017    0.004399355
      2        8           0.023196112   -0.047422074   -0.116187212
      3        8           0.012667630   -0.070395198    0.105806435
      4        6           0.023438164   -0.006867564    0.000512484
      5        9          -0.036298441   -0.036599879   -0.002387084
      6        9          -0.006244056    0.030738462   -0.041470945
      7        9          -0.007910448    0.026753487    0.043358470
      8        8           0.016213296    0.051480505    0.007203933
      9        6           0.014604490    0.004893574   -0.000994714
     10        1           0.000352501    0.000892347    0.000271216
     11        1           0.001364409   -0.000367956   -0.001828245
     12        1           0.001569381   -0.001181722    0.001316307
 -------------------------------------------------------------------
 Cartesian Forces:  Max     0.116187212 RMS     0.036746006

 GradGradGradGradGradGradGradGradGradGradGradGradGradGradGradGradGradGrad
 Berny optimization.
 FormGI is forming the generalized inverse of G from B-inverse, IUseBI=4.
 Internal  Forces:  Max     0.127715846 RMS     0.032113283
 Search for a local minimum.
 Step number   1 out of a maximum of   55
 All quantities printed in internal units (Hartrees-Bohrs-Radians)
 Mixed Optimization -- RFO/linear search
 Second derivative matrix not updated -- first step.
 ITU=  0
     Eigenvalues ---    0.00230   0.00522   0.00797   0.08208   0.08851
     Eigenvalues ---    0.09276   0.09944   0.10734   0.11298   0.14350
     Eigenvalues ---    0.15779   0.16000   0.16000   0.16000   0.18743
     Eigenvalues ---    0.25000   0.25000   0.25000   0.25000   0.25000
     Eigenvalues ---    0.29677   0.34284   0.34369   0.34821   0.36028
     Eigenvalues ---    0.52334   0.53388   0.53527   0.53562   0.53910
 RFO step:  Lambda=-8.23721706D-02 EMin= 2.30000000D-03
 Linear search not attempted -- first point.
 Maximum step size (   0.300) exceeded in Quadratic search.
    -- Step size scaled by   0.759
 Iteration  1 RMS(Cart)=  0.07315910 RMS(Int)=  0.00022776
 Iteration  2 RMS(Cart)=  0.00036744 RMS(Int)=  0.00000800
 Iteration  3 RMS(Cart)=  0.00000018 RMS(Int)=  0.00000800
 Variable       Old X    -DE/DX   Delta X   Delta X   Delta X     New X
                                 (Linear)    (Quad)   (Total)
    R1        3.00165  -0.12761   0.00000  -0.15686  -0.15686   2.84479
    R2        2.99813  -0.12772   0.00000  -0.15602  -0.15602   2.84212
    R3        3.74526  -0.03043   0.00000  -0.09619  -0.09619   3.64907
    R4        3.32312  -0.06544   0.00000  -0.13103  -0.13103   3.19209
    R5        2.57581  -0.05158   0.00000  -0.06465  -0.06465   2.51116
    R6        2.56593  -0.05196   0.00000  -0.06401  -0.06401   2.50192
    R7        2.56433  -0.05152   0.00000  -0.06330  -0.06330   2.50103
    R8        2.77337  -0.01778   0.00000  -0.03050  -0.03050   2.74288
    R9        2.05966  -0.00098   0.00000  -0.00174  -0.00174   2.05792
   R10        2.06711  -0.00214   0.00000  -0.00381  -0.00381   2.06330
   R11        2.06854  -0.00225   0.00000  -0.00402  -0.00402   2.06452
    A1        2.12481  -0.00026   0.00000  -0.00137  -0.00138   2.12343
    A2        1.90561  -0.00006   0.00000  -0.00044  -0.00044   1.90516
    A3        1.92337   0.00040   0.00000   0.00191   0.00191   1.92528
    A4        1.90175  -0.00047   0.00000  -0.00171  -0.00171   1.90004
    A5        1.93425   0.00018   0.00000   0.00094   0.00094   1.93519
    A6        1.60204   0.00034   0.00000   0.00125   0.00125   1.60329
    A7        1.87276  -0.00153   0.00000  -0.00277  -0.00278   1.86999
    A8        1.90737  -0.00253   0.00000  -0.00612  -0.00614   1.90123
    A9        1.91155  -0.00264   0.00000  -0.00644  -0.00646   1.90509
   A10        1.91937   0.00237   0.00000   0.00624   0.00623   1.92560
   A11        1.91858   0.00235   0.00000   0.00604   0.00603   1.92461
   A12        1.93318   0.00181   0.00000   0.00274   0.00270   1.93589
   A13        2.00303  -0.01496   0.00000  -0.03418  -0.03418   1.96885
   A14        1.80738   0.00036   0.00000   0.00133   0.00133   1.80872
   A15        1.92912  -0.00121   0.00000  -0.00394  -0.00394   1.92518
   A16        1.92907  -0.00090   0.00000  -0.00290  -0.00291   1.92617
   A17        1.92896   0.00052   0.00000   0.00178   0.00178   1.93074
   A18        1.92327   0.00053   0.00000   0.00193   0.00193   1.92520
   A19        1.94184   0.00067   0.00000   0.00173   0.00172   1.94356
    D1       -1.24122   0.00044   0.00000   0.00216   0.00216  -1.23907
    D2        0.83936   0.00100   0.00000   0.00463   0.00463   0.84399
    D3        2.96001  -0.00002   0.00000   0.00011   0.00012   2.96013
    D4        1.11699  -0.00035   0.00000  -0.00149  -0.00149   1.11550
    D5       -3.08561   0.00021   0.00000   0.00098   0.00098  -3.08463
    D6       -0.96496  -0.00081   0.00000  -0.00354  -0.00353  -0.96849
    D7        3.08497  -0.00011   0.00000  -0.00031  -0.00031   3.08467
    D8       -1.11763   0.00045   0.00000   0.00217   0.00216  -1.11546
    D9        1.00302  -0.00057   0.00000  -0.00235  -0.00234   1.00067
   D10        1.04037   0.00014   0.00000   0.00120   0.00120   1.04157
   D11       -1.36308  -0.00005   0.00000   0.00042   0.00042  -1.36266
   D12        2.98136   0.00028   0.00000   0.00157   0.00157   2.98293
   D13        3.11883   0.00023   0.00000   0.00167   0.00167   3.12050
   D14       -1.09820   0.00045   0.00000   0.00262   0.00261  -1.09559
   D15        1.05935  -0.00016   0.00000   0.00005   0.00005   1.05940
         Item               Value     Threshold  Converged?
 Maximum Force            0.127716     0.000450     NO 
 RMS     Force            0.032113     0.000300     NO 
 Maximum Displacement     0.170511     0.001800     NO 
 RMS     Displacement     0.073096     0.001200     NO 
 Predicted change in Energy=-4.250724D-02
 GradGradGradGradGradGradGradGradGradGradGradGradGradGradGradGradGradGrad

                          Input orientation:                          
 ---------------------------------------------------------------------
 Center     Atomic      Atomic             Coordinates (Angstroms)
 Number     Number       Type             X           Y           Z
 ---------------------------------------------------------------------
      1         16           0       -0.482040    0.532898    0.008562
      2          8           0       -0.762485    1.094693    1.376758
      3          8           0       -0.635677    1.366435   -1.233845
      4          6           0        1.270381   -0.278131    0.003529
      5          9           0        2.158586    0.708096    0.069032
      6          9           0        1.381241   -1.067903    1.060335
      7          9           0        1.428325   -0.963790   -1.117430
      8          8           0       -1.237129   -0.966865   -0.175521
      9          6           0       -2.678257   -0.894239   -0.018574
     10          1           0       -3.006624   -1.918986   -0.185908
     11          1           0       -2.933406   -0.568796    0.991935
     12          1           0       -3.109612   -0.230200   -0.771260
 ---------------------------------------------------------------------
                    Distance matrix (angstroms):
                    1          2          3          4          5
     1  S    0.000000
     2  O    1.505399   0.000000
     3  O    1.503983   2.627770   0.000000
     4  C    1.931003   2.811218   2.805129   0.000000
     5  F    2.647123   3.223703   3.152588   1.328850   0.000000
     6  F    2.672192   3.061455   3.906050   1.323960   2.177411
     7  F    2.675337   3.906146   3.115061   1.323489   2.176275
     8  O    1.689182   2.623906   2.631746   2.606534   3.794230
     9  C    2.619317   3.094024   3.280192   3.996476   5.096097
    10  H    3.524638   4.069440   4.184920   4.584874   5.800513
    11  H    2.861808   2.761916   3.738820   4.328194   5.330159
    12  H    2.845096   3.446495   2.980534   4.448251   5.416678
                    6          7          8          9         10
     6  F    0.000000
     7  F    2.180760   0.000000
     8  O    2.897138   2.826985   0.000000
     9  C    4.204013   4.251628   1.451467   0.000000
    10  H    4.640132   4.631296   2.009416   1.089005   0.000000
    11  H    4.343958   4.861084   2.097325   1.091853   1.793234
    12  H    4.921813   4.609866   2.098517   1.092497   1.790319
                   11         12
    11  H    0.000000
    12  H    1.804037   0.000000
 Stoichiometry    C2H3F3O3S
 Framework group  C1[X(C2H3F3O3S)]
 Deg. of freedom    30
 Full point group                 C1      NOp   1
 Largest Abelian subgroup         C1      NOp   1
 Largest concise Abelian subgroup C1      NOp   1
                         Standard orientation:                         
 ---------------------------------------------------------------------
 Center     Atomic      Atomic             Coordinates (Angstroms)
 Number     Number       Type             X           Y           Z
 ---------------------------------------------------------------------
      1         16           0       -0.461294    0.548597    0.009587
      2          8           0       -0.739404    1.111461    1.377822
      3          8           0       -0.613396    1.382269   -1.232918
      4          6           0        1.288912   -0.267196    0.003707
      5          9           0        2.179834    0.716625    0.068463
      6          9           0        1.398246   -1.057029    1.060627
      7          9           0        1.444330   -0.953535   -1.117189
      8          8           0       -1.220567   -0.949148   -0.173711
      9          6           0       -2.661400   -0.872566   -0.015932
     10          1           0       -2.992652   -1.896454   -0.182840
     11          1           0       -2.915068   -0.546203    0.994653
     12          1           0       -3.091391   -0.207527   -0.768514
 ---------------------------------------------------------------------
 Rotational constants (GHZ):           2.1224137           1.1336775           1.0529379
 Standard basis: 6-311G(2d,p) (5D, 7F)
 There are   251 symmetry adapted cartesian basis functions of A   symmetry.
 There are   233 symmetry adapted basis functions of A   symmetry.
   233 basis functions,   380 primitive gaussians,   251 cartesian basis functions
    41 alpha electrons       41 beta electrons
       nuclear repulsion energy       656.2631285558 Hartrees.
 NAtoms=   12 NActive=   12 NUniq=   12 SFac= 1.00D+00 NAtFMM=   60 NAOKFM=F Big=F
 Integral buffers will be    131072 words long.
 Raffenetti 2 integral format.
 Two-electron integral symmetry is turned on.
 Nuclear repulsion after empirical dispersion term =      656.2622150971 Hartrees.
 ------------------------------------------------------------------------------
 Polarizable Continuum Model (PCM)
 =================================
 Model                : PCM.
 Atomic radii         : UFF (Universal Force Field).
 Polarization charges : Total charges.
 Charge compensation  : None.
 Solution method      : On-the-fly selection.
 Cavity type          : Scaled VdW (van der Waals Surface) (Alpha=1.100).
 Cavity algorithm     : GePol (No added spheres)
                        Default sphere list used, NSphG=   12.
                        Lebedev-Laikov grids with approx.  5.0 points / Ang**2.
                        Smoothing algorithm: York/Karplus (Gamma=1.0000).
                        Polarization charges: spherical gaussians, with
                                              point-specific exponents (IZeta= 3).
                        Self-potential: point-specific (ISelfS= 7).
                        Self-field    : sphere-specific E.n sum rule (ISelfD= 2).
 1st derivatives      : Analytical E(r).r(x)/FMM algorithm (CHGder, D1EAlg=3).
                        Cavity 1st derivative terms included.
 Solvent              : TetraHydroFuran, Eps=   7.425700 Eps(inf)=   1.974025
 ------------------------------------------------------------------------------
 Spheres list:
 ISph  on   Nord     Re0    Alpha      Xe            Ye            Ze
    1   S      1    2.0175  1.100     -0.461294      0.548597      0.009587
    2   O      2    1.7500  1.100     -0.739404      1.111461      1.377822
    3   O      3    1.7500  1.100     -0.613396      1.382269     -1.232918
    4   C      4    1.9255  1.100      1.288912     -0.267196      0.003707
    5   F      5    1.6820  1.100      2.179834      0.716625      0.068463
    6   F      6    1.6820  1.100      1.398246     -1.057029      1.060627
    7   F      7    1.6820  1.100      1.444330     -0.953535     -1.117189
    8   O      8    1.7500  1.100     -1.220567     -0.949148     -0.173711
    9   C      9    1.9255  1.100     -2.661400     -0.872566     -0.015932
   10   H     10    1.4430  1.100     -2.992652     -1.896454     -0.182840
   11   H     11    1.4430  1.100     -2.915068     -0.546203      0.994653
   12   H     12    1.4430  1.100     -3.091391     -0.207527     -0.768514
 ------------------------------------------------------------------------------
 One-electron integrals computed using PRISM.
 PrsmSu:  requested number of processors reduced to:   9 ShMem   1 Linda.
 NBasis=   233 RedAO= T EigKep=  3.91D-03  NBF=   233
 NBsUse=   233 1.00D-06 EigRej= -1.00D+00 NBFU=   233
 Initial guess from the checkpoint file:  "Me-NCNPtPh.chk"
 B after Tr=     0.000000    0.000000   -0.000000
         Rot=    0.999997   -0.000379    0.000206   -0.002318 Ang=  -0.27 deg.
 ExpMin= 7.71D-02 ExpMax= 9.34D+04 ExpMxC= 3.17D+03 IAcc=3 IRadAn=         5 AccDes= 0.00D+00
 Harris functional with IExCor= 1009 and IRadAn=       5 diagonalized for initial guess.
 HarFok:  IExCor= 1009 AccDes= 0.00D+00 IRadAn=         5 IDoV= 1 UseB2=F ITyADJ=14
 ICtDFT=  3500011 ScaDFX=  1.000000  1.000000  1.000000  1.000000
 FoFCou: FMM=F IPFlag=           0 FMFlag=      100000 FMFlg1=           0
         NFxFlg=           0 DoJE=T BraDBF=F KetDBF=T FulRan=T
         wScrn=  0.000000 ICntrl=       500 IOpCl=  0 I1Cent=   200000004 NGrid=           0
         NMat0=    1 NMatS0=      1 NMatT0=    0 NMatD0=    1 NMtDS0=    0 NMtDT0=    0
 Petite list used in FoFCou.
 Requested convergence on RMS density matrix=1.00D-08 within 128 cycles.
 Requested convergence on MAX density matrix=1.00D-06.
 Requested convergence on             energy=1.00D-06.
 No special actions if energy rises.
 Inv3:  Mode=1 IEnd=     5589675.
 Iteration    1 A*A^-1 deviation from unit magnitude is 2.89D-15 for    253.
 Iteration    1 A*A^-1 deviation from orthogonality  is 1.72D-15 for   1211      1.
 Iteration    1 A^-1*A deviation from unit magnitude is 2.89D-15 for    239.
 Iteration    1 A^-1*A deviation from orthogonality  is 1.33D-15 for   1176     87.
 Error on total polarization charges =  0.00452
 SCF Done:  E(RM06) =  -1001.26542377     A.U. after   12 cycles
            NFock= 12  Conv=0.45D-08     -V/T= 2.0026
 PrsmSu:  requested number of processors reduced to:   9 ShMem   1 Linda.
 D1PCM: PCM CHGder 1st derivatives, ID1Alg=3 FixD1E=F DoIter=F DoCFld=F I1PDM=0.
 CoulSu:  requested number of processors reduced to:   9 ShMem   1 Linda.
 CoulSu:  requested number of processors reduced to:   9 ShMem   1 Linda.
 Calling FoFJK, ICntrl=      2127 FMM=F ISym2X=0 I1Cent= 0 IOpClX= 0 NMat=1 NMatS=1 NMatT=0.
 ***** Axes restored to original set *****
 -------------------------------------------------------------------
 Center     Atomic                   Forces (Hartrees/Bohr)
 Number     Number              X              Y              Z
 -------------------------------------------------------------------
      1       16          -0.023581982    0.020413917    0.001917342
      2        8           0.014683756   -0.029576873   -0.074331881
      3        8           0.007540353   -0.044572207    0.067329442
      4        6          -0.000443473    0.004108972    0.000594245
      5        9          -0.012898789   -0.014301501   -0.000952987
      6        9          -0.001794236    0.011244552   -0.015803927
      7        9          -0.002506473    0.009689442    0.016334379
      8        8           0.014060241    0.044100968    0.005869757
      9        6           0.006565209   -0.001813758   -0.001193598
     10        1          -0.001737199    0.001284334    0.000491601
     11        1           0.000031839   -0.000167201   -0.000712410
     12        1           0.000080754   -0.000410645    0.000458037
 -------------------------------------------------------------------
 Cartesian Forces:  Max     0.074331881 RMS     0.022070142

 GradGradGradGradGradGradGradGradGradGradGradGradGradGradGradGradGradGrad
 Berny optimization.
 Using GEDIIS/GDIIS optimizer.
 FormGI is forming the generalized inverse of G from B-inverse, IUseBI=4.
 Internal  Forces:  Max     0.081327260 RMS     0.019470277
 Search for a local minimum.
 Step number   2 out of a maximum of   55
 All quantities printed in internal units (Hartrees-Bohrs-Radians)
 Mixed Optimization -- RFO/linear search
 Update second derivatives using D2CorX and points    1    2
 DE= -5.12D-02 DEPred=-4.25D-02 R= 1.20D+00
 TightC=F SS=  1.41D+00  RLast= 3.00D-01 DXNew= 5.0454D-01 9.0033D-01
 Trust test= 1.20D+00 RLast= 3.00D-01 DXMaxT set to 5.05D-01
 ITU=  1  0
 Use linear search instead of GDIIS.
     Eigenvalues ---    0.00230   0.00522   0.00797   0.08239   0.08965
     Eigenvalues ---    0.09336   0.09980   0.10739   0.11291   0.14099
     Eigenvalues ---    0.15215   0.15999   0.16000   0.16075   0.18746
     Eigenvalues ---    0.22935   0.25000   0.25000   0.25000   0.25085
     Eigenvalues ---    0.26181   0.34288   0.34372   0.34820   0.36295
     Eigenvalues ---    0.39637   0.52655   0.53476   0.53722   0.57695
 RFO step:  Lambda=-6.45109361D-03 EMin= 2.29999170D-03
 Quartic linear search produced a step of  0.92658.
 Iteration  1 RMS(Cart)=  0.06805690 RMS(Int)=  0.00088973
 Iteration  2 RMS(Cart)=  0.00200326 RMS(Int)=  0.00018247
 Iteration  3 RMS(Cart)=  0.00000163 RMS(Int)=  0.00018246
 Iteration  4 RMS(Cart)=  0.00000000 RMS(Int)=  0.00018246
 Variable       Old X    -DE/DX   Delta X   Delta X   Delta X     New X
                                 (Linear)    (Quad)   (Total)
    R1        2.84479  -0.08133  -0.14534  -0.04523  -0.19057   2.65422
    R2        2.84212  -0.08110  -0.14456  -0.04420  -0.18876   2.65336
    R3        3.64907  -0.02052  -0.08913   0.01188  -0.07724   3.57183
    R4        3.19209  -0.04720  -0.12141  -0.04801  -0.16942   3.02267
    R5        2.51116  -0.01928  -0.05990   0.03106  -0.02884   2.48232
    R6        2.50192  -0.01947  -0.05931   0.03017  -0.02914   2.47278
    R7        2.50103  -0.01916  -0.05865   0.03029  -0.02836   2.47267
    R8        2.74288  -0.00507  -0.02826   0.02756  -0.00070   2.74217
    R9        2.05792  -0.00076  -0.00161  -0.00100  -0.00261   2.05532
   R10        2.06330  -0.00072  -0.00353   0.00291  -0.00062   2.06268
   R11        2.06452  -0.00059  -0.00373   0.00402   0.00029   2.06481
    A1        2.12343  -0.00053  -0.00128  -0.01538  -0.01695   2.10648
    A2        1.90516  -0.00020  -0.00041   0.00576   0.00536   1.91053
    A3        1.92528  -0.00147   0.00177  -0.01399  -0.01288   1.91240
    A4        1.90004  -0.00046  -0.00158   0.00587   0.00439   1.90443
    A5        1.93519  -0.00186   0.00087  -0.01745  -0.01718   1.91801
    A6        1.60329   0.00640   0.00116   0.05519   0.05609   1.65938
    A7        1.86999   0.00014  -0.00257   0.00615   0.00357   1.87355
    A8        1.90123  -0.00001  -0.00569   0.01318   0.00744   1.90867
    A9        1.90509  -0.00028  -0.00598   0.01149   0.00546   1.91055
   A10        1.92560   0.00017   0.00577  -0.01198  -0.00622   1.91938
   A11        1.92461   0.00019   0.00559  -0.01205  -0.00647   1.91813
   A12        1.93589  -0.00020   0.00250  -0.00575  -0.00332   1.93257
   A13        1.96885  -0.00148  -0.03167   0.05970   0.02803   1.99687
   A14        1.80872   0.00334   0.00123   0.03665   0.03774   1.84646
   A15        1.92518  -0.00036  -0.00365   0.00535   0.00159   1.92677
   A16        1.92617  -0.00031  -0.00269   0.00307   0.00029   1.92646
   A17        1.93074  -0.00100   0.00165  -0.01448  -0.01299   1.91775
   A18        1.92520  -0.00099   0.00179  -0.01494  -0.01328   1.91192
   A19        1.94356  -0.00046   0.00159  -0.01249  -0.01095   1.93262
    D1       -1.23907   0.00071   0.00200   0.00805   0.01020  -1.22886
    D2        0.84399   0.00099   0.00429   0.00449   0.00892   0.85291
    D3        2.96013   0.00057   0.00011   0.01258   0.01286   2.97299
    D4        1.11550  -0.00054  -0.00138  -0.00298  -0.00451   1.11099
    D5       -3.08463  -0.00027   0.00091  -0.00654  -0.00579  -3.09042
    D6       -0.96849  -0.00069  -0.00327   0.00156  -0.00185  -0.97034
    D7        3.08467  -0.00016  -0.00028   0.00059   0.00029   3.08496
    D8       -1.11546   0.00011   0.00201  -0.00297  -0.00099  -1.11645
    D9        1.00067  -0.00031  -0.00217   0.00512   0.00295   1.00363
   D10        1.04157  -0.00180   0.00111  -0.00964  -0.00819   1.03337
   D11       -1.36266   0.00220   0.00039   0.04315   0.04314  -1.31952
   D12        2.98293   0.00034   0.00146   0.01670   0.01823   3.00116
   D13        3.12050   0.00010   0.00155  -0.01545  -0.01392   3.10658
   D14       -1.09559   0.00061   0.00242  -0.00958  -0.00707  -1.10266
   D15        1.05940  -0.00044   0.00005  -0.01963  -0.01966   1.03974
         Item               Value     Threshold  Converged?
 Maximum Force            0.081327     0.000450     NO 
 RMS     Force            0.019470     0.000300     NO 
 Maximum Displacement     0.224901     0.001800     NO 
 RMS     Displacement     0.067792     0.001200     NO 
 Predicted change in Energy=-2.889672D-02
 GradGradGradGradGradGradGradGradGradGradGradGradGradGradGradGradGradGrad

                          Input orientation:                          
 ---------------------------------------------------------------------
 Center     Atomic      Atomic             Coordinates (Angstroms)
 Number     Number       Type             X           Y           Z
 ---------------------------------------------------------------------
      1         16           0       -0.478507    0.471499    0.010657
      2          8           0       -0.757357    1.003589    1.280260
      3          8           0       -0.655051    1.247422   -1.146175
      4          6           0        1.263368   -0.262266    0.003947
      5          9           0        2.110666    0.739711    0.064260
      6          9           0        1.411857   -1.036640    1.048249
      7          9           0        1.448434   -0.936091   -1.102323
      8          8           0       -1.224522   -0.933413   -0.157192
      9          6           0       -2.667503   -0.866470   -0.019349
     10          1           0       -3.028682   -1.877596   -0.192859
     11          1           0       -2.938882   -0.543016    0.987209
     12          1           0       -3.090514   -0.193518   -0.769071
 ---------------------------------------------------------------------
                    Distance matrix (angstroms):
                    1          2          3          4          5
     1  S    0.000000
     2  O    1.404554   0.000000
     3  O    1.404095   2.440801   0.000000
     4  C    1.890129   2.704570   2.698569   0.000000
     5  F    2.603580   3.126315   3.061391   1.313586   0.000000
     6  F    2.631456   2.986947   3.782135   1.308538   2.147555
     7  F    2.633085   3.782139   3.032211   1.308481   2.146574
     8  O    1.599528   2.456927   2.461387   2.581860   3.737895
     9  C    2.565690   2.972333   3.128616   3.977104   5.041598
    10  H    3.473191   3.953508   4.038400   4.590177   5.773153
    11  H    2.834843   2.690151   3.601788   4.324873   5.291044
    12  H    2.805851   3.328129   2.854819   4.422508   5.349544
                    6          7          8          9         10
     6  F    0.000000
     7  F    2.153232   0.000000
     8  O    2.900730   2.835132   0.000000
     9  C    4.220178   4.256597   1.451095   0.000000
    10  H    4.686783   4.664560   2.036602   1.087627   0.000000
    11  H    4.379077   4.875366   2.097878   1.091525   1.783740
    12  H    4.927966   4.611347   2.098516   1.092651   1.781000
                   11         12
    11  H    0.000000
    12  H    1.797126   0.000000
 Stoichiometry    C2H3F3O3S
 Framework group  C1[X(C2H3F3O3S)]
 Deg. of freedom    30
 Full point group                 C1      NOp   1
 Largest Abelian subgroup         C1      NOp   1
 Largest concise Abelian subgroup C1      NOp   1
                         Standard orientation:                         
 ---------------------------------------------------------------------
 Center     Atomic      Atomic             Coordinates (Angstroms)
 Number     Number       Type             X           Y           Z
 ---------------------------------------------------------------------
      1         16           0       -0.454656    0.505893    0.008424
      2          8           0       -0.724938    1.048707    1.275338
      3          8           0       -0.624987    1.276728   -1.152733
      4          6           0        1.278950   -0.247209    0.002651
      5          9           0        2.137440    0.745637    0.055180
      6          9           0        1.421010   -1.016864    1.051328
      7          9           0        1.454221   -0.929719   -1.099883
      8          8           0       -1.216566   -0.891632   -0.149399
      9          6           0       -2.658425   -0.807828   -0.009056
     10          1           0       -3.031165   -1.815908   -0.175703
     11          1           0       -2.924099   -0.475305    0.996068
     12          1           0       -3.075502   -0.134758   -0.761990
 ---------------------------------------------------------------------
 Rotational constants (GHZ):           2.3368327           1.1630079           1.0886156
 Standard basis: 6-311G(2d,p) (5D, 7F)
 There are   251 symmetry adapted cartesian basis functions of A   symmetry.
 There are   233 symmetry adapted basis functions of A   symmetry.
   233 basis functions,   380 primitive gaussians,   251 cartesian basis functions
    41 alpha electrons       41 beta electrons
       nuclear repulsion energy       675.6223633109 Hartrees.
 NAtoms=   12 NActive=   12 NUniq=   12 SFac= 1.00D+00 NAtFMM=   60 NAOKFM=F Big=F
 Integral buffers will be    131072 words long.
 Raffenetti 2 integral format.
 Two-electron integral symmetry is turned on.
 Nuclear repulsion after empirical dispersion term =      675.6214876906 Hartrees.
 ------------------------------------------------------------------------------
 Polarizable Continuum Model (PCM)
 =================================
 Model                : PCM.
 Atomic radii         : UFF (Universal Force Field).
 Polarization charges : Total charges.
 Charge compensation  : None.
 Solution method      : On-the-fly selection.
 Cavity type          : Scaled VdW (van der Waals Surface) (Alpha=1.100).
 Cavity algorithm     : GePol (No added spheres)
                        Default sphere list used, NSphG=   12.
                        Lebedev-Laikov grids with approx.  5.0 points / Ang**2.
                        Smoothing algorithm: York/Karplus (Gamma=1.0000).
                        Polarization charges: spherical gaussians, with
                                              point-specific exponents (IZeta= 3).
                        Self-potential: point-specific (ISelfS= 7).
                        Self-field    : sphere-specific E.n sum rule (ISelfD= 2).
 1st derivatives      : Analytical E(r).r(x)/FMM algorithm (CHGder, D1EAlg=3).
                        Cavity 1st derivative terms included.
 Solvent              : TetraHydroFuran, Eps=   7.425700 Eps(inf)=   1.974025
 ------------------------------------------------------------------------------
 Spheres list:
 ISph  on   Nord     Re0    Alpha      Xe            Ye            Ze
    1   S      1    2.0175  1.100     -0.454656      0.505893      0.008424
    2   O      2    1.7500  1.100     -0.724938      1.048707      1.275338
    3   O      3    1.7500  1.100     -0.624987      1.276728     -1.152733
    4   C      4    1.9255  1.100      1.278950     -0.247209      0.002651
    5   F      5    1.6820  1.100      2.137440      0.745637      0.055180
    6   F      6    1.6820  1.100      1.421010     -1.016864      1.051328
    7   F      7    1.6820  1.100      1.454221     -0.929719     -1.099883
    8   O      8    1.7500  1.100     -1.216566     -0.891632     -0.149399
    9   C      9    1.9255  1.100     -2.658425     -0.807828     -0.009056
   10   H     10    1.4430  1.100     -3.031165     -1.815908     -0.175703
   11   H     11    1.4430  1.100     -2.924099     -0.475305      0.996068
   12   H     12    1.4430  1.100     -3.075502     -0.134758     -0.761990
 ------------------------------------------------------------------------------
 One-electron integrals computed using PRISM.
 PrsmSu:  requested number of processors reduced to:   9 ShMem   1 Linda.
 NBasis=   233 RedAO= T EigKep=  3.07D-03  NBF=   233
 NBsUse=   233 1.00D-06 EigRej= -1.00D+00 NBFU=   233
 Initial guess from the checkpoint file:  "Me-NCNPtPh.chk"
 B after Tr=     0.000000    0.000000   -0.000000
         Rot=    0.999990    0.003662   -0.001481   -0.001922 Ang=   0.50 deg.
 ExpMin= 7.71D-02 ExpMax= 9.34D+04 ExpMxC= 3.17D+03 IAcc=3 IRadAn=         5 AccDes= 0.00D+00
 Harris functional with IExCor= 1009 and IRadAn=       5 diagonalized for initial guess.
 HarFok:  IExCor= 1009 AccDes= 0.00D+00 IRadAn=         5 IDoV= 1 UseB2=F ITyADJ=14
 ICtDFT=  3500011 ScaDFX=  1.000000  1.000000  1.000000  1.000000
 FoFCou: FMM=F IPFlag=           0 FMFlag=      100000 FMFlg1=           0
         NFxFlg=           0 DoJE=T BraDBF=F KetDBF=T FulRan=T
         wScrn=  0.000000 ICntrl=       500 IOpCl=  0 I1Cent=   200000004 NGrid=           0
         NMat0=    1 NMatS0=      1 NMatT0=    0 NMatD0=    1 NMtDS0=    0 NMtDT0=    0
 Petite list used in FoFCou.
 Requested convergence on RMS density matrix=1.00D-08 within 128 cycles.
 Requested convergence on MAX density matrix=1.00D-06.
 Requested convergence on             energy=1.00D-06.
 No special actions if energy rises.
 Inv3:  Mode=1 IEnd=     5435148.
 Iteration    1 A*A^-1 deviation from unit magnitude is 2.66D-15 for    241.
 Iteration    1 A*A^-1 deviation from orthogonality  is 1.64D-15 for   1332    375.
 Iteration    1 A^-1*A deviation from unit magnitude is 2.89D-15 for    728.
 Iteration    1 A^-1*A deviation from orthogonality  is 1.55D-15 for   1210    196.
 Error on total polarization charges =  0.00436
 SCF Done:  E(RM06) =  -1001.28441822     A.U. after   11 cycles
            NFock= 11  Conv=0.35D-08     -V/T= 2.0017
 PrsmSu:  requested number of processors reduced to:   9 ShMem   1 Linda.
 D1PCM: PCM CHGder 1st derivatives, ID1Alg=3 FixD1E=F DoIter=F DoCFld=F I1PDM=0.
 CoulSu:  requested number of processors reduced to:   9 ShMem   1 Linda.
 CoulSu:  requested number of processors reduced to:   9 ShMem   1 Linda.
 Calling FoFJK, ICntrl=      2127 FMM=F ISym2X=0 I1Cent= 0 IOpClX= 0 NMat=1 NMatS=1 NMatT=0.
 ***** Axes restored to original set *****
 -------------------------------------------------------------------
 Center     Atomic                   Forces (Hartrees/Bohr)
 Number     Number              X              Y              Z
 -------------------------------------------------------------------
      1       16           0.004729413   -0.043431099   -0.003812254
      2        8          -0.001879518    0.013087249    0.031261566
      3        8           0.000391010    0.018469618   -0.028108390
      4        6          -0.013199038    0.006472899    0.000080443
      5        9          -0.000063096    0.001222095    0.000153699
      6        9           0.000237144   -0.001712642    0.000593299
      7        9           0.000340039   -0.001655167   -0.000969000
      8        8           0.003423739    0.007093982    0.001413220
      9        6           0.001739691    0.000336907   -0.000475078
     10        1           0.001750706   -0.000040513   -0.000111923
     11        1           0.001295098    0.000191676   -0.000297526
     12        1           0.001234812   -0.000035005    0.000271944
 -------------------------------------------------------------------
 Cartesian Forces:  Max     0.043431099 RMS     0.011186902

 GradGradGradGradGradGradGradGradGradGradGradGradGradGradGradGradGradGrad
 Berny optimization.
 Using GEDIIS/GDIIS optimizer.
 FormGI is forming the generalized inverse of G from B-inverse, IUseBI=4.
 Internal  Forces:  Max     0.033590664 RMS     0.007863195
 Search for a local minimum.
 Step number   3 out of a maximum of   55
 All quantities printed in internal units (Hartrees-Bohrs-Radians)
 Mixed Optimization -- RFO/linear search
 Update second derivatives using D2CorX and points    2    3
 DE= -1.90D-02 DEPred=-2.89D-02 R= 6.57D-01
 TightC=F SS=  1.41D+00  RLast= 3.45D-01 DXNew= 8.4853D-01 1.0359D+00
 Trust test= 6.57D-01 RLast= 3.45D-01 DXMaxT set to 8.49D-01
 ITU=  1  1  0
 Use linear search instead of GDIIS.
     Eigenvalues ---    0.00230   0.00522   0.00797   0.08252   0.08850
     Eigenvalues ---    0.09266   0.09967   0.10523   0.10810   0.15023
     Eigenvalues ---    0.15490   0.15999   0.16000   0.16139   0.19143
     Eigenvalues ---    0.24880   0.25000   0.25000   0.25022   0.25274
     Eigenvalues ---    0.27356   0.34288   0.34372   0.34820   0.36338
     Eigenvalues ---    0.52654   0.53476   0.53717   0.56626   0.64868
 RFO step:  Lambda=-4.35709098D-03 EMin= 2.30000688D-03
 Quartic linear search produced a step of -0.15575.
 Iteration  1 RMS(Cart)=  0.04595486 RMS(Int)=  0.00066756
 Iteration  2 RMS(Cart)=  0.00080221 RMS(Int)=  0.00022956
 Iteration  3 RMS(Cart)=  0.00000070 RMS(Int)=  0.00022956
 Variable       Old X    -DE/DX   Delta X   Delta X   Delta X     New X
                                 (Linear)    (Quad)   (Total)
    R1        2.65422   0.03359   0.02968   0.01262   0.04230   2.69652
    R2        2.65336   0.03331   0.02940   0.01227   0.04167   2.69503
    R3        3.57183  -0.01337   0.01203  -0.10270  -0.09066   3.48116
    R4        3.02267  -0.01112   0.02639  -0.07576  -0.04937   2.97330
    R5        2.48232   0.00090   0.00449  -0.00588  -0.00139   2.48093
    R6        2.47278   0.00152   0.00454  -0.00490  -0.00036   2.47241
    R7        2.47267   0.00172   0.00442  -0.00442  -0.00000   2.47267
    R8        2.74217  -0.00602   0.00011  -0.01556  -0.01545   2.72673
    R9        2.05532  -0.00053   0.00041  -0.00188  -0.00148   2.05384
   R10        2.06268  -0.00054   0.00010  -0.00164  -0.00154   2.06114
   R11        2.06481  -0.00068  -0.00005  -0.00180  -0.00185   2.06296
    A1        2.10648   0.00272   0.00264   0.00705   0.00859   2.11507
    A2        1.91053  -0.00352  -0.00084  -0.02218  -0.02310   1.88743
    A3        1.91240   0.00454   0.00201   0.02462   0.02623   1.93863
    A4        1.90443  -0.00353  -0.00068  -0.02338  -0.02419   1.88024
    A5        1.91801   0.00402   0.00268   0.01936   0.02159   1.93959
    A6        1.65938  -0.00648  -0.00874  -0.01019  -0.01880   1.64058
    A7        1.87355  -0.00151  -0.00056  -0.00352  -0.00407   1.86948
    A8        1.90867   0.00070  -0.00116   0.00309   0.00193   1.91060
    A9        1.91055   0.00074  -0.00085   0.00275   0.00191   1.91246
   A10        1.91938   0.00058   0.00097   0.00185   0.00283   1.92220
   A11        1.91813   0.00060   0.00101   0.00186   0.00288   1.92101
   A12        1.93257  -0.00110   0.00052  -0.00592  -0.00539   1.92718
   A13        1.99687  -0.00108  -0.00437   0.00028  -0.00409   1.99278
   A14        1.84646  -0.00197  -0.00588   0.00089  -0.00498   1.84148
   A15        1.92677  -0.00123  -0.00025  -0.00672  -0.00698   1.91979
   A16        1.92646  -0.00092  -0.00005  -0.00527  -0.00532   1.92114
   A17        1.91775   0.00152   0.00202   0.00485   0.00688   1.92463
   A18        1.91192   0.00149   0.00207   0.00491   0.00698   1.91890
   A19        1.93262   0.00103   0.00171   0.00145   0.00314   1.93575
    D1       -1.22886   0.00125  -0.00159   0.03170   0.02999  -1.19888
    D2        0.85291   0.00145  -0.00139   0.03359   0.03208   0.88499
    D3        2.97299   0.00100  -0.00200   0.02998   0.02785   3.00084
    D4        1.11099  -0.00092   0.00070   0.00354   0.00435   1.11535
    D5       -3.09042  -0.00072   0.00090   0.00544   0.00645  -3.08397
    D6       -0.97034  -0.00117   0.00029   0.00182   0.00221  -0.96812
    D7        3.08496  -0.00010  -0.00005   0.01463   0.01460   3.09956
    D8       -1.11645   0.00010   0.00015   0.01652   0.01669  -1.09976
    D9        1.00363  -0.00035  -0.00046   0.01291   0.01246   1.01609
   D10        1.03337   0.00561   0.00128   0.07519   0.07707   1.11044
   D11       -1.31952  -0.00549  -0.00672   0.02763   0.02034  -1.29918
   D12        3.00116   0.00015  -0.00284   0.05276   0.04990   3.05105
   D13        3.10658   0.00009   0.00217  -0.01932  -0.01715   3.08943
   D14       -1.10266   0.00010   0.00110  -0.01658  -0.01550  -1.11816
   D15        1.03974  -0.00007   0.00306  -0.02291  -0.01983   1.01991
         Item               Value     Threshold  Converged?
 Maximum Force            0.033591     0.000450     NO 
 RMS     Force            0.007863     0.000300     NO 
 Maximum Displacement     0.124470     0.001800     NO 
 RMS     Displacement     0.046180     0.001200     NO 
 Predicted change in Energy=-2.913886D-03
 GradGradGradGradGradGradGradGradGradGradGradGradGradGradGradGradGradGrad

                          Input orientation:                          
 ---------------------------------------------------------------------
 Center     Atomic      Atomic             Coordinates (Angstroms)
 Number     Number       Type             X           Y           Z
 ---------------------------------------------------------------------
      1         16           0       -0.483713    0.462190    0.026431
      2          8           0       -0.706499    1.022970    1.319506
      3          8           0       -0.640897    1.245199   -1.155131
      4          6           0        1.210335   -0.260975   -0.001051
      5          9           0        2.058454    0.739496    0.056606
      6          9           0        1.366914   -1.044394    1.035050
      7          9           0        1.382567   -0.932124   -1.111012
      8          8           0       -1.200179   -0.931253   -0.117063
      9          6           0       -2.638757   -0.868419   -0.024504
     10          1           0       -2.985555   -1.884312   -0.194574
     11          1           0       -2.934113   -0.529641    0.969295
     12          1           0       -3.035252   -0.205525   -0.795940
 ---------------------------------------------------------------------
                    Distance matrix (angstroms):
                    1          2          3          4          5
     1  S    0.000000
     2  O    1.426937   0.000000
     3  O    1.426148   2.485461   0.000000
     4  C    1.842151   2.658314   2.650947   0.000000
     5  F    2.557425   3.052906   3.001755   1.312849   0.000000
     6  F    2.590739   2.941760   3.751058   1.308346   2.148917
     7  F    2.592468   3.754198   2.972724   1.308479   2.148132
     8  O    1.573403   2.475163   2.475343   2.504657   3.666095
     9  C    2.533244   3.019492   3.120440   3.896799   4.965457
    10  H    3.437169   3.992345   4.026653   4.503129   5.691177
    11  H    2.806631   2.737793   3.594730   4.264997   5.231580
    12  H    2.762696   3.377484   2.822509   4.319714   5.250309
                    6          7          8          9         10
     6  F    0.000000
     7  F    2.149053   0.000000
     8  O    2.816049   2.767402   0.000000
     9  C    4.147170   4.166006   1.442921   0.000000
    10  H    4.600155   4.563663   2.025314   1.086845   0.000000
    11  H    4.332219   4.808680   2.085184   1.090708   1.786721
    12  H    4.841001   4.488245   2.086875   1.091673   1.783939
                   11         12
    11  H    0.000000
    12  H    1.797592   0.000000
 Stoichiometry    C2H3F3O3S
 Framework group  C1[X(C2H3F3O3S)]
 Deg. of freedom    30
 Full point group                 C1      NOp   1
 Largest Abelian subgroup         C1      NOp   1
 Largest concise Abelian subgroup C1      NOp   1
                         Standard orientation:                         
 ---------------------------------------------------------------------
 Center     Atomic      Atomic             Coordinates (Angstroms)
 Number     Number       Type             X           Y           Z
 ---------------------------------------------------------------------
      1         16           0       -0.445551    0.500704    0.004539
      2          8           0       -0.658934    1.106574    1.278721
      3          8           0       -0.587170    1.248323   -1.201657
      4          6           0        1.234777   -0.254292    0.002578
      5          9           0        2.101309    0.731595    0.029445
      6          9           0        1.375904   -1.006960    1.063399
      7          9           0        1.395411   -0.963663   -1.085130
      8          8           0       -1.187690   -0.883074   -0.095380
      9          6           0       -2.624927   -0.790620   -0.006916
     10          1           0       -2.990419   -1.804818   -0.144935
     11          1           0       -2.914750   -0.414820    0.975133
     12          1           0       -3.008388   -0.145481   -0.799698
 ---------------------------------------------------------------------
 Rotational constants (GHZ):           2.3142756           1.2033653           1.1266638
 Standard basis: 6-311G(2d,p) (5D, 7F)
 There are   251 symmetry adapted cartesian basis functions of A   symmetry.
 There are   233 symmetry adapted basis functions of A   symmetry.
   233 basis functions,   380 primitive gaussians,   251 cartesian basis functions
    41 alpha electrons       41 beta electrons
       nuclear repulsion energy       680.2571209618 Hartrees.
 NAtoms=   12 NActive=   12 NUniq=   12 SFac= 1.00D+00 NAtFMM=   60 NAOKFM=F Big=F
 Integral buffers will be    131072 words long.
 Raffenetti 2 integral format.
 Two-electron integral symmetry is turned on.
 Nuclear repulsion after empirical dispersion term =      680.2562513861 Hartrees.
 ------------------------------------------------------------------------------
 Polarizable Continuum Model (PCM)
 =================================
 Model                : PCM.
 Atomic radii         : UFF (Universal Force Field).
 Polarization charges : Total charges.
 Charge compensation  : None.
 Solution method      : On-the-fly selection.
 Cavity type          : Scaled VdW (van der Waals Surface) (Alpha=1.100).
 Cavity algorithm     : GePol (No added spheres)
                        Default sphere list used, NSphG=   12.
                        Lebedev-Laikov grids with approx.  5.0 points / Ang**2.
                        Smoothing algorithm: York/Karplus (Gamma=1.0000).
                        Polarization charges: spherical gaussians, with
                                              point-specific exponents (IZeta= 3).
                        Self-potential: point-specific (ISelfS= 7).
                        Self-field    : sphere-specific E.n sum rule (ISelfD= 2).
 1st derivatives      : Analytical E(r).r(x)/FMM algorithm (CHGder, D1EAlg=3).
                        Cavity 1st derivative terms included.
 Solvent              : TetraHydroFuran, Eps=   7.425700 Eps(inf)=   1.974025
 ------------------------------------------------------------------------------
 Spheres list:
 ISph  on   Nord     Re0    Alpha      Xe            Ye            Ze
    1   S      1    2.0175  1.100     -0.445551      0.500704      0.004539
    2   O      2    1.7500  1.100     -0.658934      1.106574      1.278721
    3   O      3    1.7500  1.100     -0.587170      1.248323     -1.201657
    4   C      4    1.9255  1.100      1.234777     -0.254292      0.002578
    5   F      5    1.6820  1.100      2.101309      0.731595      0.029445
    6   F      6    1.6820  1.100      1.375904     -1.006960      1.063399
    7   F      7    1.6820  1.100      1.395411     -0.963663     -1.085130
    8   O      8    1.7500  1.100     -1.187690     -0.883074     -0.095380
    9   C      9    1.9255  1.100     -2.624927     -0.790620     -0.006916
   10   H     10    1.4430  1.100     -2.990419     -1.804818     -0.144935
   11   H     11    1.4430  1.100     -2.914750     -0.414820      0.975133
   12   H     12    1.4430  1.100     -3.008388     -0.145481     -0.799698
 ------------------------------------------------------------------------------
 One-electron integrals computed using PRISM.
 PrsmSu:  requested number of processors reduced to:   9 ShMem   1 Linda.
 NBasis=   233 RedAO= T EigKep=  2.97D-03  NBF=   233
 NBsUse=   233 1.00D-06 EigRej= -1.00D+00 NBFU=   233
 Initial guess from the checkpoint file:  "Me-NCNPtPh.chk"
 B after Tr=    -0.000000   -0.000000   -0.000000
         Rot=    0.999908    0.012275   -0.001681    0.005494 Ang=   1.55 deg.
 ExpMin= 7.71D-02 ExpMax= 9.34D+04 ExpMxC= 3.17D+03 IAcc=3 IRadAn=         5 AccDes= 0.00D+00
 Harris functional with IExCor= 1009 and IRadAn=       5 diagonalized for initial guess.
 HarFok:  IExCor= 1009 AccDes= 0.00D+00 IRadAn=         5 IDoV= 1 UseB2=F ITyADJ=14
 ICtDFT=  3500011 ScaDFX=  1.000000  1.000000  1.000000  1.000000
 FoFCou: FMM=F IPFlag=           0 FMFlag=      100000 FMFlg1=           0
         NFxFlg=           0 DoJE=T BraDBF=F KetDBF=T FulRan=T
         wScrn=  0.000000 ICntrl=       500 IOpCl=  0 I1Cent=   200000004 NGrid=           0
         NMat0=    1 NMatS0=      1 NMatT0=    0 NMatD0=    1 NMtDS0=    0 NMtDT0=    0
 Petite list used in FoFCou.
 Requested convergence on RMS density matrix=1.00D-08 within 128 cycles.
 Requested convergence on MAX density matrix=1.00D-06.
 Requested convergence on             energy=1.00D-06.
 No special actions if energy rises.
 Inv3:  Mode=1 IEnd=     5306700.
 Iteration    1 A*A^-1 deviation from unit magnitude is 3.00D-15 for    182.
 Iteration    1 A*A^-1 deviation from orthogonality  is 1.26D-15 for    931    246.
 Iteration    1 A^-1*A deviation from unit magnitude is 2.89D-15 for   1110.
 Iteration    1 A^-1*A deviation from orthogonality  is 2.83D-15 for   1264    509.
 Error on total polarization charges =  0.00426
 SCF Done:  E(RM06) =  -1001.28693452     A.U. after   10 cycles
            NFock= 10  Conv=0.78D-08     -V/T= 2.0017
 PrsmSu:  requested number of processors reduced to:   9 ShMem   1 Linda.
 D1PCM: PCM CHGder 1st derivatives, ID1Alg=3 FixD1E=F DoIter=F DoCFld=F I1PDM=0.
 CoulSu:  requested number of processors reduced to:   9 ShMem   1 Linda.
 CoulSu:  requested number of processors reduced to:   9 ShMem   1 Linda.
 Calling FoFJK, ICntrl=      2127 FMM=F ISym2X=0 I1Cent= 0 IOpClX= 0 NMat=1 NMatS=1 NMatT=0.
 ***** Axes restored to original set *****
 -------------------------------------------------------------------
 Center     Atomic                   Forces (Hartrees/Bohr)
 Number     Number              X              Y              Z
 -------------------------------------------------------------------
      1       16           0.004815436   -0.001967860   -0.000065184
      2        8          -0.001345999    0.000811359    0.000261726
      3        8          -0.001678703    0.001362107   -0.000663598
      4        6          -0.004819038    0.003303260    0.000220860
      5        9           0.003272144    0.001862725    0.000274260
      6        9           0.002343006   -0.002951518    0.002775801
      7        9           0.002362736   -0.002426677   -0.003076884
      8        8          -0.002175054    0.001600759    0.000476288
      9        6          -0.003608347   -0.001573268   -0.000353071
     10        1           0.000296151    0.000140927    0.000087288
     11        1           0.000299487    0.000013994    0.000055220
     12        1           0.000238180   -0.000175807    0.000007294
 -------------------------------------------------------------------
 Cartesian Forces:  Max     0.004819038 RMS     0.002037383

 GradGradGradGradGradGradGradGradGradGradGradGradGradGradGradGradGradGrad
 Berny optimization.
 Using GEDIIS/GDIIS optimizer.
 FormGI is forming the generalized inverse of G from B-inverse, IUseBI=4.
 Internal  Forces:  Max     0.005266398 RMS     0.001964446
 Search for a local minimum.
 Step number   4 out of a maximum of   55
 All quantities printed in internal units (Hartrees-Bohrs-Radians)
 Mixed Optimization -- RFO/linear search
 Update second derivatives using D2CorX and points    2    3    4
 DE= -2.52D-03 DEPred=-2.91D-03 R= 8.64D-01
 TightC=F SS=  1.41D+00  RLast= 1.75D-01 DXNew= 1.4270D+00 5.2490D-01
 Trust test= 8.64D-01 RLast= 1.75D-01 DXMaxT set to 8.49D-01
 ITU=  1  1  1  0
 Use linear search instead of GDIIS.
     Eigenvalues ---    0.00229   0.00512   0.00796   0.08455   0.08847
     Eigenvalues ---    0.09279   0.10036   0.10570   0.11074   0.13866
     Eigenvalues ---    0.15900   0.16000   0.16032   0.16635   0.18941
     Eigenvalues ---    0.23686   0.25000   0.25008   0.25035   0.25234
     Eigenvalues ---    0.29956   0.34285   0.34371   0.34818   0.37136
     Eigenvalues ---    0.52659   0.53477   0.53724   0.61163   0.66694
 RFO step:  Lambda=-4.45454079D-04 EMin= 2.28980452D-03
 Quartic linear search produced a step of -0.10332.
 Iteration  1 RMS(Cart)=  0.02760530 RMS(Int)=  0.00032915
 Iteration  2 RMS(Cart)=  0.00037894 RMS(Int)=  0.00002618
 Iteration  3 RMS(Cart)=  0.00000008 RMS(Int)=  0.00002618
 Variable       Old X    -DE/DX   Delta X   Delta X   Delta X     New X
                                 (Linear)    (Quad)   (Total)
    R1        2.69652   0.00076  -0.00437   0.00834   0.00397   2.70049
    R2        2.69503   0.00148  -0.00431   0.00933   0.00503   2.70005
    R3        3.48116   0.00299   0.00937  -0.00100   0.00837   3.48953
    R4        2.97330   0.00222   0.00510  -0.00181   0.00329   2.97659
    R5        2.48093   0.00354   0.00014   0.00395   0.00410   2.48502
    R6        2.47241   0.00425   0.00004   0.00518   0.00522   2.47764
    R7        2.47267   0.00416   0.00000   0.00509   0.00509   2.47776
    R8        2.72673   0.00269   0.00160   0.00249   0.00409   2.73081
    R9        2.05384  -0.00024   0.00015  -0.00083  -0.00068   2.05316
   R10        2.06114  -0.00003   0.00016  -0.00047  -0.00031   2.06083
   R11        2.06296  -0.00019   0.00019  -0.00097  -0.00078   2.06218
    A1        2.11507  -0.00102  -0.00089  -0.00818  -0.00900   2.10607
[...]
    D7        3.14134   0.00000   0.00000   0.00028   0.00028  -3.14157
    D8       -1.06004   0.00001   0.00000   0.00030   0.00030  -1.05974
    D9        1.05968  -0.00001   0.00000   0.00010   0.00010   1.05979
   D10        1.19673   0.00000   0.00000   0.00097   0.00097   1.19771
   D11       -1.19846   0.00001   0.00000   0.00100   0.00100  -1.19746
   D12        3.14089  -0.00001   0.00000   0.00083   0.00083  -3.14147
   D13       -3.14116   0.00000   0.00000  -0.00039  -0.00039  -3.14156
   D14       -1.06853  -0.00001   0.00000  -0.00050  -0.00050  -1.06904
   D15        1.06948   0.00000   0.00000  -0.00038  -0.00038   1.06910
         Item               Value     Threshold  Converged?
 Maximum Force            0.000082     0.000450     YES
 RMS     Force            0.000025     0.000300     YES
 Maximum Displacement     0.001126     0.001800     YES
 RMS     Displacement     0.000416     0.001200     YES
 Predicted change in Energy=-7.717622D-08
 Optimization completed.
    -- Stationary point found.
                           ----------------------------
                           !   Optimized Parameters   !
                           ! (Angstroms and Degrees)  !
 --------------------------                            --------------------------
 ! Name  Definition              Value          Derivative Info.                !
 --------------------------------------------------------------------------------
 ! R1    R(1,2)                  1.4274         -DE/DX =    0.0                 !
 ! R2    R(1,3)                  1.4274         -DE/DX =    0.0                 !
 ! R3    R(1,4)                  1.8465         -DE/DX =    0.0                 !
 ! R4    R(1,8)                  1.5725         -DE/DX =    0.0001              !
 ! R5    R(4,5)                  1.3163         -DE/DX =    0.0                 !
 ! R6    R(4,6)                  1.3124         -DE/DX =    0.0                 !
 ! R7    R(4,7)                  1.3124         -DE/DX =    0.0                 !
 ! R8    R(8,9)                  1.4474         -DE/DX =   -0.0001              !
 ! R9    R(9,10)                 1.0863         -DE/DX =    0.0                 !
 ! R10   R(9,11)                 1.0908         -DE/DX =    0.0                 !
 ! R11   R(9,12)                 1.0908         -DE/DX =    0.0                 !
 ! A1    A(2,1,3)              120.7949         -DE/DX =    0.0                 !
 ! A2    A(2,1,4)              107.9901         -DE/DX =    0.0                 !
 ! A3    A(2,1,8)              110.9726         -DE/DX =    0.0                 !
 ! A4    A(3,1,4)              107.9729         -DE/DX =    0.0                 !
 ! A5    A(3,1,8)              110.974          -DE/DX =    0.0                 !
 ! A6    A(4,1,8)               94.8872         -DE/DX =    0.0                 !
 ! A7    A(1,4,5)              106.9934         -DE/DX =    0.0                 !
 ! A8    A(1,4,6)              110.0507         -DE/DX =    0.0                 !
 ! A9    A(1,4,7)              110.0336         -DE/DX =    0.0                 !
 ! A10   A(5,4,6)              109.8257         -DE/DX =    0.0                 !
 ! A11   A(5,4,7)              109.826          -DE/DX =    0.0                 !
 ! A12   A(6,4,7)              110.062          -DE/DX =    0.0                 !
 ! A13   A(1,8,9)              115.2997         -DE/DX =    0.0                 !
 ! A14   A(8,9,10)             105.1839         -DE/DX =    0.0                 !
 ! A15   A(8,9,11)             109.8031         -DE/DX =    0.0                 !
 ! A16   A(8,9,12)             109.8            -DE/DX =    0.0                 !
 ! A17   A(10,9,11)            110.3682         -DE/DX =    0.0                 !
 ! A18   A(10,9,12)            110.3653         -DE/DX =    0.0                 !
 ! A19   A(11,9,12)            111.1534         -DE/DX =    0.0                 !
 ! D1    D(2,1,4,5)            -66.0947         -DE/DX =    0.0                 !
 ! D2    D(2,1,4,6)             53.1842         -DE/DX =    0.0                 !
 ! D3    D(2,1,4,7)            174.6353         -DE/DX =    0.0                 !
 ! D4    D(3,1,4,5)             66.068          -DE/DX =    0.0                 !
 ! D5    D(3,1,4,6)           -174.653          -DE/DX =    0.0                 !
 ! D6    D(3,1,4,7)            -53.2019         -DE/DX =    0.0                 !
 ! D7    D(8,1,4,5)           -180.0147         -DE/DX =    0.0                 !
 ! D8    D(8,1,4,6)            -60.7357         -DE/DX =    0.0                 !
 ! D9    D(8,1,4,7)             60.7154         -DE/DX =    0.0                 !
 ! D10   D(2,1,8,9)             68.5676         -DE/DX =    0.0                 !
 ! D11   D(3,1,8,9)            -68.6668         -DE/DX =    0.0                 !
 ! D12   D(4,1,8,9)           -180.0403         -DE/DX =    0.0                 !
 ! D13   D(1,8,9,10)          -179.9755         -DE/DX =    0.0                 !
 ! D14   D(1,8,9,11)           -61.2225         -DE/DX =    0.0                 !
 ! D15   D(1,8,9,12)            61.2765         -DE/DX =    0.0                 !
 --------------------------------------------------------------------------------
 GradGradGradGradGradGradGradGradGradGradGradGradGradGradGradGradGradGrad


 ----------------------------------------------------------------------

 Electric dipole moment (input orientation):
 (Debye = 10**-18 statcoulomb cm , SI units = C m)
                  (au)            (Debye)         (10**-30 SI)
   Tot        0.141027D+01      0.358454D+01      0.119567D+02
   x         -0.880395D+00     -0.223774D+01     -0.746430D+01
   y         -0.109807D+01     -0.279102D+01     -0.930983D+01
   z         -0.894178D-01     -0.227277D+00     -0.758116D+00

 Dipole polarizability, Alpha (input orientation).
 (esu units = cm**3 , SI units = C**2 m**2 J**-1)
 Alpha(0;0):
               (au)            (10**-24 esu)      (10**-40 SI)
   iso        0.588758D+02      0.872449D+01      0.970731D+01
   aniso      0.924020D+01      0.136926D+01      0.152350D+01
   xx         0.639876D+02      0.948198D+01      0.105501D+02
   yx         0.296794D+01      0.439804D+00      0.489348D+00
   yy         0.564345D+02      0.836273D+01      0.930479D+01
   zx         0.202234D+00      0.299680D-01      0.333439D-01
   zy        -0.280894D-02     -0.416243D-03     -0.463132D-03
   zz         0.562053D+02      0.832877D+01      0.926701D+01

 ----------------------------------------------------------------------

 Dipole orientation:
    16         -0.90238439          0.86479151         -0.11279657
     8         -0.13076349          3.33061960         -0.88752961
     8         -3.27882503         -0.14666249         -0.89083666
     6          1.58813063         -1.38980999         -1.05602783
     9          1.63098467         -1.42721946         -3.54277345
     9          3.78696858         -0.63995342         -0.18807282
     9          1.05823624         -3.65248293         -0.18973414
     8         -0.49111749          0.48973450          2.80614395
     6         -2.12891649          1.97385290          4.41759039
     1         -1.58629134          1.48153239          6.33512220
     1         -1.81232576          3.98168347          4.07550577
     1         -4.09598268          1.46201822          4.07491538

 Electric dipole moment (dipole orientation):
 (Debye = 10**-18 statcoulomb cm , SI units = C m)
                  (au)            (Debye)         (10**-30 SI)
   Tot        0.141027D+01      0.358454D+01      0.119567D+02
   x          0.000000D+00      0.000000D+00      0.000000D+00
   y          0.000000D+00      0.000000D+00      0.000000D+00
   z          0.141027D+01      0.358454D+01      0.119567D+02

 Dipole polarizability, Alpha (dipole orientation).
 (esu units = cm**3 , SI units = C**2 m**2 J**-1)
 Alpha(0;0):
               (au)            (10**-24 esu)      (10**-40 SI)
   iso        0.588758D+02      0.872449D+01      0.970731D+01
   aniso      0.924020D+01      0.136926D+01      0.152350D+01
   xx         0.572708D+02      0.848665D+01      0.944267D+01
   yx        -0.962669D+00     -0.142653D+00     -0.158723D+00
   yy         0.570784D+02      0.845815D+01      0.941096D+01
   zx        -0.321691D+01     -0.476697D+00     -0.530397D+00
   zy         0.291440D+01      0.431869D+00      0.480519D+00
   zz         0.622782D+02      0.922867D+01      0.102683D+02

 ----------------------------------------------------------------------
 Unable to Open any file for archive entry.
 1\1\GINC-MASTIFF\Freq\RM06\6-311G(2d,p)\C2H3F3O3S1\MVANVLEET\23-May-20
 22\0\\#N Geom=AllCheck Guess=TCheck SCRF=Check GenChk RM06/6-311G(2d,p
 ) Freq\\M06 Me-(NCN)PtPh; Custom Lanl2tz(f)+6-311g(d,p) basis set\\0,1
 \S,-0.479062023,0.4557062406,0.0620009715\O,-0.6619092654,1.0232289478
 ,1.3589009274\O,-0.6785384719,1.2401580964,-1.1137079756\C,1.221259488
 7,-0.2604327464,-0.0125702025\F,2.066277383,0.7454334835,0.0696092519\
 F,1.4079994543,-1.0819810884,0.9936639992\F,1.3927558517,-0.8941508933
 ,-1.1489809527\O,-1.2132626007,-0.9299378921,-0.0546088539\C,-2.659253
 1482,-0.867112744,-0.0382243389\H,-2.9898435142,-1.8981064979,-0.12615
 61838\H,-2.9998424003,-0.4383684677,0.9051294246\H,-3.0132757538,-0.28
 12244385,-0.8874440672\\Version=ES64L-G16RevC.01\State=1-A\HF=-1001.28
 72027\RMSD=4.534e-09\RMSF=3.832e-05\ZeroPoint=0.0673366\Thermal=0.0766
 396\ETot=-1001.2105631\HTot=-1001.2096189\GTot=-1001.2555371\Dipole=-0
 .8803952,-1.098071,-0.0894178\DipoleDeriv=2.0813765,0.2055086,0.020288
 4,0.7108639,2.5714465,0.0053288,0.0647343,0.0090104,2.4518242,-0.74542
 76,0.0744427,0.0956493,-0.0110709,-0.8231148,-0.2012354,0.0909424,-0.3
 047432,-1.1481073,-0.7478728,0.0948732,-0.0854808,0.0084353,-0.9196191
 ,0.2415658,-0.0958882,0.3438943,-1.0491581,2.0135852,-0.0080495,-0.002
 3517,-0.054895,1.7761914,0.0016073,-0.0063915,0.0012653,1.7620211,-0.9
 230316,-0.3700926,-0.0279453,-0.3515505,-0.674174,-0.0318,-0.0263163,-
 0.0316618,-0.28578,-0.5357375,0.2032594,-0.1638964,0.2250819,-0.644720
 5,0.3786328,-0.1775864,0.3751797,-0.7051186,-0.5304954,0.1668145,0.192
 8629,0.1858789,-0.5169927,-0.347826,0.2101264,-0.3441253,-0.8380992,-1
 .7650504,-0.5183633,-0.0367567,-0.6909006,-1.0912335,-0.0414147,-0.051
 8391,-0.0426401,-0.5670799,1.1652352,0.2533482,0.016014,-0.0938432,0.1
 909239,-0.0092377,-0.0147372,-0.0118634,0.3029387,0.006292,-0.0210295,
 -0.0010099,-0.0455371,-0.0238522,-0.0123605,-0.0031602,-0.0125431,0.12
 00136,-0.0090993,-0.0392157,-0.0213067,0.0535976,0.0881184,-0.056738,0
 .0587172,-0.0446455,-0.0324693,-0.0097744,-0.041496,0.013933,0.0639397
 ,0.0670266,0.0734778,-0.0486014,0.0628727,-0.0109853\Polar=63.9875683,
 2.9679432,56.434477,0.2022342,-0.0028089,56.2053246\Quadrupole=7.38518
 11,-2.9823582,-4.4028229,3.4451397,0.2189684,0.1005924\PG=C01 [X(C2H3F
 3O3S1)]\NImag=0\\0.55222749,-0.05650097,0.70357193,-0.00098662,-0.0388
 4787,1.14713728,-0.10528732,0.04061764,0.07653529,0.06081471,0.0396639
 1,-0.16924325,-0.20806052,-0.03346756,0.17005868,0.07699680,-0.2041200
 3,-0.55461478,-0.07636870,0.23055161,0.58913549,-0.10731950,0.05693465
 ,-0.07346941,0.02176478,-0.00248954,0.00506729,0.06288253,0.05614644,-
 0.25148017,0.26085071,-0.00179235,0.01543585,-0.01700600,-0.05035650,0
 .26171884,-0.07410428,0.25690079,-0.47036976,-0.00608894,0.02437694,-0
 .02608057,0.07552345,-0.28771792,0.49545235,-0.17177001,0.05467300,0.0
 0578904,0.02174732,-0.01382920,-0.02236707,0.02179422,-0.01728804,0.01
 920030,0.50877671,0.06864804,-0.04911305,-0.00254007,0.00003302,0.0027
 2625,0.00307100,0.00287641,0.00071383,-0.00097637,0.00629402,0.5438879
 5,0.00703827,-0.00244721,-0.02584738,0.01626532,-0.01221376,-0.0111525
 6,-0.01645536,0.01454867,-0.00922368,0.00091558,-0.00115525,0.55566070
 ,-0.01092178,-0.04152947,-0.00353740,-0.00320010,0.00679345,0.00571621
 ,-0.00325655,0.00765534,-0.00438243,-0.20560231,-0.11577311,-0.0091969
 5,0.22135593,-0.00271023,-0.01016776,-0.00117412,-0.00120749,0.0035233
 8,0.00314973,-0.00143541,0.00432944,-0.00270407,-0.11239859,-0.1799036
 3,-0.00877022,0.18324649,0.28864680,-0.00013829,-0.00090046,0.00342575
 ,-0.00119724,0.00178008,0.00186281,0.00102507,-0.00145554,0.00111791,-
 0.00889261,-0.00874552,-0.07146001,0.01507778,0.01685951,0.08277517,0.
 00790438,0.01591256,-0.02302576,-0.00284848,0.00081921,0.00455311,-0.0
 0950860,0.00653385,-0.00479735,-0.09207849,0.04268292,-0.04361931,0.01
 024090,-0.03296921,0.02294963,0.07695670,-0.00629505,-0.01302615,0.023
 65560,0.00217318,0.00027799,-0.00449755,0.00857744,-0.00519509,0.00342
 673,0.04042551,-0.17191980,0.11360669,-0.01936142,-0.06055455,0.040524
 48,-0.02688242,0.22411501,0.00675392,0.01101430,-0.01537863,-0.0029011
 0,0.00065397,0.00662203,-0.00617236,0.00335847,-0.00128573,-0.04247516
 ,0.11357187,-0.19987483,0.01385725,0.03379006,-0.00201010,0.04044189,-
 0.17695404,0.29833926,0.00812558,0.01155445,0.02506743,-0.00933824,0.0
 0553555,0.00595387,-0.00286611,0.00157211,-0.00420442,-0.09078730,0.03
 305013,0.04841960,0.00965763,-0.02898298,-0.02864490,0.01421912,-0.003
 30567,-0.00625665,0.07581779,-0.00530236,-0.00715922,-0.02210808,0.007
 31261,-0.00389650,-0.00398306,0.00168057,-0.00018471,0.00326275,0.0310
 1947,-0.13373769,-0.10227459,-0.01726289,-0.04609650,-0.04809473,-0.00
 410756,0.02107087,0.01732399,-0.01738711,0.16565432,-0.00813479,-0.009
 74142,-0.02150825,0.00767218,-0.00389026,-0.00275137,0.00337065,-0.001
 87255,0.00710758,0.04689959,-0.10227075,-0.23924265,-0.01733263,-0.041
 18149,-0.01586831,0.00414656,0.00191687,-0.08752731,-0.04072224,0.1536
 7771,0.35784938,-0.12721239,-0.05244985,-0.00413545,0.01159298,-0.0095
 2067,-0.00309219,0.01180227,-0.00949163,0.00127886,0.01130043,-0.03810
 760,-0.00341670,-0.02059989,-0.00415498,-0.00021707,-0.00635804,0.0052
 4993,-0.00388694,-0.00629381,0.00449948,0.00484602,0.39338551,-0.05330
 865,-0.19738209,-0.01162971,-0.01515116,-0.01874395,-0.00758676,-0.017
 30091,-0.02517924,0.00381890,0.01136330,-0.00692467,-0.00076917,-0.001
 42417,0.00037635,0.00002733,-0.00230413,0.00419057,-0.00240144,-0.0023
 5022,0.00348180,0.00290191,0.07337280,0.29637293,-0.00419639,-0.011629
 39,-0.06189230,-0.01417310,-0.03269490,-0.00256280,0.01118064,0.028834
 53,0.00368132,0.00092487,-0.00041912,0.00095266,0.00002677,0.00004787,
 0.00017060,-0.00061148,-0.00116936,0.00086116,0.00031013,0.00156941,0.
 00150366,0.00420838,0.01721153,0.09647752,-0.04472922,-0.05417286,-0.0
 0443106,0.00356844,0.01004730,0.00699248,0.00347599,0.01112536,-0.0051
 9082,-0.00614086,0.00297726,0.00030453,0.00474930,0.00126323,0.0000773
 4,0.00208111,-0.00103254,0.00094012,0.00206883,-0.00084242,-0.00112745
 ,-0.17469000,0.02179711,0.00281895,0.40202596,-0.04003872,-0.00755410,
 -0.00050793,0.00161880,-0.00049979,-0.00009207,0.00184510,-0.00063499,
 0.00013341,0.00034313,-0.00616257,-0.00057160,-0.00277274,-0.00024246,
 0.00000253,0.00007782,0.00127401,-0.00055823,0.00007772,0.00106209,0.0
 0070245,0.02850558,-0.06564078,-0.00123250,0.01280458,0.60956475,-0.00
 319094,-0.00040067,0.00158607,0.00136540,-0.00064316,-0.00102577,-0.00
 112192,0.00055567,-0.00079314,0.00007898,-0.00059787,0.00023551,-0.000
 28416,-0.00002746,-0.00004332,-0.00007355,-0.00048328,0.00023110,0.000
 06280,0.00064475,0.00045768,0.00341828,-0.00117924,-0.05431951,0.00245
 597,0.00249047,0.58067448,-0.00448305,0.00509811,0.00047197,0.00060238
 ,-0.00107646,-0.00108201,0.00062025,-0.00125083,0.00087508,0.00105923,
 -0.00222099,-0.00020209,-0.00132732,-0.00021785,-0.00000955,-0.0002325
 0,0.00047876,-0.00026123,-0.00022812,0.00042547,0.00034337,-0.02802029
 ,-0.03579906,-0.00292244,-0.06136612,-0.06644279,-0.00571806,0.0840053
 9,0.00312535,0.00179146,0.00028493,-0.00036246,0.00014116,0.00018945,-
 0.00044010,0.00016771,-0.00021881,0.00029013,0.00024427,0.00000868,0.0
 0015011,0.00004295,0.00000179,-0.00005815,-0.00002145,0.00000036,-0.00
 005129,-0.00002310,-0.00000334,0.00002388,0.00506732,0.00031412,-0.080
 69118,-0.30992695,-0.02243935,0.08418418,0.32185428,0.00029466,0.00026
 884,-0.00170084,-0.00047459,-0.00006987,0.00037803,0.00039796,0.000051
 15,0.00033212,0.00001868,0.00002647,0.00012760,0.00002281,0.00000449,0
 .00001018,0.00003721,-0.00001718,-0.00000005,-0.00004346,0.00000682,-0
 .00000210,0.00022495,0.00058324,0.00151958,-0.00696826,-0.02254506,-0.
 04906988,0.00707309,0.02384684,0.04474391,0.00176213,0.00961392,0.0043
 0407,0.00064483,-0.00094773,-0.00172667,-0.00005569,-0.00161266,0.0003
 6393,0.00084851,-0.00022556,-0.00005323,-0.00054604,-0.00021382,-0.000
 04048,-0.00019410,0.00015702,-0.00014200,-0.00018291,-0.00016522,-0.00
 013133,-0.03223485,0.00822017,0.02815797,-0.06459812,0.02611831,0.0594
 2057,0.00461605,-0.00237814,-0.00816430,0.08473561,-0.00173192,-0.0000
 5844,0.00157039,0.00011253,0.00025402,0.00010109,0.00010690,-0.0000539
 0,-0.00021780,-0.00043918,0.00011368,-0.00024815,0.00012948,0.00001898
 ,0.00001399,0.00007777,-0.00007595,0.00009487,0.00020846,-0.00011481,-
 0.00013126,0.00087414,0.00173329,0.00078646,0.03184123,-0.09209344,-0.
 09357175,0.00834969,-0.00779316,-0.02468951,-0.03401319,0.09009095,0.0
 0017422,-0.00223845,-0.00050444,-0.00062823,0.00052764,0.00027536,0.00
 002493,0.00034782,-0.00007450,-0.00015089,0.00007080,-0.00010568,0.000
 13040,0.00003528,0.00001312,0.00002266,0.00000034,0.00001283,0.0000638
 5,-0.00001037,-0.00000979,0.00233277,0.00347773,0.00704128,0.06743972,
 -0.09391191,-0.25842663,-0.00061931,0.00139956,0.00002663,-0.07478726,
 0.10113615,0.26778565,0.00170369,0.01024881,-0.00258211,-0.00006131,-0
 .00152827,-0.00064311,0.00066641,-0.00124109,0.00152662,0.00085255,-0.
 00023455,0.00000032,-0.00054978,-0.00021917,0.00001031,-0.00018200,-0.
 00018474,0.00010228,-0.00019246,0.00012996,0.00017007,-0.03267192,0.01
 288495,-0.02572429,-0.06644530,0.03786319,-0.05641336,0.00475411,-0.00
 379232,0.00758123,0.00520458,-0.00551591,0.00599714,0.08692144,-0.0016
 9585,-0.00017914,-0.00149334,0.00011323,-0.00003384,0.00022258,0.00000
 140,0.00036243,-0.00008454,-0.00045355,0.00007546,0.00028590,0.0001489
 2,0.00002700,-0.00001346,0.00021735,-0.00013546,0.00010582,0.00007885,
 -0.00005655,-0.00010787,0.00119893,0.00264846,-0.00161865,0.04488294,-
 0.12914575,0.11565189,0.00847177,-0.01154448,0.02253376,-0.00455311,0.
 00797878,-0.01083460,-0.04841086,0.13000310,-0.00050655,0.00214158,-0.
 00033274,-0.00000628,-0.00031777,-0.00008587,0.00062904,-0.00049502,0.
 00013611,0.00005869,-0.00003520,-0.00006968,-0.00009766,-0.00002959,0.
 00000619,-0.00002361,-0.00000930,0.00001026,-0.00000601,-0.00001460,-0
 .00000853,-0.00156091,-0.00445432,0.00656684,-0.06331151,0.11609043,-0
 .21950661,0.00205117,-0.00338423,0.00363481,-0.00720126,0.01515552,-0.
 01603383,0.06997489,-0.12464751,0.22568307\\-0.00000239,-0.00000274,-0
 .00000058,-0.00001596,-0.00001067,-0.00000060,-0.00000280,-0.00002000,
 0.00000068,-0.00002089,-0.00006809,0.00001582,-0.00000246,0.00003587,0
 .00000391,0.00001305,0.00000281,0.00000888,-0.00000339,-0.00000265,-0.
 00002892,0.00011545,0.00007986,-0.00000233,-0.00014870,-0.00002448,0.0
 0001273,0.00003069,-0.00000109,-0.00000217,0.00001897,0.00000566,-0.00
 000482,0.00001843,0.00000551,-0.00000259\\\@
 The archive entry for this job was punched.


 BUT 'GLORY' DOESN'T MEAN 'A NICE KNOCK DOWN ARGUMENT', ALICE OBJECTED.
 WHEN I USE A WORD, HUMPTY DUMPTY SAID, IN A RATHER SCORNFUL TONE,
 IT MEANS JUST WHAT I CHOOSE IT TO MEAN....
 NEITHER MORE NOR LESS....
 THE QUESTION IS, SAID ALICE,
 WHETHER YOU CAN MAKE WORDS MEAN SO MANY DIFFERENT THINGS...
 THE QUESTION IS, SAID HUMPTY DUMPTY,
 WHICH IS TO BE MASTER....
 THAT IS ALL.....

 ALICE THROUGH THE LOOKING GLASS
 Job cpu time:       0 days  0 hours 21 minutes 56.2 seconds.
 Elapsed time:       0 days  0 hours  1 minutes 54.8 seconds.
 File lengths (MBytes):  RWF=    108 Int=      0 D2E=      0 Chk=     74 Scr=      1
 Normal termination of Gaussian 16 at Mon May 23 20:00:11 2022.
