 Entering Gaussian System, Link 0=g16
 Input=lanl2tz_thf_m06_opt_NCNPt.com
 Output=lanl2tz_thf_m06_opt_NCNPt.log
 Initial command:
 /usr/local/g16/l1.exe "/hdd/Gau-658996.inp" -scrdir="/hdd/"
 Entering Link 1 = /usr/local/g16/l1.exe PID=    658998.
  
 Copyright (c) 1988-2019, Gaussian, Inc.  All Rights Reserved.
  
 This is part of the Gaussian(R) 16 program.  It is based on
 the Gaussian(R) 09 system (copyright 2009, Gaussian, Inc.),
 the Gaussian(R) 03 system (copyright 2003, Gaussian, Inc.),
 the Gaussian(R) 98 system (copyright 1998, Gaussian, Inc.),
 the Gaussian(R) 94 system (copyright 1995, Gaussian, Inc.),
 the Gaussian 92(TM) system (copyright 1992, Gaussian, Inc.),
 the Gaussian 90(TM) system (copyright 1990, Gaussian, Inc.),
 the Gaussian 88(TM) system (copyright 1988, Gaussian, Inc.),
 the Gaussian 86(TM) system (copyright 1986, Carnegie Mellon
 University), and the Gaussian 82(TM) system (copyright 1983,
 Carnegie Mellon University). Gaussian is a federally registered
 trademark of Gaussian, Inc.
  
 This software contains proprietary and confidential information,
 including trade secrets, belonging to Gaussian, Inc.
  
 This software is provided under written license and may be
 used, copied, transmitted, or stored only in accord with that
 written license.
  
 The following legend is applicable only to US Government
 contracts under FAR:
  
                    RESTRICTED RIGHTS LEGEND
  
 Use, reproduction and disclosure by the US Government is
 subject to restrictions as set forth in subparagraphs (a)
 and (c) of the Commercial Computer Software - Restricted
 Rights clause in FAR 52.227-19.
  
 Gaussian, Inc.
 340 Quinnipiac St., Bldg. 40, Wallingford CT 06492
  
  
 ---------------------------------------------------------------
 Warning -- This program may not be used in any manner that
 competes with the business of Gaussian, Inc. or will provide
 assistance to any competitor of Gaussian, Inc.  The licensee
 of this program is prohibited from giving any competitor of
 Gaussian, Inc. access to this program.  By using this program,
 the user acknowledges that Gaussian, Inc. is engaged in the
 business of creating and licensing software in the field of
 computational chemistry and represents and warrants to the
 licensee that it is not a competitor of Gaussian, Inc. and that
 it will not use this program in any manner prohibited above.
 ---------------------------------------------------------------
  

 Cite this work as:
 Gaussian 16, Revision C.01,
 M. J. Frisch, G. W. Trucks, H. B. Schlegel, G. E. Scuseria, 
 M. A. Robb, J. R. Cheeseman, G. Scalmani, V. Barone, 
 G. A. Petersson, H. Nakatsuji, X. Li, M. Caricato, A. V. Marenich, 
 J. Bloino, B. G. Janesko, R. Gomperts, B. Mennucci, H. P. Hratchian, 
 J. V. Ortiz, A. F. Izmaylov, J. L. Sonnenberg, D. Williams-Young, 
 F. Ding, F. Lipparini, F. Egidi, J. Goings, B. Peng, A. Petrone, 
 T. Henderson, D. Ranasinghe, V. G. Zakrzewski, J. Gao, N. Rega, 
 G. Zheng, W. Liang, M. Hada, M. Ehara, K. Toyota, R. Fukuda, 
 J. Hasegawa, M. Ishida, T. Nakajima, Y. Honda, O. Kitao, H. Nakai, 
 T. Vreven, K. Throssell, J. A. Montgomery, Jr., J. E. Peralta, 
 F. Ogliaro, M. J. Bearpark, J. J. Heyd, E. N. Brothers, K. N. Kudin, 
 V. N. Staroverov, T. A. Keith, R. Kobayashi, J. Normand, 
 K. Raghavachari, A. P. Rendell, J. C. Burant, S. S. Iyengar, 
 J. Tomasi, M. Cossi, J. M. Millam, M. Klene, C. Adamo, R. Cammi, 
 J. W. Ochterski, R. L. Martin, K. Morokuma, O. Farkas, 
 J. B. Foresman, and D. J. Fox, Gaussian, Inc., Wallingford CT, 2019.
 
 ******************************************
 Gaussian 16:  ES64L-G16RevC.01  3-Jul-2019
                13-May-2022 
 ******************************************
 %nprocshared=12
 Will use up to   12 processors via shared memory.
 %mem=32MW
 %chk=lanl2tz_thf_m06_opt_NCNPt.chk
 ----------------------------------------------------------------------
 # opt freq gen scrf=(iefpcm,solvent=thf) m06 EmpiricalDispersion=GD3 P
 seudo=Read
 ----------------------------------------------------------------------
 1/18=20,19=15,26=3,38=1/1,3;
 2/9=110,12=2,17=6,18=5,40=1/2;
 3/5=7,11=2,16=1,17=8,25=1,30=1,70=2201,71=1,72=20,74=-54,124=31/1,2,3;
 4//1;
 5/5=2,38=5,53=20/2;
 6/7=2,8=2,9=2,10=2,28=1/1;
 7//1,2,3,16;
 1/18=20,19=15,26=3/3(2);
 2/9=110/2;
 99//99;
 2/9=110/2;
 3/5=7,6=1,11=2,16=1,17=8,25=1,30=1,70=2205,71=1,72=20,74=-54,82=7,124=31/1,2,3;
 4/5=5,16=3,69=1/1;
 5/5=2,38=5,53=20/2;
 7//1,2,3,16;
 1/18=20,19=15,26=3/3(-5);
 2/9=110/2;
 6/7=2,8=2,9=2,10=2,19=2,28=1/1;
 99/9=1/99;
 ----------------------------------------------------
 M06 (NCN)Pt; Custom Lanl2tz(f)+6-311g(d,p) basis set
 ----------------------------------------------------
 Symbolic Z-matrix:
 Charge =  1 Multiplicity = 1
 Pt                    0.       -0.66579  -0.1188 
 C                     0.        1.2638   -0.17325 
 C                     1.23682   1.90788  -0.18838 
 C                    -1.23682   1.90788  -0.18838 
 C                     1.22863   3.30864  -0.11656 
 C                    -1.22863   3.30864  -0.11656 
 C                     0.        3.99238  -0.05752 
 H                     2.16019   3.86879  -0.1208 
 H                    -2.16019   3.86879  -0.1208 
 H                     0.        5.07532   0.00827 
 N                    -2.12427  -0.41087   0.00626 
 N                     2.12427  -0.41087   0.00626 
 C                     2.42304   1.01345  -0.44621 
 H                     2.5933    0.97175  -1.52987 
 H                     3.34926   1.37016   0.02094 
 C                    -2.42304   1.01345  -0.44621 
 H                    -2.5933    0.97175  -1.52987 
 H                    -3.34926   1.37016   0.02094 
 C                    -2.81403  -1.44194  -0.86799 
 C                    -4.27965  -1.20159  -1.23982 
 H                    -2.70322  -2.40244  -0.34621 
 H                    -2.22243  -1.49423  -1.79096 
 H                    -4.60073  -2.02113  -1.89114 
 H                    -4.95149  -1.18269  -0.37987 
 H                    -4.41747  -0.27513  -1.80592 
 C                    -2.42988  -0.56688   1.48989 
 C                    -3.89978  -0.57359   1.90407 
 H                    -1.89838   0.25478   1.985 
 H                    -1.95531  -1.50199   1.81355 
 H                    -3.94799  -0.51025   2.9958 
 H                    -4.46086   0.27935   1.50643 
 H                    -4.40685  -1.497     1.61042 
 C                     2.42988  -0.56688   1.48989 
 C                     3.89978  -0.57359   1.90407 
 H                     1.95531  -1.50199   1.81355 
 H                     1.89838   0.25478   1.985 
 H                     3.94799  -0.51025   2.9958 
 H                     4.40685  -1.497     1.61042 
 H                     4.46085   0.27936   1.50643 
 C                     2.81403  -1.44194  -0.86799 
 C                     4.27965  -1.20159  -1.23982 
 H                     2.22243  -1.49423  -1.79096 
 H                     2.70322  -2.40244  -0.34621 
 H                     4.60073  -2.02113  -1.89114 
 H                     4.41747  -0.27513  -1.80592 
 H                     4.95149  -1.1827   -0.37987 
 

 GradGradGradGradGradGradGradGradGradGradGradGradGradGradGradGradGradGrad
 Berny optimization.
 Initialization pass.
                           ----------------------------
                           !    Initial Parameters    !
                           ! (Angstroms and Degrees)  !
 --------------------------                            --------------------------
 ! Name  Definition              Value          Derivative Info.                !
 --------------------------------------------------------------------------------
 ! R1    R(1,2)                  1.9304         estimate D2E/DX2                !
 ! R2    R(1,11)                 2.1432         estimate D2E/DX2                !
 ! R3    R(1,12)                 2.1432         estimate D2E/DX2                !
 ! R4    R(2,3)                  1.3946         estimate D2E/DX2                !
 ! R5    R(2,4)                  1.3946         estimate D2E/DX2                !
 ! R6    R(3,5)                  1.4026         estimate D2E/DX2                !
 ! R7    R(3,13)                 1.5079         estimate D2E/DX2                !
 ! R8    R(4,6)                  1.4026         estimate D2E/DX2                !
 ! R9    R(4,16)                 1.5079         estimate D2E/DX2                !
 ! R10   R(5,7)                  1.4073         estimate D2E/DX2                !
 ! R11   R(5,8)                  1.087          estimate D2E/DX2                !
 ! R12   R(6,7)                  1.4073         estimate D2E/DX2                !
 ! R13   R(6,9)                  1.087          estimate D2E/DX2                !
 ! R14   R(7,10)                 1.0849         estimate D2E/DX2                !
 ! R15   R(11,16)                1.524          estimate D2E/DX2                !
 ! R16   R(11,19)                1.5176         estimate D2E/DX2                !
 ! R17   R(11,26)                1.5228         estimate D2E/DX2                !
 ! R18   R(12,13)                1.524          estimate D2E/DX2                !
 ! R19   R(12,33)                1.5228         estimate D2E/DX2                !
 ! R20   R(12,40)                1.5176         estimate D2E/DX2                !
 ! R21   R(13,14)                1.0977         estimate D2E/DX2                !
 ! R22   R(13,15)                1.097          estimate D2E/DX2                !
 ! R23   R(16,17)                1.0977         estimate D2E/DX2                !
 ! R24   R(16,18)                1.097          estimate D2E/DX2                !
 ! R25   R(19,20)                1.531          estimate D2E/DX2                !
 ! R26   R(19,21)                1.0987         estimate D2E/DX2                !
 ! R27   R(19,22)                1.0975         estimate D2E/DX2                !
 ! R28   R(20,23)                1.095          estimate D2E/DX2                !
 ! R29   R(20,24)                1.0914         estimate D2E/DX2                !
 ! R30   R(20,25)                1.0944         estimate D2E/DX2                !
 ! R31   R(26,27)                1.5272         estimate D2E/DX2                !
 ! R32   R(26,28)                1.0967         estimate D2E/DX2                !
 ! R33   R(26,29)                1.0975         estimate D2E/DX2                !
 ! R34   R(27,30)                1.0946         estimate D2E/DX2                !
 ! R35   R(27,31)                1.0956         estimate D2E/DX2                !
 ! R36   R(27,32)                1.0936         estimate D2E/DX2                !
 ! R37   R(33,34)                1.5272         estimate D2E/DX2                !
 ! R38   R(33,35)                1.0975         estimate D2E/DX2                !
 ! R39   R(33,36)                1.0967         estimate D2E/DX2                !
 ! R40   R(34,37)                1.0946         estimate D2E/DX2                !
 ! R41   R(34,38)                1.0936         estimate D2E/DX2                !
 ! R42   R(34,39)                1.0956         estimate D2E/DX2                !
 ! R43   R(40,41)                1.531          estimate D2E/DX2                !
 ! R44   R(40,42)                1.0975         estimate D2E/DX2                !
 ! R45   R(40,43)                1.0987         estimate D2E/DX2                !
 ! R46   R(41,44)                1.095          estimate D2E/DX2                !
 ! R47   R(41,45)                1.0944         estimate D2E/DX2                !
 ! R48   R(41,46)                1.0914         estimate D2E/DX2                !
 ! A1    A(2,1,11)              83.2662         estimate D2E/DX2                !
 ! A2    A(2,1,12)              83.2662         estimate D2E/DX2                !
 ! A3    A(11,1,12)            164.7728         estimate D2E/DX2                !
 ! A4    A(1,2,3)              117.5147         estimate D2E/DX2                !
 ! A5    A(1,2,4)              117.5147         estimate D2E/DX2                !
 ! A6    A(3,2,4)              124.9699         estimate D2E/DX2                !
 ! A7    A(2,3,5)              117.0974         estimate D2E/DX2                !
 ! A8    A(2,3,13)             115.1889         estimate D2E/DX2                !
 ! A9    A(5,3,13)             127.2828         estimate D2E/DX2                !
 ! A10   A(2,4,6)              117.0973         estimate D2E/DX2                !
 ! A11   A(2,4,16)             115.1889         estimate D2E/DX2                !
 ! A12   A(6,4,16)             127.2828         estimate D2E/DX2                !
 ! A13   A(3,5,7)              119.5018         estimate D2E/DX2                !
 ! A14   A(3,5,8)              120.6256         estimate D2E/DX2                !
 ! A15   A(7,5,8)              119.8665         estimate D2E/DX2                !
 ! A16   A(4,6,7)              119.5019         estimate D2E/DX2                !
 ! A17   A(4,6,9)              120.6256         estimate D2E/DX2                !
 ! A18   A(7,6,9)              119.8665         estimate D2E/DX2                !
 ! A19   A(5,7,6)              121.6267         estimate D2E/DX2                !
 ! A20   A(5,7,10)             119.1763         estimate D2E/DX2                !
 ! A21   A(6,7,10)             119.1763         estimate D2E/DX2                !
 ! A22   A(1,11,16)            106.7476         estimate D2E/DX2                !
 ! A23   A(1,11,19)            109.6371         estimate D2E/DX2                !
 ! A24   A(1,11,26)            104.0981         estimate D2E/DX2                !
 ! A25   A(16,11,19)           112.0132         estimate D2E/DX2                !
 ! A26   A(16,11,26)           110.2221         estimate D2E/DX2                !
 ! A27   A(19,11,26)           113.6051         estimate D2E/DX2                !
 ! A28   A(1,12,13)            106.7476         estimate D2E/DX2                !
 ! A29   A(1,12,33)            104.0981         estimate D2E/DX2                !
 ! A30   A(1,12,40)            109.6371         estimate D2E/DX2                !
 ! A31   A(13,12,33)           110.2221         estimate D2E/DX2                !
 ! A32   A(13,12,40)           112.0132         estimate D2E/DX2                !
 ! A33   A(33,12,40)           113.6051         estimate D2E/DX2                !
 ! A34   A(3,13,12)            110.4496         estimate D2E/DX2                !
 ! A35   A(3,13,14)            108.2607         estimate D2E/DX2                !
 ! A36   A(3,13,15)            113.4862         estimate D2E/DX2                !
 ! A37   A(12,13,14)           106.7373         estimate D2E/DX2                !
 ! A38   A(12,13,15)           110.0595         estimate D2E/DX2                !
 ! A39   A(14,13,15)           107.5654         estimate D2E/DX2                !
 ! A40   A(4,16,11)            110.4496         estimate D2E/DX2                !
 ! A41   A(4,16,17)            108.2608         estimate D2E/DX2                !
 ! A42   A(4,16,18)            113.4862         estimate D2E/DX2                !
 ! A43   A(11,16,17)           106.7372         estimate D2E/DX2                !
 ! A44   A(11,16,18)           110.0594         estimate D2E/DX2                !
 ! A45   A(17,16,18)           107.5655         estimate D2E/DX2                !
 ! A46   A(11,19,20)           117.9256         estimate D2E/DX2                !
 ! A47   A(11,19,21)           105.9343         estimate D2E/DX2                !
 ! A48   A(11,19,22)           105.7728         estimate D2E/DX2                !
 ! A49   A(20,19,21)           110.4343         estimate D2E/DX2                !
 ! A50   A(20,19,22)           108.6162         estimate D2E/DX2                !
 ! A51   A(21,19,22)           107.6598         estimate D2E/DX2                !
 ! A52   A(19,20,23)           107.9192         estimate D2E/DX2                !
 ! A53   A(19,20,24)           113.6166         estimate D2E/DX2                !
 ! A54   A(19,20,25)           112.2757         estimate D2E/DX2                !
 ! A55   A(23,20,24)           107.5248         estimate D2E/DX2                !
 ! A56   A(23,20,25)           106.7971         estimate D2E/DX2                !
 ! A57   A(24,20,25)           108.3834         estimate D2E/DX2                !
 ! A58   A(11,26,27)           117.2486         estimate D2E/DX2                !
 ! A59   A(11,26,28)           105.4164         estimate D2E/DX2                !
 ! A60   A(11,26,29)           106.7292         estimate D2E/DX2                !
 ! A61   A(27,26,28)           110.3234         estimate D2E/DX2                !
 ! A62   A(27,26,29)           109.4194         estimate D2E/DX2                !
 ! A63   A(28,26,29)           107.1977         estimate D2E/DX2                !
 ! A64   A(26,27,30)           108.2178         estimate D2E/DX2                !
 ! A65   A(26,27,31)           113.0194         estimate D2E/DX2                !
 ! A66   A(26,27,32)           112.1583         estimate D2E/DX2                !
 ! A67   A(30,27,31)           107.1196         estimate D2E/DX2                !
 ! A68   A(30,27,32)           107.2316         estimate D2E/DX2                !
 ! A69   A(31,27,32)           108.8097         estimate D2E/DX2                !
 ! A70   A(12,33,34)           117.2486         estimate D2E/DX2                !
 ! A71   A(12,33,35)           106.7292         estimate D2E/DX2                !
 ! A72   A(12,33,36)           105.4164         estimate D2E/DX2                !
 ! A73   A(34,33,35)           109.4194         estimate D2E/DX2                !
 ! A74   A(34,33,36)           110.3234         estimate D2E/DX2                !
 ! A75   A(35,33,36)           107.1977         estimate D2E/DX2                !
 ! A76   A(33,34,37)           108.2178         estimate D2E/DX2                !
 ! A77   A(33,34,38)           112.1583         estimate D2E/DX2                !
 ! A78   A(33,34,39)           113.0194         estimate D2E/DX2                !
 ! A79   A(37,34,38)           107.2315         estimate D2E/DX2                !
 ! A80   A(37,34,39)           107.1197         estimate D2E/DX2                !
 ! A81   A(38,34,39)           108.8097         estimate D2E/DX2                !
 ! A82   A(12,40,41)           117.9256         estimate D2E/DX2                !
 ! A83   A(12,40,42)           105.7728         estimate D2E/DX2                !
 ! A84   A(12,40,43)           105.9343         estimate D2E/DX2                !
 ! A85   A(41,40,42)           108.6162         estimate D2E/DX2                !
 ! A86   A(41,40,43)           110.4343         estimate D2E/DX2                !
 ! A87   A(42,40,43)           107.6598         estimate D2E/DX2                !
 ! A88   A(40,41,44)           107.9192         estimate D2E/DX2                !
 ! A89   A(40,41,45)           112.2757         estimate D2E/DX2                !
 ! A90   A(40,41,46)           113.6166         estimate D2E/DX2                !
 ! A91   A(44,41,45)           106.797          estimate D2E/DX2                !
 ! A92   A(44,41,46)           107.5247         estimate D2E/DX2                !
 ! A93   A(45,41,46)           108.3835         estimate D2E/DX2                !
 ! D1    D(11,1,2,3)           176.2983         estimate D2E/DX2                !
 ! D2    D(11,1,2,4)            -3.4204         estimate D2E/DX2                !
 ! D3    D(12,1,2,3)             3.4204         estimate D2E/DX2                !
 ! D4    D(12,1,2,4)          -176.2983         estimate D2E/DX2                !
 ! D5    D(2,1,11,16)           17.1312         estimate D2E/DX2                !
 ! D6    D(2,1,11,19)          138.6627         estimate D2E/DX2                !
 ! D7    D(2,1,11,26)          -99.4686         estimate D2E/DX2                !
 ! D8    D(12,1,11,16)          45.0877         estimate D2E/DX2                !
 ! D9    D(12,1,11,19)         166.6191         estimate D2E/DX2                !
 ! D10   D(12,1,11,26)         -71.5122         estimate D2E/DX2                !
 ! D11   D(2,1,12,13)          -17.1312         estimate D2E/DX2                !
 ! D12   D(2,1,12,33)           99.4686         estimate D2E/DX2                !
 ! D13   D(2,1,12,40)         -138.6627         estimate D2E/DX2                !
 ! D14   D(11,1,12,13)         -45.0877         estimate D2E/DX2                !
 ! D15   D(11,1,12,33)          71.5122         estimate D2E/DX2                !
 ! D16   D(11,1,12,40)        -166.6191         estimate D2E/DX2                !
 ! D17   D(1,2,3,5)           -174.8847         estimate D2E/DX2                !
 ! D18   D(1,2,3,13)            12.0934         estimate D2E/DX2                !
 ! D19   D(4,2,3,5)              4.8109         estimate D2E/DX2                !
 ! D20   D(4,2,3,13)          -168.211          estimate D2E/DX2                !
 ! D21   D(1,2,4,6)            174.8847         estimate D2E/DX2                !
 ! D22   D(1,2,4,16)           -12.0934         estimate D2E/DX2                !
 ! D23   D(3,2,4,6)             -4.8109         estimate D2E/DX2                !
 ! D24   D(3,2,4,16)           168.2109         estimate D2E/DX2                !
 ! D25   D(2,3,5,7)             -1.1002         estimate D2E/DX2                !
 ! D26   D(2,3,5,8)            179.7966         estimate D2E/DX2                !
 ! D27   D(13,3,5,7)           170.9576         estimate D2E/DX2                !
 ! D28   D(13,3,5,8)            -8.1455         estimate D2E/DX2                !
 ! D29   D(2,3,13,12)          -26.7074         estimate D2E/DX2                !
 ! D30   D(2,3,13,14)           89.824          estimate D2E/DX2                !
 ! D31   D(2,3,13,15)         -150.8433         estimate D2E/DX2                !
 ! D32   D(5,3,13,12)          161.1052         estimate D2E/DX2                !
 ! D33   D(5,3,13,14)          -82.3634         estimate D2E/DX2                !
 ! D34   D(5,3,13,15)           36.9693         estimate D2E/DX2                !
 ! D35   D(2,4,6,7)              1.1002         estimate D2E/DX2                !
 ! D36   D(2,4,6,9)           -179.7966         estimate D2E/DX2                !
 ! D37   D(16,4,6,7)          -170.9576         estimate D2E/DX2                !
 ! D38   D(16,4,6,9)             8.1456         estimate D2E/DX2                !
 ! D39   D(2,4,16,11)           26.7074         estimate D2E/DX2                !
 ! D40   D(2,4,16,17)          -89.824          estimate D2E/DX2                !
 ! D41   D(2,4,16,18)          150.8432         estimate D2E/DX2                !
 ! D42   D(6,4,16,11)         -161.1052         estimate D2E/DX2                !
 ! D43   D(6,4,16,17)           82.3635         estimate D2E/DX2                !
 ! D44   D(6,4,16,18)          -36.9693         estimate D2E/DX2                !
 ! D45   D(3,5,7,6)             -2.2978         estimate D2E/DX2                !
 ! D46   D(3,5,7,10)           179.3733         estimate D2E/DX2                !
 ! D47   D(8,5,7,6)            176.8123         estimate D2E/DX2                !
 ! D48   D(8,5,7,10)            -1.5166         estimate D2E/DX2                !
 ! D49   D(4,6,7,5)              2.2978         estimate D2E/DX2                !
 ! D50   D(4,6,7,10)          -179.3733         estimate D2E/DX2                !
 ! D51   D(9,6,7,5)           -176.8124         estimate D2E/DX2                !
 ! D52   D(9,6,7,10)             1.5166         estimate D2E/DX2                !
 ! D53   D(1,11,16,4)          -26.9354         estimate D2E/DX2                !
 ! D54   D(1,11,16,17)          90.5385         estimate D2E/DX2                !
 ! D55   D(1,11,16,18)        -153.0185         estimate D2E/DX2                !
 ! D56   D(19,11,16,4)        -146.9489         estimate D2E/DX2                !
 ! D57   D(19,11,16,17)        -29.4749         estimate D2E/DX2                !
 ! D58   D(19,11,16,18)         86.9681         estimate D2E/DX2                !
 ! D59   D(26,11,16,4)          85.5179         estimate D2E/DX2                !
 ! D60   D(26,11,16,17)       -157.0081         estimate D2E/DX2                !
 ! D61   D(26,11,16,18)        -40.5651         estimate D2E/DX2                !
 ! D62   D(1,11,19,20)        -163.0336         estimate D2E/DX2                !
 ! D63   D(1,11,19,21)          72.7538         estimate D2E/DX2                !
 ! D64   D(1,11,19,22)         -41.3552         estimate D2E/DX2                !
 ! D65   D(16,11,19,20)        -44.7221         estimate D2E/DX2                !
 ! D66   D(16,11,19,21)       -168.9347         estimate D2E/DX2                !
 ! D67   D(16,11,19,22)         76.9563         estimate D2E/DX2                !
 ! D68   D(26,11,19,20)         80.9794         estimate D2E/DX2                !
 ! D69   D(26,11,19,21)        -43.2332         estimate D2E/DX2                !
 ! D70   D(26,11,19,22)       -157.3422         estimate D2E/DX2                !
 ! D71   D(1,11,26,27)        -174.177          estimate D2E/DX2                !
 ! D72   D(1,11,26,28)          62.6433         estimate D2E/DX2                !
 ! D73   D(1,11,26,29)         -51.1315         estimate D2E/DX2                !
 ! D74   D(16,11,26,27)         71.6725         estimate D2E/DX2                !
 ! D75   D(16,11,26,28)        -51.5072         estimate D2E/DX2                !
 ! D76   D(16,11,26,29)       -165.2821         estimate D2E/DX2                !
 ! D77   D(19,11,26,27)        -54.9751         estimate D2E/DX2                !
 ! D78   D(19,11,26,28)       -178.1548         estimate D2E/DX2                !
 ! D79   D(19,11,26,29)         68.0703         estimate D2E/DX2                !
 ! D80   D(1,12,13,3)           26.9354         estimate D2E/DX2                !
 ! D81   D(1,12,13,14)         -90.5385         estimate D2E/DX2                !
 ! D82   D(1,12,13,15)         153.0185         estimate D2E/DX2                !
 ! D83   D(33,12,13,3)         -85.5179         estimate D2E/DX2                !
 ! D84   D(33,12,13,14)        157.0081         estimate D2E/DX2                !
 ! D85   D(33,12,13,15)         40.5652         estimate D2E/DX2                !
 ! D86   D(40,12,13,3)         146.9489         estimate D2E/DX2                !
 ! D87   D(40,12,13,14)         29.4749         estimate D2E/DX2                !
 ! D88   D(40,12,13,15)        -86.968          estimate D2E/DX2                !
 ! D89   D(1,12,33,34)         174.177          estimate D2E/DX2                !
 ! D90   D(1,12,33,35)          51.1315         estimate D2E/DX2                !
 ! D91   D(1,12,33,36)         -62.6433         estimate D2E/DX2                !
 ! D92   D(13,12,33,34)        -71.6725         estimate D2E/DX2                !
 ! D93   D(13,12,33,35)        165.2821         estimate D2E/DX2                !
 ! D94   D(13,12,33,36)         51.5072         estimate D2E/DX2                !
 ! D95   D(40,12,33,34)         54.9752         estimate D2E/DX2                !
 ! D96   D(40,12,33,35)        -68.0703         estimate D2E/DX2                !
 ! D97   D(40,12,33,36)        178.1548         estimate D2E/DX2                !
 ! D98   D(1,12,40,41)         163.0336         estimate D2E/DX2                !
 ! D99   D(1,12,40,42)          41.3552         estimate D2E/DX2                !
 ! D100  D(1,12,40,43)         -72.7538         estimate D2E/DX2                !
 ! D101  D(13,12,40,41)         44.7221         estimate D2E/DX2                !
 ! D102  D(13,12,40,42)        -76.9563         estimate D2E/DX2                !
 ! D103  D(13,12,40,43)        168.9347         estimate D2E/DX2                !
 ! D104  D(33,12,40,41)        -80.9794         estimate D2E/DX2                !
 ! D105  D(33,12,40,42)        157.3422         estimate D2E/DX2                !
 ! D106  D(33,12,40,43)         43.2332         estimate D2E/DX2                !
 ! D107  D(11,19,20,23)        178.3453         estimate D2E/DX2                !
 ! D108  D(11,19,20,24)        -62.5254         estimate D2E/DX2                !
 ! D109  D(11,19,20,25)         60.915          estimate D2E/DX2                !
 ! D110  D(21,19,20,23)        -59.7124         estimate D2E/DX2                !
 ! D111  D(21,19,20,24)         59.4169         estimate D2E/DX2                !
 ! D112  D(21,19,20,25)       -177.1427         estimate D2E/DX2                !
 ! D113  D(22,19,20,23)         58.1347         estimate D2E/DX2                !
 ! D114  D(22,19,20,24)        177.264          estimate D2E/DX2                !
 ! D115  D(22,19,20,25)        -59.2956         estimate D2E/DX2                !
 ! D116  D(11,26,27,30)       -169.9376         estimate D2E/DX2                !
 ! D117  D(11,26,27,31)        -51.4772         estimate D2E/DX2                !
 ! D118  D(11,26,27,32)         71.978          estimate D2E/DX2                !
 ! D119  D(28,26,27,30)        -49.2999         estimate D2E/DX2                !
 ! D120  D(28,26,27,31)         69.1606         estimate D2E/DX2                !
 ! D121  D(28,26,27,32)       -167.3842         estimate D2E/DX2                !
 ! D122  D(29,26,27,30)         68.4031         estimate D2E/DX2                !
 ! D123  D(29,26,27,31)       -173.1364         estimate D2E/DX2                !
 ! D124  D(29,26,27,32)        -49.6812         estimate D2E/DX2                !
 ! D125  D(12,33,34,37)        169.9377         estimate D2E/DX2                !
 ! D126  D(12,33,34,38)        -71.978          estimate D2E/DX2                !
 ! D127  D(12,33,34,39)         51.4772         estimate D2E/DX2                !
 ! D128  D(35,33,34,37)        -68.403          estimate D2E/DX2                !
 ! D129  D(35,33,34,38)         49.6813         estimate D2E/DX2                !
 ! D130  D(35,33,34,39)        173.1365         estimate D2E/DX2                !
 ! D131  D(36,33,34,37)         49.3            estimate D2E/DX2                !
 ! D132  D(36,33,34,38)        167.3843         estimate D2E/DX2                !
 ! D133  D(36,33,34,39)        -69.1605         estimate D2E/DX2                !
 ! D134  D(12,40,41,44)       -178.3453         estimate D2E/DX2                !
 ! D135  D(12,40,41,45)        -60.915          estimate D2E/DX2                !
 ! D136  D(12,40,41,46)         62.5255         estimate D2E/DX2                !
 ! D137  D(42,40,41,44)        -58.1347         estimate D2E/DX2                !
 ! D138  D(42,40,41,45)         59.2956         estimate D2E/DX2                !
 ! D139  D(42,40,41,46)       -177.2639         estimate D2E/DX2                !
 ! D140  D(43,40,41,44)         59.7124         estimate D2E/DX2                !
 ! D141  D(43,40,41,45)        177.1427         estimate D2E/DX2                !
 ! D142  D(43,40,41,46)        -59.4168         estimate D2E/DX2                !
 --------------------------------------------------------------------------------
 Trust Radius=3.00D-01 FncErr=1.00D-07 GrdErr=1.00D-06 EigMax=2.50D+02 EigMin=1.00D-04
 Number of steps in this run=    276 maximum allowed number of steps=    276.
 GradGradGradGradGradGradGradGradGradGradGradGradGradGradGradGradGradGrad

                          Input orientation:                          
 ---------------------------------------------------------------------
 Center     Atomic      Atomic             Coordinates (Angstroms)
 Number     Number       Type             X           Y           Z
 ---------------------------------------------------------------------
      1         78           0        0.000000   -0.665794   -0.118797
      2          6           0        0.000000    1.263800   -0.173246
      3          6           0        1.236822    1.907884   -0.188384
      4          6           0       -1.236822    1.907884   -0.188384
      5          6           0        1.228629    3.308637   -0.116556
      6          6           0       -1.228628    3.308637   -0.116556
      7          6           0        0.000000    3.992375   -0.057516
      8          1           0        2.160190    3.868794   -0.120800
      9          1           0       -2.160189    3.868794   -0.120799
     10          1           0        0.000000    5.075319    0.008268
     11          7           0       -2.124272   -0.410865    0.006260
     12          7           0        2.124272   -0.410865    0.006260
     13          6           0        2.423044    1.013448   -0.446212
     14          1           0        2.593295    0.971746   -1.529869
     15          1           0        3.349263    1.370163    0.020942
     16          6           0       -2.423044    1.013449   -0.446212
     17          1           0       -2.593295    0.971746   -1.529869
     18          1           0       -3.349262    1.370164    0.020943
     19          6           0       -2.814026   -1.441940   -0.867985
     20          6           0       -4.279646   -1.201586   -1.239823
     21          1           0       -2.703217   -2.402437   -0.346208
     22          1           0       -2.222429   -1.494229   -1.790964
     23          1           0       -4.600734   -2.021125   -1.891141
     24          1           0       -4.951490   -1.182694   -0.379867
     25          1           0       -4.417467   -0.275128   -1.805918
     26          6           0       -2.429878   -0.566875    1.489891
     27          6           0       -3.899777   -0.573592    1.904073
     28          1           0       -1.898384    0.254779    1.985002
     29          1           0       -1.955310   -1.501988    1.813553
     30          1           0       -3.947986   -0.510253    2.995796
     31          1           0       -4.460855    0.279354    1.506431
     32          1           0       -4.406850   -1.497002    1.610423
     33          6           0        2.429878   -0.566875    1.489891
     34          6           0        3.899777   -0.573591    1.904073
     35          1           0        1.955310   -1.501988    1.813553
     36          1           0        1.898384    0.254779    1.985002
     37          1           0        3.947985   -0.510254    2.995796
     38          1           0        4.406851   -1.497000    1.610422
     39          1           0        4.460854    0.279356    1.506432
     40          6           0        2.814026   -1.441940   -0.867985
     41          6           0        4.279646   -1.201586   -1.239823
     42          1           0        2.222429   -1.494229   -1.790964
     43          1           0        2.703217   -2.402437   -0.346208
     44          1           0        4.600734   -2.021125   -1.891141
     45          1           0        4.417467   -0.275129   -1.805918
     46          1           0        4.951490   -1.182695   -0.379867
 ---------------------------------------------------------------------
                    Distance matrix (angstroms):
                    1          2          3          4          5
     1  Pt   0.000000
     2  C    1.930362   0.000000
     3  C    2.856289   1.394562   0.000000
     4  C    2.856289   1.394562   2.473644   0.000000
     5  C    4.160004   2.386232   1.402617   2.836497   0.000000
     6  C    4.160004   2.386231   2.836496   1.402617   2.457257
     7  C    4.658572   2.731028   2.427336   2.427336   1.407307
     8  H    5.022839   3.384548   2.168489   3.922936   1.087014
     9  H    5.022839   3.384547   3.922935   2.168489   3.434804
    10  H    5.742519   3.815839   3.406031   3.406031   2.155522
    11  N    2.143166   2.710951   4.087962   2.490392   5.009164
    12  N    2.143166   2.710951   2.490392   4.087962   3.827787
    13  C    2.966175   2.451189   1.507851   3.776389   2.608293
    14  H    3.376069   2.941241   2.125078   4.164821   3.053003
    15  H    3.922016   3.356573   2.189833   4.622244   2.876400
    16  C    2.966176   2.451189   3.776388   1.507850   4.325653
    17  H    3.376069   2.941241   4.164821   2.125078   4.697405
    18  H    3.922016   3.356572   4.622243   2.189832   4.973296
    19  C    3.013707   3.965152   5.300240   3.764406   6.282968
    20  C    4.456360   5.052829   6.419170   4.475836   7.207283
    21  H    3.221029   4.558354   5.841890   4.555666   6.937472
    22  H    2.902006   3.893960   5.109702   3.887680   6.146622
    23  H    5.113206   5.908354   7.239721   5.445401   8.095492
    24  H    4.985238   5.526778   6.919794   4.836021   7.644296
    25  H    4.744788   4.954587   6.273192   4.183116   6.897515
    26  C    2.915814   3.467233   4.731356   3.219382   5.566412
    27  C    4.394174   4.785345   6.076245   4.198503   6.742047
    28  H    2.979478   3.046312   4.157629   2.809631   4.849825
    29  H    2.873401   3.926855   5.081799   4.018856   6.083165
    30  H    5.031051   5.364390   6.547413   4.830818   7.146188
    31  H    4.840857   4.867204   6.163443   3.989849   6.646869
    32  H    4.806395   5.497620   6.832276   4.987788   7.604949
    33  C    2.915814   3.467233   3.219382   4.731356   4.363859
    34  C    4.394174   4.785344   4.198503   6.076244   5.127345
    35  H    2.873401   3.926855   4.018856   5.081799   5.234071
    36  H    2.979478   3.046312   2.809631   4.157629   3.767116
    37  H    5.031050   5.364390   4.830818   6.547413   5.627216
    38  H    4.806395   5.497620   4.987787   6.832275   6.014790
    39  H    4.840857   4.867203   3.989848   6.163442   4.717829
    40  C    3.013707   3.965152   3.764406   5.300240   5.064199
    41  C    4.456360   5.052829   4.475836   6.419170   5.559905
    42  H    2.902006   3.893960   3.887680   5.109702   5.182548
    43  H    3.221029   4.558354   4.555666   5.841890   5.902840
    44  H    5.113206   5.908354   5.445401   7.239721   6.551840
    45  H    4.744788   4.954587   4.183117   6.273193   5.085864
    46  H    4.985238   5.526779   4.836021   6.919794   5.839614
                    6          7          8          9         10
     6  C    0.000000
     7  C    1.407306   0.000000
     8  H    3.434804   2.164647   0.000000
     9  H    1.087014   2.164646   4.320379   0.000000
    10  H    2.155522   1.084940   2.477657   2.477656   0.000000
    11  N    3.827787   4.889286   6.057082   4.281695   5.883090
    12  N    5.009163   4.889286   4.281695   6.057081   5.883090
    13  C    4.325653   3.859564   2.885825   5.409706   4.751472
    14  H    4.697404   4.244667   3.250530   5.742297   5.092186
    15  H    4.973296   4.254376   2.770766   6.051224   4.994587
    16  C    2.608293   3.859563   5.409706   2.885824   4.751472
    17  H    3.053003   4.244667   5.742298   3.250530   5.092186
    18  H    2.876399   4.254374   6.051223   2.770765   4.994586
    19  C    5.064199   6.173118   7.314712   5.402748   7.152708
    20  C    5.559906   6.833041   8.272391   5.608303   7.698872
    21  H    5.902840   6.948694   7.939262   6.298732   7.959263
    22  H    5.182548   6.168213   7.124522   5.617414   7.164872
    23  H    6.551840   7.790450   9.139767   6.616760   8.667989
    24  H    5.839614   7.169554   8.727006   5.777197   7.989407
    25  H    5.085864   6.386118   7.954702   5.010691   7.171650
    26  C    4.363859   5.393101   6.583176   4.726755   6.319325
    27  C    5.127346   6.316973   7.781909   5.182766   7.121273
    28  H    3.767117   4.663193   5.828167   4.190948   5.545173
    29  H    5.234071   6.124717   7.037355   5.712179   7.095298
    30  H    5.627216   6.721828   8.136279   5.664401   7.463949
    31  H    4.717831   6.010964   7.705206   4.563444   6.719003
    32  H    6.014792   7.234335   8.655340   6.069298   8.073576
    33  C    5.566411   5.393101   4.726755   6.583175   6.319325
    34  C    6.742045   6.316972   5.182765   7.781907   7.121272
    35  H    6.083165   6.124717   5.712180   7.037354   7.095298
    36  H    4.849825   4.663193   4.190948   5.828166   5.545173
    37  H    7.146187   6.721828   5.664401   8.136278   7.463949
    38  H    7.604947   7.234334   6.069297   8.655339   8.073575
    39  H    6.646867   6.010962   4.563442   7.705203   6.719001
    40  C    6.282967   6.173118   5.402748   7.314711   7.152708
    41  C    7.207283   6.833041   5.608303   8.272390   7.698872
    42  H    6.146622   6.168213   5.617414   7.124522   7.164872
    43  H    6.937472   6.948694   6.298732   7.939261   7.959263
    44  H    8.095491   7.790450   6.616760   9.139767   8.667989
    45  H    6.897515   6.386119   5.010691   7.954702   7.171651
    46  H    7.644296   7.169555   5.777198   8.727006   7.989408
                   11         12         13         14         15
    11  N    0.000000
    12  N    4.248544   0.000000
    13  C    4.786594   1.524029   0.000000
    14  H    5.150412   2.119266   1.097742   0.000000
    15  H    5.756028   2.161684   1.096978   1.770660   0.000000
    16  C    1.524030   4.786594   4.846088   5.132223   5.802155
    17  H    2.119266   5.150412   5.132223   5.186590   6.154490
    18  H    2.161685   5.756028   5.802154   6.154489   6.698525
    19  C    1.517623   5.119981   5.799459   5.958447   6.832587
    20  C    2.612202   6.571768   7.103678   7.214209   8.148845
    21  H    2.103751   5.234047   6.160911   6.390556   7.141416
    22  H    2.100792   4.826749   5.447680   5.416678   6.521618
    23  H    3.510831   7.170688   7.786521   7.800118   8.852082
    24  H    2.956007   7.128199   7.694881   7.930189   8.693689
    25  H    2.925945   6.789460   7.092378   7.126127   8.146563
    26  C    1.522792   4.792263   5.458642   6.059585   6.269641
    27  C    2.603957   6.318017   6.929690   7.505998   7.737761
    28  H    2.099887   4.532137   5.016086   5.748351   5.713091
    29  H    2.117878   4.593457   5.532083   6.163411   6.292948
    30  H    3.503304   6.769012   7.399940   8.091126   8.101578
    31  H    2.861212   6.789021   7.193037   7.711002   8.024617
    32  H    2.993860   6.812385   7.561717   8.059664   8.420473
    33  C    4.792263   1.522792   2.499192   3.393083   2.599076
    34  C    6.318017   2.603957   3.197385   3.985840   2.761780
    35  H    4.593457   2.117878   3.413610   4.207714   3.661395
    36  H    4.532137   2.099887   2.600317   3.653938   2.684523
    37  H    6.769011   3.503303   4.061346   4.951076   3.569901
    38  H    6.812385   2.993859   3.803628   4.386926   3.444643
    39  H    6.789021   2.861212   2.916227   3.631295   2.152249
    40  C    5.119981   1.517623   2.521843   2.512507   2.997431
    41  C    6.571768   2.612202   2.997193   2.766094   3.011484
    42  H    4.826749   2.100792   2.852551   2.507338   3.571764
    43  H    5.234047   2.103751   3.428814   3.577464   3.845086
    44  H    7.170688   3.510831   4.004845   3.621824   4.089386
    45  H    6.789460   2.925945   2.736230   2.226770   2.680571
    46  H    7.128199   2.956007   3.349699   3.394879   3.040537
                   16         17         18         19         20
    16  C    0.000000
    17  H    1.097742   0.000000
    18  H    1.096977   1.770661   0.000000
    19  C    2.521843   2.512507   2.997432   0.000000
    20  C    2.997194   2.766094   3.011485   1.531037   0.000000
    21  H    3.428815   3.577464   3.845087   1.098674   2.173872
    22  H    2.852552   2.507338   3.571765   1.097548   2.149776
    23  H    4.004846   3.621824   4.089387   2.138838   1.094969
    24  H    3.349699   3.394878   3.040537   2.207764   1.091447
    25  H    2.736230   2.226769   2.680572   2.193671   1.094433
    26  C    2.499193   3.393083   2.599076   2.544187   3.357951
    27  C    3.197386   3.985840   2.761781   3.101159   3.228430
    28  H    2.600317   3.653938   2.684522   3.443369   4.265080
    29  H    3.413610   4.207714   3.661395   2.816318   3.849141
    30  H    4.061346   4.951076   3.569900   4.133123   4.304464
    31  H    2.916228   3.631295   2.152250   3.363443   3.125369
    32  H    3.803630   4.386927   3.444645   2.946630   2.868336
    33  C    5.458642   6.059585   6.269640   5.815827   7.271307
    34  C    6.929690   7.505998   7.737760   7.315291   8.785296
    35  H    5.532083   6.163411   6.292948   5.471820   6.948958
    36  H    5.016086   5.748351   5.713090   5.764130   7.119589
    37  H    7.399939   8.091125   8.101576   7.843573   9.279672
    38  H    7.561717   8.059664   8.420473   7.634566   9.146934
    39  H    7.193036   7.711002   8.024615   7.843762   9.280703
    40  C    5.799459   5.958447   6.832587   5.628052   7.107476
    41  C    7.103679   7.214209   8.148844   7.107476   8.559292
    42  H    5.447681   5.416678   6.521618   5.120596   6.531950
    43  H    6.160911   6.390556   7.141416   5.624480   7.141496
    44  H    7.786521   7.800118   8.852081   7.507394   8.941868
    45  H    7.092378   7.126127   8.146563   7.384826   8.764620
    46  H    7.694882   7.930189   8.693689   7.785159   9.271125
                   21         22         23         24         25
    21  H    0.000000
    22  H    1.772941   0.000000
    23  H    2.476447   2.438030   0.000000
    24  H    2.558053   3.088045   1.763504   0.000000
    25  H    3.097555   2.510901   1.757656   1.772704   0.000000
    26  C    2.610606   3.415703   4.273036   3.199024   3.859791
    27  C    3.136908   4.161054   4.121934   2.587177   3.757807
    28  H    3.625340   4.173961   5.244704   4.120727   4.582320
    29  H    2.456571   3.614409   4.581760   3.726947   4.546204
    30  H    4.037177   5.182550   5.156643   3.585289   4.830337
    31  H    3.703183   4.362220   4.105516   2.436478   3.358718
    32  H    2.747832   4.042417   3.545877   2.087265   3.628288
    33  C    5.752322   5.767838   7.935725   7.639360   7.604841
    34  C    7.211655   7.209874   9.421130   9.161458   9.112061
    35  H    5.213180   5.517799   7.548243   7.253753   7.430884
    36  H    5.802592   5.856454   7.902073   7.387808   7.385245
    37  H    7.680354   7.871168   9.962203   9.541904   9.648447
    38  H    7.429757   7.450959   9.678442   9.572804   9.541118
    39  H    7.870718   7.660594   9.947266   9.710197   9.492297
    40  C    5.624480   5.120596   7.507394   7.785159   7.384826
    41  C    7.141496   6.531950   8.941868   9.271125   8.764620
    42  H    5.212883   4.444858   6.844210   7.318016   6.750900
    43  H    5.406434   5.212883   7.475287   7.751351   7.573661
    44  H    7.475287   6.844210   9.201468   9.707312   9.186061
    45  H    7.573660   6.750900   9.186061   9.520223   8.834934
    46  H    7.751351   7.318016   9.707312   9.902980   9.520223
                   26         27         28         29         30
    26  C    0.000000
    27  C    1.527153   0.000000
    28  H    1.096693   2.167561   0.000000
    29  H    1.097455   2.156633   1.766031   0.000000
    30  H    2.139067   1.094621   2.409947   2.520316   0.000000
    31  H    2.200283   1.095648   2.606893   3.089540   1.762022
    32  H    2.188169   1.093636   3.082442   2.459946   1.761672
    33  C    4.859756   6.343195   4.433295   4.495450   6.553480
    34  C    6.343195   7.799554   5.857595   5.928926   7.923589
    35  H    4.495450   5.928925   4.238701   3.910620   6.101651
    36  H    4.433295   5.857595   3.796768   4.238701   5.982225
    37  H    6.553479   7.923588   5.982225   6.101650   7.895971
    38  H    6.900763   8.362953   6.554771   6.365405   8.526209
    39  H    6.942519   8.413429   6.377268   6.665934   8.576146
    40  C    5.815827   7.315291   5.764130   5.471820   7.843574
    41  C    7.271307   8.785296   7.119589   6.948958   9.279673
    42  H    5.767838   7.209874   5.856454   5.517799   7.871169
    43  H    5.752322   7.211655   5.802592   5.213180   7.680355
    44  H    7.935725   9.421130   7.902073   7.548243   9.962204
    45  H    7.604841   9.112061   7.385245   7.430884   9.648448
    46  H    7.639360   9.161458   7.387808   7.253753   9.541905
                   31         32         33         34         35
    31  H    0.000000
    32  H    1.780217   0.000000
    33  C    6.942520   6.900762   0.000000
    34  C    8.413430   8.362952   1.527153   0.000000
    35  H    6.665934   6.365404   1.097455   2.156633   0.000000
    36  H    6.377269   6.554771   1.096693   2.167561   1.766031
    37  H    8.576146   8.526207   2.139066   1.094621   2.520315
    38  H    9.044471   8.813701   2.188169   1.093636   2.459947
    39  H    8.921709   9.044470   2.200283   1.095648   3.089540
    40  C    7.843762   7.634565   2.544187   3.101160   2.816318
    41  C    9.280703   9.146933   3.357951   3.228430   3.849141
    42  H    7.660594   7.450958   3.415703   4.161054   3.614409
    43  H    7.870718   7.429756   2.610606   3.136909   2.456571
    44  H    9.947266   9.678441   4.273036   4.121935   4.581760
    45  H    9.492297   9.541118   3.859791   3.757807   4.546204
    46  H    9.710198   9.572804   3.199024   2.587178   3.726947
                   36         37         38         39         40
    36  H    0.000000
    37  H    2.409947   0.000000
    38  H    3.082442   1.761672   0.000000
    39  H    2.606892   1.762023   1.780217   0.000000
    40  C    3.443369   4.133123   2.946629   3.363444   0.000000
    41  C    4.265080   4.304464   2.868335   3.125371   1.531037
    42  H    4.173961   5.182550   4.042417   4.362221   1.097548
    43  H    3.625340   4.037177   2.747833   3.703185   1.098674
    44  H    5.244704   5.156643   3.545877   4.105518   2.138838
    45  H    4.582320   4.830337   3.628286   3.358720   2.193670
    46  H    4.120727   3.585289   2.087264   2.436481   2.207763
                   41         42         43         44         45
    41  C    0.000000
    42  H    2.149776   0.000000
    43  H    2.173872   1.772941   0.000000
    44  H    1.094969   2.438030   2.476447   0.000000
    45  H    1.094432   2.510900   3.097555   1.757655   0.000000
    46  H    1.091447   3.088045   2.558053   1.763503   1.772704
                   46
    46  H    0.000000
 Stoichiometry    C16H27N2Pt(1+)
 Framework group  C1[X(C16H27N2Pt)]
 Deg. of freedom   132
 Full point group                 C1      NOp   1
 Largest Abelian subgroup         C1      NOp   1
 Largest concise Abelian subgroup C1      NOp   1
                         Standard orientation:                         
 ---------------------------------------------------------------------
 Center     Atomic      Atomic             Coordinates (Angstroms)
 Number     Number       Type             X           Y           Z
 ---------------------------------------------------------------------
      1         78           0       -0.000000   -0.665794   -0.118797
      2          6           0        0.000000    1.263800   -0.173246
      3          6           0        1.236822    1.907884   -0.188384
      4          6           0       -1.236822    1.907884   -0.188384
      5          6           0        1.228629    3.308637   -0.116556
      6          6           0       -1.228628    3.308637   -0.116556
      7          6           0        0.000000    3.992375   -0.057516
      8          1           0        2.160190    3.868794   -0.120800
      9          1           0       -2.160189    3.868794   -0.120799
     10          1           0        0.000000    5.075319    0.008268
     11          7           0       -2.124272   -0.410865    0.006260
     12          7           0        2.124272   -0.410865    0.006260
     13          6           0        2.423044    1.013448   -0.446212
     14          1           0        2.593295    0.971746   -1.529869
     15          1           0        3.349263    1.370163    0.020942
     16          6           0       -2.423044    1.013449   -0.446212
     17          1           0       -2.593295    0.971746   -1.529869
     18          1           0       -3.349262    1.370164    0.020943
     19          6           0       -2.814026   -1.441940   -0.867985
     20          6           0       -4.279646   -1.201586   -1.239823
     21          1           0       -2.703217   -2.402437   -0.346208
     22          1           0       -2.222429   -1.494229   -1.790964
     23          1           0       -4.600734   -2.021125   -1.891141
     24          1           0       -4.951490   -1.182694   -0.379867
     25          1           0       -4.417467   -0.275128   -1.805918
     26          6           0       -2.429878   -0.566875    1.489891
     27          6           0       -3.899777   -0.573592    1.904073
     28          1           0       -1.898384    0.254779    1.985002
     29          1           0       -1.955310   -1.501988    1.813553
     30          1           0       -3.947986   -0.510253    2.995796
     31          1           0       -4.460855    0.279354    1.506431
     32          1           0       -4.406850   -1.497002    1.610423
     33          6           0        2.429878   -0.566875    1.489891
     34          6           0        3.899777   -0.573591    1.904073
     35          1           0        1.955310   -1.501988    1.813553
     36          1           0        1.898384    0.254779    1.985002
     37          1           0        3.947985   -0.510254    2.995796
     38          1           0        4.406851   -1.497000    1.610422
     39          1           0        4.460854    0.279356    1.506432
     40          6           0        2.814026   -1.441940   -0.867985
     41          6           0        4.279646   -1.201586   -1.239823
     42          1           0        2.222429   -1.494229   -1.790964
     43          1           0        2.703217   -2.402437   -0.346208
     44          1           0        4.600734   -2.021125   -1.891141
     45          1           0        4.417467   -0.275129   -1.805918
     46          1           0        4.951490   -1.182695   -0.379867
 ---------------------------------------------------------------------
 Rotational constants (GHZ):           0.4407871           0.2434332           0.1886998
 General basis read from cards:  (5D, 7F)
 ======================================================================================================
                                       Pseudopotential Parameters
 ======================================================================================================
  Center     Atomic      Valence      Angular      Power
  Number     Number     Electrons     Momentum     of R      Exponent        Coefficient   SO-Coeffient
 ======================================================================================================
    1         78           18
                                      G and up 
                                                     1      728.9394056       -0.16192680    0.00000000
                                                     2      320.6567800    -1320.28738520    0.00000000
                                                     2       52.8680174     -298.31781350    0.00000000
                                                     2       12.0280128      -87.58370650    0.00000000
                                                     2        3.5238913       -8.14932740    0.00000000
                                      S - G
                                                     0      409.4437358        2.73342180    0.00000000
                                                     1      274.5419231       59.70243290    0.00000000
                                                     2      127.5658570      891.45895500    0.00000000
                                                     2       32.9036631      368.44676560    0.00000000
                                                     2        5.0593880      238.02630900    0.00000000
                                                     2        4.1506556     -107.05564540    0.00000000
                                      P - G
                                                     0      466.1728892        1.88785680    0.00000000
                                                     1      120.7888259       76.01386290    0.00000000
                                                     2       36.4118791      343.55111160    0.00000000
                                                     2        5.6985408      119.49117860    0.00000000
                                      D - G
                                                     0      249.5650763        2.93436780    0.00000000
                                                     1      126.6678585       59.33065710    0.00000000
                                                     2       63.1430586      452.44451940    0.00000000
                                                     2       17.9059470      210.47694790    0.00000000
                                                     2        4.2239373       58.62541120    0.00000000
                                      F - G
                                                     0      121.8158799        3.95342530    0.00000000
                                                     1       60.8757030       53.85551820    0.00000000
                                                     2       31.4767147      247.43051330    0.00000000
                                                     2        9.8811751      127.81879760    0.00000000
                                                     2        2.7319874       15.37720460    0.00000000
    2          6
                                   No pseudopotential on this center.
    3          6
                                   No pseudopotential on this center.
    4          6
                                   No pseudopotential on this center.
    5          6
                                   No pseudopotential on this center.
    6          6
                                   No pseudopotential on this center.
    7          6
                                   No pseudopotential on this center.
    8          1
                                   No pseudopotential on this center.
    9          1
                                   No pseudopotential on this center.
   10          1
                                   No pseudopotential on this center.
   11          7
                                   No pseudopotential on this center.
   12          7
                                   No pseudopotential on this center.
   13          6
                                   No pseudopotential on this center.
   14          1
                                   No pseudopotential on this center.
   15          1
                                   No pseudopotential on this center.
   16          6
                                   No pseudopotential on this center.
   17          1
                                   No pseudopotential on this center.
   18          1
                                   No pseudopotential on this center.
   19          6
                                   No pseudopotential on this center.
   20          6
                                   No pseudopotential on this center.
   21          1
                                   No pseudopotential on this center.
   22          1
                                   No pseudopotential on this center.
   23          1
                                   No pseudopotential on this center.
   24          1
                                   No pseudopotential on this center.
   25          1
                                   No pseudopotential on this center.
   26          6
                                   No pseudopotential on this center.
   27          6
                                   No pseudopotential on this center.
   28          1
                                   No pseudopotential on this center.
   29          1
                                   No pseudopotential on this center.
   30          1
                                   No pseudopotential on this center.
   31          1
                                   No pseudopotential on this center.
   32          1
                                   No pseudopotential on this center.
   33          6
                                   No pseudopotential on this center.
   34          6
                                   No pseudopotential on this center.
   35          1
                                   No pseudopotential on this center.
   36          1
                                   No pseudopotential on this center.
   37          1
                                   No pseudopotential on this center.
   38          1
                                   No pseudopotential on this center.
   39          1
                                   No pseudopotential on this center.
   40          6
                                   No pseudopotential on this center.
   41          6
                                   No pseudopotential on this center.
   42          1
                                   No pseudopotential on this center.
   43          1
                                   No pseudopotential on this center.
   44          1
                                   No pseudopotential on this center.
   45          1
                                   No pseudopotential on this center.
   46          1
                                   No pseudopotential on this center.
 ======================================================================================================
 There are   660 symmetry adapted cartesian basis functions of A   symmetry.
 There are   618 symmetry adapted basis functions of A   symmetry.
   618 basis functions,   948 primitive gaussians,   660 cartesian basis functions
    77 alpha electrons       77 beta electrons
       nuclear repulsion energy      1751.6317449061 Hartrees.
 NAtoms=   46 NActive=   46 NUniq=   46 SFac= 1.00D+00 NAtFMM=   60 NAOKFM=F Big=F
 Integral buffers will be    131072 words long.
 Raffenetti 2 integral format.
 Two-electron integral symmetry is turned on.
 Nuclear repulsion after empirical dispersion term =     1751.6220401284 Hartrees.
 ------------------------------------------------------------------------------
 Polarizable Continuum Model (PCM)
 =================================
 Model                : PCM.
 Atomic radii         : UFF (Universal Force Field).
 Polarization charges : Total charges.
 Charge compensation  : None.
 Solution method      : On-the-fly selection.
 Cavity type          : Scaled VdW (van der Waals Surface) (Alpha=1.100).
 Cavity algorithm     : GePol (No added spheres)
                        Default sphere list used, NSphG=   46.
                        Lebedev-Laikov grids with approx.  5.0 points / Ang**2.
                        Smoothing algorithm: York/Karplus (Gamma=1.0000).
                        Polarization charges: spherical gaussians, with
                                              point-specific exponents (IZeta= 3).
                        Self-potential: point-specific (ISelfS= 7).
                        Self-field    : sphere-specific E.n sum rule (ISelfD= 2).
 1st derivatives      : Analytical E(r).r(x)/FMM algorithm (CHGder, D1EAlg=3).
                        Cavity 1st derivative terms included.
 Solvent              : TetraHydroFuran, Eps=   7.425700 Eps(inf)=   1.974025
 ------------------------------------------------------------------------------
 One-electron integrals computed using PRISM.
 PrsmSu:  requested number of processors reduced to:   3 ShMem   1 Linda.
   1 Symmetry operations used in ECPInt.
 ECPInt:  NShTT=   26565 NPrTT=   84660 LenC2=   23097 LenP2D=   50533.
 LDataN:  DoStor=T MaxTD1= 7 Len=  274
 Number of processors reduced to   6 by ecpmxn.
 NBasis=   618 RedAO= T EigKep=  4.98D-05  NBF=   618
 NBsUse=   618 1.00D-06 EigRej= -1.00D+00 NBFU=   618
 Defaulting to unpruned grid for atomic number  78.
 ExpMin= 2.90D-02 ExpMax= 6.29D+03 ExpMxC= 9.49D+02 IAcc=3 IRadAn=         5 AccDes= 0.00D+00
 Harris functional with IExCor= 1009 and IRadAn=       5 diagonalized for initial guess.
 HarFok:  IExCor= 1009 AccDes= 0.00D+00 IRadAn=         5 IDoV= 1 UseB2=F ITyADJ=14
 ICtDFT=  3500011 ScaDFX=  1.000000  1.000000  1.000000  1.000000
 Defaulting to unpruned grid for atomic number  78.
 FoFCou: FMM=F IPFlag=           0 FMFlag=      100000 FMFlg1=           0
         NFxFlg=           0 DoJE=T BraDBF=F KetDBF=T FulRan=T
         wScrn=  0.000000 ICntrl=       500 IOpCl=  0 I1Cent=   200000004 NGrid=           0
         NMat0=    1 NMatS0=      1 NMatT0=    0 NMatD0=    1 NMtDS0=    0 NMtDT0=    0
 Petite list used in FoFCou.
 CoulSu:  requested number of processors reduced to:  11 ShMem   1 Linda.
 CoulSu:  requested number of processors reduced to:  11 ShMem   1 Linda.
 Requested convergence on RMS density matrix=1.00D-08 within 128 cycles.
 Requested convergence on MAX density matrix=1.00D-06.
 Requested convergence on             energy=1.00D-06.
 No special actions if energy rises.
 Defaulting to unpruned grid for atomic number  78.
 Defaulting to unpruned grid for atomic number  78.
 Defaulting to unpruned grid for atomic number  78.
 Defaulting to unpruned grid for atomic number  78.
 Defaulting to unpruned grid for atomic number  78.
 Defaulting to unpruned grid for atomic number  78.
 Defaulting to unpruned grid for atomic number  78.
 Defaulting to unpruned grid for atomic number  78.
 Defaulting to unpruned grid for atomic number  78.
 Defaulting to unpruned grid for atomic number  78.
 Defaulting to unpruned grid for atomic number  78.
 Defaulting to unpruned grid for atomic number  78.
 CoulSu:  requested number of processors reduced to:   3 ShMem   1 Linda.
 CoulSu:  requested number of processors reduced to:   1 ShMem   1 Linda.
 Inv3:  Mode=2 IEnd=    17298962.
 Iteration    1 A*A^-1 deviation from unit magnitude is 3.11D-15 for   1279.
 Iteration    1 A*A^-1 deviation from orthogonality  is 2.01D-15 for   1337    249.
 Iteration    1 A^-1*A deviation from unit magnitude is 2.89D-15 for   1279.
 Iteration    1 A^-1*A deviation from orthogonality  is 2.24D-15 for   1969    109.
 CoulSu:  requested number of processors reduced to:   1 ShMem   1 Linda.
 CoulSu:  requested number of processors reduced to:   1 ShMem   1 Linda.
 CoulSu:  requested number of processors reduced to:  11 ShMem   1 Linda.
 CoulSu:  requested number of processors reduced to:  11 ShMem   1 Linda.
 CoulSu:  requested number of processors reduced to:  11 ShMem   1 Linda.
 CoulSu:  requested number of processors reduced to:  11 ShMem   1 Linda.
 CoulSu:  requested number of processors reduced to:  11 ShMem   1 Linda.
 CoulSu:  requested number of processors reduced to:  11 ShMem   1 Linda.
 CoulSu:  requested number of processors reduced to:  11 ShMem   1 Linda.
 CoulSu:  requested number of processors reduced to:  11 ShMem   1 Linda.
 CoulSu:  requested number of processors reduced to:  11 ShMem   1 Linda.
 CoulSu:  requested number of processors reduced to:  11 ShMem   1 Linda.
 CoulSu:  requested number of processors reduced to:  11 ShMem   1 Linda.
 CoulSu:  requested number of processors reduced to:  11 ShMem   1 Linda.
 CoulSu:  requested number of processors reduced to:  11 ShMem   1 Linda.
 CoulSu:  requested number of processors reduced to:  11 ShMem   1 Linda.
 CoulSu:  requested number of processors reduced to:  11 ShMem   1 Linda.
 CoulSu:  requested number of processors reduced to:   6 ShMem   1 Linda.
 CoulSu:  requested number of processors reduced to:   5 ShMem   1 Linda.
 CoulSu:  requested number of processors reduced to:  11 ShMem   1 Linda.
 Error on total polarization charges =  0.02142
 SCF Done:  E(RM06) =  -854.102029516     A.U. after   15 cycles
            NFock= 15  Conv=0.36D-08     -V/T= 2.1107

 **********************************************************************

            Population analysis using the SCF Density.

 **********************************************************************

 Orbital symmetries:
       Occupied  (A) (A) (A) (A) (A) (A) (A) (A) (A) (A) (A) (A)
                 (A) (A) (A) (A) (A) (A) (A) (A) (A) (A) (A) (A)
                 (A) (A) (A) (A) (A) (A) (A) (A) (A) (A) (A) (A)
                 (A) (A) (A) (A) (A) (A) (A) (A) (A) (A) (A) (A)
                 (A) (A) (A) (A) (A) (A) (A) (A) (A) (A) (A) (A)
                 (A) (A) (A) (A) (A) (A) (A) (A) (A) (A) (A) (A)
                 (A) (A) (A) (A) (A)
       Virtual   (A) (A) (A) (A) (A) (A) (A) (A) (A) (A) (A) (A)
                 (A) (A) (A) (A) (A) (A) (A) (A) (A) (A) (A) (A)
                 (A) (A) (A) (A) (A) (A) (A) (A) (A) (A) (A) (A)
                 (A) (A) (A) (A) (A) (A) (A) (A) (A) (A) (A) (A)
                 (A) (A) (A) (A) (A) (A) (A) (A) (A) (A) (A) (A)
                 (A) (A) (A) (A) (A) (A) (A) (A) (A) (A) (A) (A)
                 (A) (A) (A) (A) (A) (A) (A) (A) (A) (A) (A) (A)
                 (A) (A) (A) (A) (A) (A) (A) (A) (A) (A) (A) (A)
                 (A) (A) (A) (A) (A) (A) (A) (A) (A) (A) (A) (A)
                 (A) (A) (A) (A) (A) (A) (A) (A) (A) (A) (A) (A)
                 (A) (A) (A) (A) (A) (A) (A) (A) (A) (A) (A) (A)
                 (A) (A) (A) (A) (A) (A) (A) (A) (A) (A) (A) (A)
                 (A) (A) (A) (A) (A) (A) (A) (A) (A) (A) (A) (A)
                 (A) (A) (A) (A) (A) (A) (A) (A) (A) (A) (A) (A)
                 (A) (A) (A) (A) (A) (A) (A) (A) (A) (A) (A) (A)
                 (A) (A) (A) (A) (A) (A) (A) (A) (A) (A) (A) (A)
                 (A) (A) (A) (A) (A) (A) (A) (A) (A) (A) (A) (A)
                 (A) (A) (A) (A) (A) (A) (A) (A) (A) (A) (A) (A)
                 (A) (A) (A) (A) (A) (A) (A) (A) (A) (A) (A) (A)
                 (A) (A) (A) (A) (A) (A) (A) (A) (A) (A) (A) (A)
                 (A) (A) (A) (A) (A) (A) (A) (A) (A) (A) (A) (A)
                 (A) (A) (A) (A) (A) (A) (A) (A) (A) (A) (A) (A)
                 (A) (A) (A) (A) (A) (A) (A) (A) (A) (A) (A) (A)
                 (A) (A) (A) (A) (A) (A) (A) (A) (A) (A) (A) (A)
                 (A) (A) (A) (A) (A) (A) (A) (A) (A) (A) (A) (A)
                 (A) (A) (A) (A) (A) (A) (A) (A) (A) (A) (A) (A)
                 (A) (A) (A) (A) (A) (A) (A) (A) (A) (A) (A) (A)
                 (A) (A) (A) (A) (A) (A) (A) (A) (A) (A) (A) (A)
                 (A) (A) (A) (A) (A) (A) (A) (A) (A) (A) (A) (A)
                 (A) (A) (A) (A) (A) (A) (A) (A) (A) (A) (A) (A)
                 (A) (A) (A) (A) (A) (A) (A) (A) (A) (A) (A) (A)
                 (A) (A) (A) (A) (A) (A) (A) (A) (A) (A) (A) (A)
                 (A) (A) (A) (A) (A) (A) (A) (A) (A) (A) (A) (A)
                 (A) (A) (A) (A) (A) (A) (A) (A) (A) (A) (A) (A)
                 (A) (A) (A) (A) (A) (A) (A) (A) (A) (A) (A) (A)
                 (A) (A) (A) (A) (A) (A) (A) (A) (A) (A) (A) (A)
                 (A) (A) (A) (A) (A) (A) (A) (A) (A) (A) (A) (A)
                 (A) (A) (A) (A) (A) (A) (A) (A) (A) (A) (A) (A)
                 (A) (A) (A) (A) (A) (A) (A) (A) (A) (A) (A) (A)
                 (A) (A) (A) (A) (A) (A) (A) (A) (A) (A) (A) (A)
                 (A) (A) (A) (A) (A) (A) (A) (A) (A) (A) (A) (A)
                 (A) (A) (A) (A) (A) (A) (A) (A) (A) (A) (A) (A)
                 (A) (A) (A) (A) (A) (A) (A) (A) (A) (A) (A) (A)
                 (A) (A) (A) (A) (A) (A) (A) (A) (A) (A) (A) (A)
                 (A) (A) (A) (A) (A) (A) (A) (A) (A) (A) (A) (A)
                 (A)
 The electronic state is 1-A.
 Alpha  occ. eigenvalues --  -14.47880 -14.47879 -10.30576 -10.30576 -10.30176
 Alpha  occ. eigenvalues --  -10.30176 -10.30002 -10.30002 -10.27487 -10.27062
 Alpha  occ. eigenvalues --  -10.27055 -10.26148 -10.26146 -10.25661 -10.25113
 Alpha  occ. eigenvalues --  -10.25113 -10.24990 -10.24990  -3.91697  -2.15847
 Alpha  occ. eigenvalues --   -2.15401  -2.12448  -0.98699  -0.98208  -0.89408
 Alpha  occ. eigenvalues --   -0.82391  -0.80340  -0.80334  -0.80037  -0.76948
 Alpha  occ. eigenvalues --   -0.76627  -0.72507  -0.71844  -0.67196  -0.67120
 Alpha  occ. eigenvalues --   -0.63778  -0.63360  -0.60525  -0.60450  -0.54920
 Alpha  occ. eigenvalues --   -0.54325  -0.53535  -0.52725  -0.52621  -0.50582
 Alpha  occ. eigenvalues --   -0.50198  -0.48671  -0.46897  -0.45811  -0.45617
 Alpha  occ. eigenvalues --   -0.45598  -0.45447  -0.44984  -0.43933  -0.43747
 Alpha  occ. eigenvalues --   -0.43330  -0.43295  -0.42874  -0.42497  -0.42219
 Alpha  occ. eigenvalues --   -0.39801  -0.39764  -0.39100  -0.38747  -0.38583
 Alpha  occ. eigenvalues --   -0.38096  -0.37908  -0.37001  -0.36816  -0.35833
 Alpha  occ. eigenvalues --   -0.33280  -0.32199  -0.28916  -0.27842  -0.27411
 Alpha  occ. eigenvalues --   -0.25699  -0.24583
 Alpha virt. eigenvalues --   -0.06309  -0.04423  -0.03295  -0.03181  -0.01170
 Alpha virt. eigenvalues --   -0.01003   0.00847   0.02175   0.04435   0.04991
 Alpha virt. eigenvalues --    0.05521   0.05658   0.06224   0.06274   0.06826
 Alpha virt. eigenvalues --    0.06958   0.07150   0.07820   0.07879   0.08153
 Alpha virt. eigenvalues --    0.08603   0.09307   0.09629   0.09639   0.10326
 Alpha virt. eigenvalues --    0.10764   0.11671   0.11900   0.11939   0.12192
 Alpha virt. eigenvalues --    0.12986   0.13210   0.14309   0.14513   0.14803
 Alpha virt. eigenvalues --    0.15391   0.15800   0.15953   0.16549   0.17124
 Alpha virt. eigenvalues --    0.17711   0.17757   0.18992   0.19309   0.20532
 Alpha virt. eigenvalues --    0.20808   0.23139   0.23525   0.23659   0.24631
 Alpha virt. eigenvalues --    0.25311   0.26246   0.26584   0.27007   0.27879
 Alpha virt. eigenvalues --    0.28071   0.28148   0.28721   0.29235   0.30015
 Alpha virt. eigenvalues --    0.30305   0.30920   0.31428   0.32745   0.33667
 Alpha virt. eigenvalues --    0.34100   0.35057   0.35884   0.36189   0.36526
 Alpha virt. eigenvalues --    0.36718   0.37843   0.38201   0.38877   0.39789
 Alpha virt. eigenvalues --    0.39964   0.40810   0.41357   0.41855   0.42631
 Alpha virt. eigenvalues --    0.43182   0.44057   0.44189   0.44617   0.44885
 Alpha virt. eigenvalues --    0.45901   0.46021   0.46587   0.47165   0.48210
 Alpha virt. eigenvalues --    0.48240   0.48622   0.49269   0.49887   0.50772
 Alpha virt. eigenvalues --    0.50887   0.51111   0.51194   0.52040   0.52284
 Alpha virt. eigenvalues --    0.52605   0.52756   0.52910   0.53668   0.53721
 Alpha virt. eigenvalues --    0.54182   0.54235   0.54671   0.54955   0.55248
 Alpha virt. eigenvalues --    0.55350   0.55575   0.56032   0.56646   0.56781
 Alpha virt. eigenvalues --    0.57579   0.57626   0.58328   0.58663   0.59438
 Alpha virt. eigenvalues --    0.60326   0.60535   0.60763   0.61297   0.62643
 Alpha virt. eigenvalues --    0.62871   0.63388   0.63860   0.64106   0.64416
 Alpha virt. eigenvalues --    0.66043   0.66334   0.66558   0.67300   0.67659
 Alpha virt. eigenvalues --    0.68174   0.69369   0.69439   0.70368   0.70387
 Alpha virt. eigenvalues --    0.70851   0.72356   0.73454   0.74391   0.75550
 Alpha virt. eigenvalues --    0.76119   0.77585   0.77800   0.77916   0.79485
 Alpha virt. eigenvalues --    0.79920   0.80565   0.81991   0.82586   0.83542
 Alpha virt. eigenvalues --    0.84369   0.84663   0.86192   0.87608   0.88308
 Alpha virt. eigenvalues --    0.88632   0.89513   0.89670   0.90956   0.91494
 Alpha virt. eigenvalues --    0.92085   0.92655   0.94840   0.95201   0.95567
 Alpha virt. eigenvalues --    0.96071   0.96790   0.98117   0.99444   1.00001
 Alpha virt. eigenvalues --    1.00142   1.00568   1.02707   1.03132   1.03512
 Alpha virt. eigenvalues --    1.03635   1.05966   1.06300   1.06793   1.07277
 Alpha virt. eigenvalues --    1.08004   1.08814   1.09468   1.09892   1.11443
 Alpha virt. eigenvalues --    1.11582   1.12033   1.12800   1.13136   1.13372
 Alpha virt. eigenvalues --    1.14365   1.15547   1.15699   1.18183   1.18459
 Alpha virt. eigenvalues --    1.19134   1.19484   1.20128   1.20625   1.21689
 Alpha virt. eigenvalues --    1.22314   1.23460   1.23701   1.25358   1.25584
 Alpha virt. eigenvalues --    1.27021   1.27195   1.27434   1.28568   1.29136
 Alpha virt. eigenvalues --    1.29879   1.31317   1.31347   1.32071   1.34310
 Alpha virt. eigenvalues --    1.35951   1.37715   1.37867   1.38080   1.39751
 Alpha virt. eigenvalues --    1.40354   1.41944   1.43257   1.43381   1.44699
 Alpha virt. eigenvalues --    1.45817   1.46497   1.47134   1.48700   1.49026
 Alpha virt. eigenvalues --    1.50118   1.50584   1.50794   1.54173   1.55592
 Alpha virt. eigenvalues --    1.55776   1.57699   1.60626   1.61117   1.61597
 Alpha virt. eigenvalues --    1.62278   1.64755   1.64883   1.65028   1.65778
 Alpha virt. eigenvalues --    1.65922   1.67073   1.67755   1.68218   1.68923
 Alpha virt. eigenvalues --    1.69798   1.70052   1.72182   1.72487   1.73123
 Alpha virt. eigenvalues --    1.74248   1.74617   1.75945   1.76394   1.77226
 Alpha virt. eigenvalues --    1.78398   1.80756   1.82165   1.82193   1.82580
 Alpha virt. eigenvalues --    1.83079   1.85445   1.85752   1.87097   1.89936
 Alpha virt. eigenvalues --    1.94946   1.95872   1.97431   1.97924   1.98198
 Alpha virt. eigenvalues --    1.98980   2.00107   2.01151   2.02225   2.03908
 Alpha virt. eigenvalues --    2.04612   2.05187   2.05217   2.05824   2.06495
 Alpha virt. eigenvalues --    2.07395   2.08552   2.08855   2.08898   2.09504
 Alpha virt. eigenvalues --    2.09773   2.10447   2.11027   2.11575   2.12519
 Alpha virt. eigenvalues --    2.12733   2.14103   2.14181   2.14543   2.15386
 Alpha virt. eigenvalues --    2.16012   2.16520   2.17199   2.17454   2.18376
 Alpha virt. eigenvalues --    2.18821   2.19550   2.21188   2.22241   2.22678
 Alpha virt. eigenvalues --    2.23052   2.23991   2.24177   2.25419   2.28247
 Alpha virt. eigenvalues --    2.30251   2.30276   2.32459   2.33204   2.34136
 Alpha virt. eigenvalues --    2.34893   2.35819   2.36143   2.38077   2.38702
 Alpha virt. eigenvalues --    2.39230   2.41222   2.41496   2.41744   2.41849
 Alpha virt. eigenvalues --    2.43304   2.44131   2.44676   2.48297   2.49033
 Alpha virt. eigenvalues --    2.49805   2.50897   2.50947   2.51957   2.52844
 Alpha virt. eigenvalues --    2.53236   2.54064   2.55310   2.55615   2.56845
 Alpha virt. eigenvalues --    2.59524   2.59614   2.59664   2.60213   2.61343
 Alpha virt. eigenvalues --    2.61881   2.65855   2.67319   2.67363   2.68114
 Alpha virt. eigenvalues --    2.69309   2.69419   2.69472   2.71522   2.72468
 Alpha virt. eigenvalues --    2.74175   2.74733   2.75753   2.75904   2.78009
 Alpha virt. eigenvalues --    2.79195   2.79342   2.81758   2.82482   2.82931
 Alpha virt. eigenvalues --    2.83555   2.91787   2.91956   2.97079   2.99620
 Alpha virt. eigenvalues --    3.01395   3.04785   3.06154   3.07081   3.07975
 Alpha virt. eigenvalues --    3.08852   3.10653   3.11568   3.12127   3.14234
 Alpha virt. eigenvalues --    3.16164   3.16527   3.17520   3.17640   3.18213
 Alpha virt. eigenvalues --    3.18470   3.20424   3.21120   3.21610   3.22069
 Alpha virt. eigenvalues --    3.23423   3.25301   3.25828   3.26957   3.27873
 Alpha virt. eigenvalues --    3.29384   3.30344   3.30906   3.32060   3.34510
 Alpha virt. eigenvalues --    3.34962   3.35611   3.36131   3.36771   3.37269
 Alpha virt. eigenvalues --    3.37456   3.38371   3.39901   3.40588   3.41009
 Alpha virt. eigenvalues --    3.41780   3.42386   3.43287   3.43354   3.44323
 Alpha virt. eigenvalues --    3.44761   3.45659   3.46679   3.47251   3.47348
 Alpha virt. eigenvalues --    3.47728   3.47966   3.48879   3.49732   3.50054
 Alpha virt. eigenvalues --    3.50394   3.51106   3.51333   3.53307   3.54402
 Alpha virt. eigenvalues --    3.55163   3.56146   3.56608   3.57491   3.58716
 Alpha virt. eigenvalues --    3.59719   3.59945   3.60525   3.62237   3.62560
 Alpha virt. eigenvalues --    3.63219   3.64097   3.65187   3.66647   3.67036
 Alpha virt. eigenvalues --    3.68162   3.68235   3.70658   3.72314   3.73848
 Alpha virt. eigenvalues --    3.74146   3.78120   3.79120   3.79847   3.80201
[...]
 00003951,-0.00000715,0.00001285,0.00000048,0.00000421,0.00000247,0.000
 00525,-0.00000393,0.00000341,-0.00001551,0.00000935,0.00000700,-0.0000
 0030,0.00000063,-0.00000075,0.00000046,-0.00000067,0.00000088,0.000000
 96,-0.00000065,-0.00000085,0.00060993,0.00021777,-0.00080136,0.0000499
 1,-0.00033663,0.00015277,-0.00038694,-0.00026331,0.00015720,-0.0001026
 1,0.00000971,-0.00004974,0.00004247,0.00009429,0.00003057,-0.00057066,
 -0.00008289,-0.00043049,-0.00005259,0.00005615,-0.00000668,-0.04968350
 ,-0.02467163,0.01295261,-0.00429765,-0.02803322,0.01671065,0.00158204,
 0.01468390,-0.00715352,0.05713489,-0.00049729,0.00007818,-0.00005671,-
 0.00028920,-0.00029733,-0.00007787,-0.00097279,-0.00103908,0.00021895,
 0.00001842,0.00014915,-0.00001210,0.00051208,-0.00002240,-0.00001264,-
 0.00000070,-0.00006826,0.00000212,-0.00000105,-0.00011652,-0.00002154,
 -0.00003084,0.00001676,0.00000624,0.00001941,0.00000358,0.00000391,0.0
 0004830,-0.00003959,-0.00000439,0.00026214,-0.00007262,0.00000159,0.00
 094893,-0.02869333,0.00786623,0.00325660,-0.00010427,-0.00300695,0.000
 02287,0.00022430,-0.00012763,-0.00004753,-0.00028688,0.00002130,0.0000
 2823,0.00000817,-0.00001224,0.00001032,0.00001167,0.00000148,0.0000154
 5,-0.00001030,0.00000216,-0.00001593,-0.00007022,-0.00005477,0.0000056
 1,0.00002761,0.00001595,0.00000817,0.00001540,-0.00000246,-0.00000598,
 -0.00000025,0.00001096,0.00001079,0.00000121,0.00000473,-0.00000009,-0
 .00000198,-0.00000264,-0.00000490,-0.00000021,-0.00000410,0.00001644,-
 0.00002346,0.00008732,-0.00000386,0.00000539,-0.00002547,-0.00000082,0
 .00000112,0.00000457,0.00000030,0.00000958,-0.00000875,0.00000998,-0.0
 0000037,-0.00000618,-0.00000394,0.00000167,0.00000310,0.00000424,0.000
 00182,0.00000239,-0.00043691,0.00018664,0.00196347,-0.00027847,-0.0000
 4215,-0.00026346,0.00030557,0.00039811,-0.00099035,0.00017984,0.000492
 11,0.00008109,-0.00006695,0.00009466,-0.00000101,-0.00019242,-0.000371
 71,-0.00032562,0.00008229,0.00010478,0.00005473,-0.02304607,-0.2384074
 6,0.10546703,-0.00124392,-0.00310812,0.00298797,0.00017087,0.00256232,
 -0.00075408,0.02169631,0.26687800,-0.00073078,0.00037050,0.00019796,-0
 .00002348,-0.00021188,-0.00016894,-0.00031991,-0.00074928,0.00036637,-
 0.00000231,-0.00001299,0.00003888,0.00026795,-0.00006715,0.00000180,0.
 00001061,-0.00002263,0.00001718,-0.00000041,-0.00007154,-0.00005226,-0
 .00000654,0.00000356,0.00002158,0.00000594,-0.00000311,-0.00000749,0.0
 0002245,-0.00001981,-0.00000277,0.00001998,-0.00002788,0.00001768,0.00
 062721,-0.02279975,0.00596486,0.00197248,-0.00184491,-0.00225039,0.000
 05926,-0.00013462,0.00019525,-0.00010408,-0.00019561,0.00018169,0.0000
 0252,-0.00001063,-0.00001238,0.00000633,0.00000727,0.00000015,0.000005
 33,0.00000112,0.00000127,0.00001131,0.00000642,-0.00000273,-0.00000202
 ,-0.00000525,-0.00000056,-0.00000785,-0.00000246,0.00001197,0.00000073
 ,0.00000645,-0.00000813,-0.00000191,0.00000139,-0.00000151,0.00000206,
 0.00000016,0.00000020,0.00000267,-0.00000246,0.00000037,-0.00002354,-0
 .00000335,0.00001306,0.00000073,0.00000261,0.00000001,0.00000237,-0.00
 000580,0.00000150,-0.00000879,0.00000968,0.00000248,-0.00000028,0.0000
 0082,-0.00000087,-0.00000146,-0.00000056,0.00000127,-0.00000167,-0.000
 00004,-0.00000047,-0.00037430,-0.00200724,0.00102134,0.00006672,-0.000
 17687,-0.00005175,0.00053557,0.00018148,0.00010916,-0.00004446,0.00000
 243,0.00022486,-0.00002533,0.00004373,0.00003416,-0.00046855,-0.000158
 22,-0.00042728,0.00009037,-0.00001648,-0.00001679,0.01044986,0.1143760
 6,-0.10871023,0.00123781,0.00559361,-0.00314503,0.00317753,0.02174991,
 -0.01049162,-0.01835687,-0.11300131,0.11573169,0.00086211,0.00058546,0
 .00051591,0.00005693,-0.00016825,-0.00000985,0.00010161,0.00023843,-0.
 00003786,0.00004686,0.00003701,0.00000710,-0.00002606,-0.00002418,-0.0
 0001342,-0.00001205,0.00001359,0.00000302,-0.00002043,0.00003649,0.000
 00798,0.00000781,0.00001435,0.00000403,-0.00000927,0.00001077,-0.00000
 302,-0.00000612,0.00001287,0.00000216,-0.00054706,-0.00011379,-0.00010
 841,-0.00711801,-0.00084845,0.00201070,-0.00031610,-0.00135101,0.00006
 202,0.00001457,-0.00000543,0.00000193,0.00021164,-0.00001047,0.0000636
 3,-0.00000196,-0.00013441,0.00004966,-0.00000542,0.00000007,-0.0000079
 4,-0.00001165,0.00003035,-0.00000289,-0.00006237,0.00014000,0.00008225
 ,-0.00000851,-0.00005597,-0.00002858,0.00000020,-0.00001079,0.00000191
 ,0.00000803,-0.00000155,-0.00001082,-0.00002499,-0.00000257,-0.0000109
 9,-0.00000420,0.00000321,0.00000430,0.00000224,0.00000583,0.00000197,-
 0.00001643,0.00001893,-0.00014389,0.00000756,0.00000360,0.00004106,0.0
 0000740,-0.00000195,0.00000395,0.00001096,-0.00000187,0.00000745,-0.00
 001573,-0.00000035,0.00001048,-0.00000130,0.00000105,-0.00000544,-0.00
 000400,-0.00000294,-0.00000412,-0.00068754,0.00027632,-0.00085348,-0.0
 0000363,-0.00009865,-0.00039950,0.00002663,-0.00001306,0.00008981,0.00
 011681,-0.00002646,0.00025641,0.00018674,-0.00000766,-0.00011004,0.000
 11190,-0.00020561,-0.00001950,0.00007044,0.00019832,-0.00001137,-0.008
 63025,0.02451679,0.01870753,-0.06445680,0.05480811,0.04361710,0.001142
 36,0.00047252,-0.00075633,0.00130546,-0.00027098,0.00009052,0.07175238
 ,-0.00011384,0.00006586,-0.00002782,0.00010082,-0.00018067,-0.00003304
 ,0.00005163,0.00031913,-0.00010946,0.00000220,0.00003931,0.00001075,0.
 00001889,0.00002966,-0.00000398,0.00001328,-0.00003354,-0.00000268,0.0
 0002734,0.00000178,0.00001319,-0.00001309,0.00000557,-0.00000691,0.000
 00613,-0.00000238,-0.00000146,0.00000588,-0.00001002,-0.00000025,-0.00
 003805,0.00000495,0.00001554,-0.00193354,0.00054362,0.00111645,0.00020
 634,-0.00033773,-0.00001111,-0.00021925,0.00004090,-0.00035174,0.00007
 454,0.00012317,0.00022234,-0.00000155,-0.00001310,0.,0.00000460,0.0000
 0594,0.00000139,0.00000535,0.00000214,-0.00000087,0.00000455,-0.000011
 80,-0.00000954,-0.00000016,0.00000397,0.00000201,-0.00000084,0.0000012
 1,0.00000139,-0.00000232,-0.00000046,-0.00000177,0.00000257,0.00000137
 ,0.00000056,0.00000092,-0.00000047,-0.00000034,-0.00000013,-0.00000124
 ,-0.00000109,-0.00000147,-0.00000131,0.00000775,0.00000012,-0.00000049
 ,-0.00000170,-0.00000039,0.00000142,0.00000363,-0.00000292,-0.00000132
 ,0.00000061,0.00000098,0.00000022,-0.00000085,0.00000023,-0.00000021,0
 .00000054,0.00000156,0.00000129,0.00000013,-0.00007821,0.00004190,-0.0
 0005008,-0.00000462,-0.00004318,0.00001965,0.00000240,0.00001385,-0.00
 000687,0.00002199,-0.00000107,0.00004853,0.00002729,0.00002882,0.00001
 120,0.00000517,-0.00004102,0.00005554,0.00002857,0.00006375,0.00006616
 ,-0.00211176,0.00339069,0.00390653,0.05640995,-0.19504526,-0.12161144,
 0.00030173,0.00023301,-0.00009269,0.00063926,0.00027019,-0.00006022,-0
 .06013443,0.20853664,-0.00045470,-0.00029226,-0.00013224,-0.00001255,0
 .00013271,-0.00000276,-0.00007292,-0.00017087,0.00012172,-0.00002074,-
 0.00003787,-0.00001476,0.00001078,-0.00000029,0.00000215,0.00000370,0.
 00000779,0.00000212,-0.00000303,-0.00002021,-0.00000770,-0.00000074,-0
 .00000485,0.00000324,0.00000412,-0.00000593,0.00000056,0.00000137,-0.0
 0000441,-0.00000071,0.00021395,0.00006488,0.00002807,0.00185607,0.0011
 4387,0.00088639,-0.00027757,0.00058433,-0.00001646,0.00014357,-0.00002
 811,0.00016916,-0.00009176,0.00010231,-0.00011369,-0.00000369,0.000061
 00,-0.00002144,0.00000115,0.00000060,0.00000290,0.00000556,-0.00001524
 ,0.00000068,0.00002618,-0.00006622,-0.00003366,0.00000336,0.00002543,0
 .00001180,0.00000005,0.00000474,-0.00000151,-0.00000373,0.00000019,0.0
 0000415,0.00001099,0.00000056,0.00000552,0.00000288,-0.00000174,-0.000
 00252,-0.00000124,-0.00000231,-0.00000052,0.00001264,-0.00001205,0.000
 06689,-0.00000348,-0.00000142,-0.00002037,-0.00000373,0.00000201,-0.00
 000153,-0.00000528,-0.00000003,-0.00000311,0.00000778,-0.00000026,-0.0
 0000532,0.00000097,-0.00000039,0.00000259,0.00000248,0.00000154,0.0000
 0247,-0.00028897,-0.00001731,0.00030380,-0.00024876,0.00017258,-0.0007
 4988,0.00004348,0.00002232,0.00000766,0.00003294,-0.00002875,-0.000024
 90,0.00026671,-0.00009278,-0.00016168,0.00009364,-0.00044833,-0.000132
 08,0.00001290,0.00027541,0.00002926,0.00198457,-0.00656389,-0.00656114
 ,0.04440395,-0.12155725,-0.13970109,0.00008023,0.00016280,0.00039814,-
 0.00038428,0.00007491,0.00005672,-0.05023598,0.13193103,0.14831394,0.0
 0022122,0.00003232,-0.00017033,-0.00014010,-0.00023300,-0.00001454,0.0
 0001132,0.00000987,-0.00017541,-0.00001053,0.00009265,-0.00003091,0.00
 003872,0.00005960,-0.00001492,-0.00000622,-0.00005574,-0.00000790,0.00
 004813,0.00001028,0.00002607,-0.00000688,-0.00000014,-0.00001498,0.000
 00483,0.00000385,0.00000884,0.00000739,-0.00000905,0.00000210,0.000052
 41,-0.00001897,0.00003481,0.00198426,0.00024758,-0.00084180,-0.0005154
 2,0.00064550,0.00145352,-0.00095442,0.00117146,-0.00011534,-0.00010711
 ,0.00035300,-0.00018162,0.00000958,-0.00000379,0.00000352,0.00000169,0
 .00000183,-0.00000034,0.00000270,0.00000127,-0.00000095,-0.00000169,-0
 .00001208,-0.00000546,0.00000142,0.00000708,0.00000249,0.00000364,0.00
 000490,-0.00000267,0.00000147,-0.00000131,0.00000284,0.00000224,0.0000
 0013,0.00000124,-0.00000018,-0.00000035,-0.00000072,-0.00000252,0.0000
 0092,-0.00000127,-0.00000352,-0.00000339,0.00001447,0.00000010,0.00000
 116,-0.00000230,-0.00000075,0.00000154,0.00000111,0.00000070,-0.000000
 12,-0.00000234,0.00000082,0.00000004,-0.00000089,-0.00000123,0.0000007
 6,0.00000058,0.00000121,0.00000035,0.00000048,-0.00009612,0.00009759,-
 0.00001317,-0.00004278,0.00016478,-0.00017821,0.00001254,0.00002122,-0
 .00015450,0.00005104,0.00005345,0.00005141,0.00005502,-0.00007716,-0.0
 0005420,0.00003288,-0.00012250,0.00010414,0.00000722,-0.00000586,0.000
 03800,-0.00358625,-0.02954500,0.01635316,-0.04949286,-0.02381711,0.013
 01741,0.00151884,0.00047609,-0.00042480,-0.00583964,-0.00040942,0.0015
 7730,0.00005454,0.00723403,-0.00525287,0.05467113,0.00034263,0.0000805
 3,0.00002005,0.00006899,-0.00023221,0.00000264,0.00025196,0.00043332,-
 0.00033198,0.00001704,0.00007361,0.00005089,-0.00005351,0.00003124,0.0
 0000920,-0.00000757,-0.00002022,-0.00000678,0.00001553,0.00002577,0.00
 001510,-0.00000685,0.00000165,-0.00000715,-0.00000197,0.00000489,-0.00
 000443,-0.00000167,0.00000258,0.00000242,-0.00011252,-0.00001409,-0.00
 001469,-0.00061547,0.00008613,0.00014280,0.00175152,-0.00122204,-0.000
 72942,0.00081981,-0.00079601,-0.00049238,0.00033421,-0.00028434,0.0001
 2938,0.00000609,-0.00004469,0.00001719,-0.00000184,-0.00000056,-0.0000
 0347,-0.00000266,0.00001183,-0.00000167,-0.00001540,0.00003495,0.00002
 202,-0.00000170,-0.00001185,-0.00000620,0.00000290,-0.00000022,-0.0000
 0246,0.00000362,-0.00000159,-0.00000025,-0.00000583,-0.00000124,-0.000
 00231,-0.00000167,0.00000074,0.00000101,-0.00000092,0.00000332,-0.0000
 0016,-0.00000489,0.00000383,-0.00003380,0.00000172,0.00000097,0.000009
 04,0.00000247,-0.00000199,0.00000032,0.00000675,0.00000197,-0.00000063
 ,-0.00000371,-0.00000046,0.00000251,-0.00000191,0.00000155,-0.00000169
 ,-0.00000147,-0.00000129,-0.00000049,-0.00014098,0.00002241,-0.0001482
 7,0.00002402,-0.00001665,0.00004354,0.00003046,0.00001599,0.00001330,0
 .00000950,0.00000722,0.00005539,-0.00001958,-0.00001988,0.00001059,0.0
 0000099,0.00001670,-0.00000588,-0.00001329,-0.00003568,0.00004522,-0.0
 0067132,-0.00373482,0.00103593,-0.02549532,-0.23662240,0.11807985,-0.0
 0019918,0.00013561,-0.00005471,-0.00071979,0.00116176,-0.00013645,-0.0
 0259207,-0.01837492,0.01259793,0.02654074,0.25751667,-0.00002223,-0.00
 014052,0.00010327,-0.00006003,0.00027042,0.00001071,-0.00001728,-0.000
 35509,0.00013935,-0.00000951,-0.00009310,-0.00001701,-0.00003818,-0.00
 002781,0.00000651,-0.00000910,0.00005546,0.00000681,-0.00004046,-0.000
 01118,-0.00001535,0.00001596,-0.00001070,0.00000789,-0.00000715,-0.000
 00196,0.00000149,-0.00000810,0.00001152,-0.00000019,-0.00001482,0.0000
 2220,-0.00001533,-0.00058837,0.00088609,0.00026075,-0.00013643,0.00018
 089,-0.00009284,0.00024628,-0.00004677,0.00037043,0.00013782,-0.000387
 35,-0.00054169,-0.00000852,0.00002467,-0.00000395,-0.00000569,-0.00000
 582,-0.00000043,-0.00000569,-0.00000301,0.00000019,0.00000639,0.000009
 70,0.00001297,-0.00000121,-0.00000386,-0.00000306,-0.00000181,-0.00000
 410,0.00000037,0.00000202,0.00000038,-0.00000197,-0.00000197,-0.000001
 09,-0.00000052,0.00000049,0.00000046,0.00000026,0.00000127,-0.00000016
 ,0.00000185,0.00000213,0.00000228,-0.00001011,-0.00000029,-0.00000056,
 0.00000236,-0.00000033,0.00000044,-0.00000266,0.00000020,-0.00000208,0
 .00000175,-0.00000091,0.00000016,0.00000071,0.00000157,-0.00000061,-0.
 00000025,-0.00000101,-0.00000081,-0.00000045,-0.00003694,-0.00002918,-
 0.00022142,-0.00004840,0.00050503,-0.00033519,-0.00002387,-0.00005923,
 0.00003899,0.00003256,-0.00004969,0.00001294,0.00008570,-0.00022108,-0
 .00008403,0.00020254,-0.00028545,0.00004316,-0.00006153,-0.00011640,-0
 .00004713,0.00148772,0.00625710,-0.00521102,0.01325957,0.11797904,-0.1
 1646291,0.00016452,-0.00068363,0.00037046,0.00143961,0.00006421,0.0008
 5392,-0.00266463,-0.01637970,0.01032890,-0.01700926,-0.12839934,0.1215
 4041,0.00012611,0.00004110,0.00008902,-0.00006815,-0.00012211,0.000138
 39,0.00004735,0.00011868,0.00005035,0.00002775,0.00008438,0.00000369,-
 0.00000815,0.00000096,-0.00001495,-0.00001860,-0.00001341,-0.00001606,
 0.00000407,0.00002894,0.00000459,0.00000231,0.00001102,0.00000166,-0.0
 0000297,0.00001081,-0.00000307,-0.00000070,0.00000494,0.00000163,-0.00
 000057,-0.00003260,-0.00002486,0.00140578,0.00055536,0.00036177,-0.000
 16446,0.00016158,0.00003119,-0.00005879,-0.00007980,0.00004866,-0.0000
 4936,0.00034425,0.00001113,0.00001326,-0.00001884,0.00001324,0.0000007
 0,-0.00000282,-0.00000062,-0.00000643,0.00000411,0.00000054,-0.0000196
 1,0.00002681,0.00000126,-0.00000325,-0.00000851,-0.00000179,0.00000408
 ,0.00000009,-0.00000206,-0.00000147,0.00000005,0.00000615,-0.00000420,
 -0.00000092,-0.00000288,-0.00000433,0.00000105,0.00000142,-0.00000018,
 0.00000167,-0.00000049,0.00001033,0.00001008,-0.00003444,-0.00000241,-
 0.00000203,0.00000208,-0.00000191,-0.00000426,-0.00000717,0.00000811,0
 .00000158,-0.00000379,-0.00000303,-0.00000036,0.00000415,-0.00000212,0
 .00000020,-0.00000156,-0.00000362,-0.00000044,-0.00000064,-0.00065253,
 0.00024981,-0.00000932,-0.00041997,0.00054642,-0.00119023,0.00002141,0
 .00004198,0.00001897,0.00013969,-0.00007105,0.00011701,0.00058587,-0.0
 0029395,-0.00038551,0.00063526,-0.00077137,0.00036514,0.00012789,0.000
 30575,0.00001615,-0.01832798,-0.00161042,-0.02721554,-0.14957989,-0.00
 235983,-0.13156425,-0.00507952,-0.00124110,0.00233454,0.00147282,0.000
 18688,0.00025896,0.00588471,-0.00054174,0.00813997,0.00201118,0.000462
 14,0.00373734,0.16195551,0.00018763,0.00003081,-0.00003041,-0.00003804
 ,-0.00005159,0.00004268,0.00000362,-0.00008828,-0.00013637,-0.00002050
 ,0.00003156,-0.00000297,-0.00000420,0.00002543,-0.00000010,-0.00001140
 ,-0.00002713,-0.00000443,0.00002708,0.00000742,0.00000844,0.00000313,-
 0.00000155,-0.00000560,-0.00000268,0.00000270,0.00000203,-0.00000045,0
 .00000217,0.00000151,-0.00005060,-0.00000356,0.00000415,-0.00004170,0.
 00048989,0.00069046,0.00013166,-0.00015361,0.00046945,-0.00004414,0.00
 008924,-0.00011381,0.00004421,-0.00018605,-0.00011452,-0.00000006,-0.0
 0001305,0.00000657,-0.00000133,-0.00000242,-0.00000122,-0.00000292,0.0
 0000452,-0.00000070,-0.00000181,0.00002147,0.00001182,-0.00000154,-0.0
 0000701,-0.00000330,0.00000049,-0.00000198,0.00000016,0.00000286,0.,-0
 .00000057,-0.00000321,-0.00000047,-0.00000175,-0.00000105,0.00000082,0
 .00000079,0.00000035,0.00000074,0.00000046,-0.00000647,0.00000722,-0.0
 0002000,0.00000023,-0.00000092,0.00000587,0.00000023,-0.00000188,-0.00
 000123,0.00000249,-0.00000028,0.00000037,-0.00000257,0.00000032,0.0000
 0198,-0.00000026,0.00000007,-0.00000076,-0.00000180,-0.00000068,-0.000
 00090,0.00006170,0.00001988,0.00008454,0.00005068,0.00052459,-0.000476
 30,-0.00010338,-0.00001518,-0.00004151,-0.00000252,-0.00001959,0.00011
 115,-0.00006923,-0.00008193,0.00003243,-0.00001659,0.00017473,0.000367
 52,0.00016470,-0.00057647,-0.00068580,-0.00209331,-0.00177994,-0.00517
 281,-0.00291786,-0.04569446,-0.00100148,-0.00122862,0.00107218,0.00055
 500,0.00027239,0.00007236,-0.00060869,-0.01534115,0.00032983,-0.017996
 17,0.01708101,0.00176186,0.02105026,0.00397493,0.04403819,0.00012349,0
 .00012242,0.00002984,0.00003194,-0.00004017,-0.00002029,0.00002845,0.0
 0002983,0.00006146,0.00000378,0.00000405,-0.00000876,-0.00001987,-0.00
 000766,0.00000293,-0.00000632,0.00000348,0.00000609,-0.00000178,0.0000
 0581,-0.00000269,0.00000260,0.00000353,0.00000043,-0.00000316,0.000001
 94,0.00000129,-0.00000282,0.00000507,-0.00000113,-0.00010731,-0.000014
 24,0.00000650,-0.00156963,-0.00029203,0.00042877,-0.00019255,-0.000174
 57,-0.00019735,0.00001877,-0.00001178,0.00004778,0.00011730,-0.0000844
 4,0.00006720,0.00000083,-0.00002466,0.00000845,-0.00000001,-0.00000062
 ,-0.00000164,-0.00000388,0.00000675,-0.00000009,-0.00000300,0.00002966
 ,0.00001916,-0.00000128,-0.00001016,-0.00000550,-0.00000030,-0.0000026
 4,0.00000020,0.00000309,-0.00000026,-0.00000319,-0.00000431,-0.0000003
 4,-0.00000252,-0.00000142,0.00000079,0.00000165,0.00000072,0.00000101,
 0.00000026,-0.00000894,0.00000367,-0.00003245,0.00000131,0.00000191,0.
 00001156,0.00000252,-0.00000030,0.00000220,0.00000272,0.00000041,0.000
 00206,-0.00000402,-0.00000009,0.00000304,-0.00000052,0.00000030,-0.000
 00158,-0.00000078,-0.00000104,-0.00000129,0.00007366,0.00037133,0.0005
 7910,0.00049853,-0.00067769,-0.00488239,-0.00005389,-0.00003988,-0.000
 05316,-0.00009552,-0.00001959,-0.00005133,0.00026191,-0.00016904,-0.00
 044851,0.00108036,-0.00012093,-0.00335457,0.00004566,0.00003826,-0.000
 48171,0.00614095,0.00000810,0.00911084,-0.13464618,-0.00173370,-0.2155
 8099,0.00258470,0.00057893,0.00075889,-0.00078944,-0.00017411,0.000283
 79,-0.01020485,0.00133063,-0.01303976,-0.00802177,-0.00192170,-0.01104
 895,0.14472024,0.00297377,0.23778631\\0.00000129,-0.00001180,-0.000012
 09,0.00000021,-0.00000826,0.00000027,0.00000372,0.00000776,0.00000037,
 -0.00000376,0.00000780,0.00000042,-0.00000316,0.00000048,0.00000469,0.
 00000311,0.00000035,0.00000469,0.00000003,0.00000078,0.00000340,-0.000
 00029,-0.00000037,0.00000390,0.00000031,-0.00000037,0.00000390,0.,-0.0
 0000007,0.00000595,-0.00000204,-0.00000507,0.00000189,0.00000214,-0.00
 000680,0.00000098,0.00000122,0.00000047,0.00000150,0.00000058,0.000000
 78,0.00000097,0.00000109,0.00000061,0.00000077,-0.00000009,0.00000099,
 0.00000174,0.00000023,0.00000143,0.00000163,-0.00000137,0.00000040,0.0
 0000058,0.00000409,0.00000790,0.00000239,0.00000173,-0.00000053,0.0000
 0195,-0.00000207,0.00000081,-0.00000107,0.00000148,0.00000211,-0.00000
 148,0.00000019,0.00000317,-0.00000368,-0.00000067,0.00000005,0.0000015
 5,-0.00000135,0.00000285,-0.00000068,0.00000197,-0.00000016,-0.0000071
 7,0.00000109,0.00000020,0.00000052,0.00000078,-0.00000323,0.00000038,-
 0.00000471,0.00000058,0.00000180,-0.00000116,-0.00000331,-0.00000135,-
 0.00000064,-0.00000242,-0.00000062,-0.00000228,-0.00000367,-0.00000618
 ,-0.00000218,-0.00000079,-0.00000725,-0.00000109,-0.00000006,0.0000042
 8,0.00000494,0.00000121,0.00000186,-0.00000066,-0.00000321,0.00000044,
 0.00000086,-0.00000297,-0.00000114,0.00000097,-0.00000282,-0.00000311,
 0.00000077,-0.00000261,-0.00000054,-0.00000420,0.00000801,0.00000364,-
 0.00000031,-0.00000011,0.00000047,-0.00000287,0.00000232,-0.00000074,0
 .00000232,0.00000069,-0.00000074,-0.00000037,0.00000330,-0.00000420,0.
 00000084,0.00000395,-0.00000109,-0.00000067,-0.00000033,-0.00000380\\\
 @
 The archive entry for this job was punched.


 THERE IS NO CURE FOR BIRTH AND DEATH SAVE TO ENJOY THE INTERVAL.

                               -- GEORGE SANTAYANA
 Job cpu time:       1 days 16 hours 32 minutes  2.9 seconds.
 Elapsed time:       0 days  3 hours 48 minutes 59.0 seconds.
 File lengths (MBytes):  RWF=   1516 Int=      0 D2E=      0 Chk=     47 Scr=      1
 Normal termination of Gaussian 16 at Fri May 13 18:53:03 2022.
