 Entering Gaussian System, Link 0=g16
 Input=NCNPtMePh.com
 Output=NCNPtMePh.log
 Initial command:
 /usr/local/g16/l1.exe "/hdd/Gau-919019.inp" -scrdir="/hdd/"
 Entering Link 1 = /usr/local/g16/l1.exe PID=    919021.
  
 Copyright (c) 1988-2019, Gaussian, Inc.  All Rights Reserved.
  
 This is part of the Gaussian(R) 16 program.  It is based on
 the Gaussian(R) 09 system (copyright 2009, Gaussian, Inc.),
 the Gaussian(R) 03 system (copyright 2003, Gaussian, Inc.),
 the Gaussian(R) 98 system (copyright 1998, Gaussian, Inc.),
 the Gaussian(R) 94 system (copyright 1995, Gaussian, Inc.),
 the Gaussian 92(TM) system (copyright 1992, Gaussian, Inc.),
 the Gaussian 90(TM) system (copyright 1990, Gaussian, Inc.),
 the Gaussian 88(TM) system (copyright 1988, Gaussian, Inc.),
 the Gaussian 86(TM) system (copyright 1986, Carnegie Mellon
 University), and the Gaussian 82(TM) system (copyright 1983,
 Carnegie Mellon University). Gaussian is a federally registered
 trademark of Gaussian, Inc.
  
 This software contains proprietary and confidential information,
 including trade secrets, belonging to Gaussian, Inc.
  
 This software is provided under written license and may be
 used, copied, transmitted, or stored only in accord with that
 written license.
  
 The following legend is applicable only to US Government
 contracts under FAR:
  
                    RESTRICTED RIGHTS LEGEND
  
 Use, reproduction and disclosure by the US Government is
 subject to restrictions as set forth in subparagraphs (a)
 and (c) of the Commercial Computer Software - Restricted
 Rights clause in FAR 52.227-19.
  
 Gaussian, Inc.
 340 Quinnipiac St., Bldg. 40, Wallingford CT 06492
  
  
 ---------------------------------------------------------------
 Warning -- This program may not be used in any manner that
 competes with the business of Gaussian, Inc. or will provide
 assistance to any competitor of Gaussian, Inc.  The licensee
 of this program is prohibited from giving any competitor of
 Gaussian, Inc. access to this program.  By using this program,
 the user acknowledges that Gaussian, Inc. is engaged in the
 business of creating and licensing software in the field of
 computational chemistry and represents and warrants to the
 licensee that it is not a competitor of Gaussian, Inc. and that
 it will not use this program in any manner prohibited above.
 ---------------------------------------------------------------
  

 Cite this work as:
 Gaussian 16, Revision C.01,
 M. J. Frisch, G. W. Trucks, H. B. Schlegel, G. E. Scuseria, 
 M. A. Robb, J. R. Cheeseman, G. Scalmani, V. Barone, 
 G. A. Petersson, H. Nakatsuji, X. Li, M. Caricato, A. V. Marenich, 
 J. Bloino, B. G. Janesko, R. Gomperts, B. Mennucci, H. P. Hratchian, 
 J. V. Ortiz, A. F. Izmaylov, J. L. Sonnenberg, D. Williams-Young, 
 F. Ding, F. Lipparini, F. Egidi, J. Goings, B. Peng, A. Petrone, 
 T. Henderson, D. Ranasinghe, V. G. Zakrzewski, J. Gao, N. Rega, 
 G. Zheng, W. Liang, M. Hada, M. Ehara, K. Toyota, R. Fukuda, 
 J. Hasegawa, M. Ishida, T. Nakajima, Y. Honda, O. Kitao, H. Nakai, 
 T. Vreven, K. Throssell, J. A. Montgomery, Jr., J. E. Peralta, 
 F. Ogliaro, M. J. Bearpark, J. J. Heyd, E. N. Brothers, K. N. Kudin, 
 V. N. Staroverov, T. A. Keith, R. Kobayashi, J. Normand, 
 K. Raghavachari, A. P. Rendell, J. C. Burant, S. S. Iyengar, 
 J. Tomasi, M. Cossi, J. M. Millam, M. Klene, C. Adamo, R. Cammi, 
 J. W. Ochterski, R. L. Martin, K. Morokuma, O. Farkas, 
 J. B. Foresman, and D. J. Fox, Gaussian, Inc., Wallingford CT, 2019.
 
 ******************************************
 Gaussian 16:  ES64L-G16RevC.01  3-Jul-2019
                23-May-2022 
 ******************************************
 %nprocshared=12
 Will use up to   12 processors via shared memory.
 %mem=128MW
 %chk=NCNPtMePh.chk
 ----------------------------------------------------------------------
 # opt freq gen scrf=(iefpcm,solvent=thf) m06 EmpiricalDispersion=GD3 P
 seudo=Read
 ----------------------------------------------------------------------
 1/18=20,19=15,26=3,38=1/1,3;
 2/9=110,12=2,17=6,18=5,40=1/2;
 3/5=7,11=2,16=1,17=8,25=1,30=1,70=2201,71=1,72=20,74=-54,124=31/1,2,3;
 4//1;
 5/5=2,38=5,53=20/2;
 6/7=2,8=2,9=2,10=2,28=1/1;
 7//1,2,3,16;
 1/18=20,19=15,26=3/3(2);
 2/9=110/2;
 99//99;
 2/9=110/2;
 3/5=7,6=1,11=2,16=1,17=8,25=1,30=1,70=2205,71=1,72=20,74=-54,82=7,124=31/1,2,3;
 4/5=5,16=3,69=1/1;
 5/5=2,38=5,53=20/2;
 7//1,2,3,16;
 1/18=20,19=15,26=3/3(-5);
 2/9=110/2;
 6/7=2,8=2,9=2,10=2,19=2,28=1/1;
 99/9=1/99;
 --------------------------------------------------------
 M06 (NCN)PtMePh; Custom Lanl2tz(f)+6-311g(d,p) basis set
 --------------------------------------------------------
 Symbolic Z-matrix:
 Charge =  1 Multiplicity = 1
 Pt                   -0.01148   0.05292  -0.57454 
 C                    -0.04579  -1.16634   1.02837 
 C                     1.16004  -1.66107   1.49644 
 C                    -1.27517  -1.59277   1.4964 
 C                     1.14049  -2.65563   2.47423 
 C                    -1.30879  -2.58876   2.4756 
 C                    -0.09833  -3.11428   2.9494 
 H                     2.04754  -3.07208   2.86893 
 H                    -2.23703  -2.9541    2.87176 
 H                    -0.11903  -3.88203   3.69804 
 N                    -2.14703  -0.22423  -0.43325 
 N                     2.09311  -0.42135  -0.47137 
 C                     0.01634   1.01073  -2.52653 
 H                    -0.00458   0.21086  -3.27057 
 H                    -0.84145   1.64887  -2.71387 
 H                     0.91395   1.59658  -2.69958 
 C                     2.37643  -0.95786   0.93236 
 H                     2.59904  -0.10198   1.55211 
 H                     3.25628  -1.58166   0.91017 
 C                    -2.45267  -0.81822   0.94765 
 H                    -2.64119   0.02471   1.59774 
 H                    -3.35912  -1.39717   0.90636 
 C                    -2.93862   1.06022  -0.60466 
 C                    -4.4656    0.91997  -0.59533 
 H                    -2.62328   1.50175  -1.53405 
 H                    -2.63098   1.71748   0.19132 
 H                    -4.88764   1.91708  -0.64101 
 H                    -4.83537   0.37277  -1.45131 
 H                    -4.8376    0.45061   0.30576 
 C                    -2.42777  -1.19036  -1.59308 
 C                    -3.50438  -2.26258  -1.38097 
 H                    -1.51507  -1.70765  -1.85917 
 H                    -2.68171  -0.57013  -2.43778 
 H                    -3.64062  -2.77414  -2.3265 
 H                    -3.20186  -3.0025   -0.65256 
 H                    -4.45992  -1.85508  -1.0868 
 C                     2.17801  -1.54071  -1.50264 
 C                     3.55177  -2.16682  -1.77361 
 H                     1.79737  -1.13442  -2.42683 
 H                     1.49977  -2.31611  -1.17471 
 H                     3.39702  -3.00654  -2.44084 
 H                     4.22256  -1.47931  -2.26736 
 H                     4.03024  -2.54599  -0.88129 
 C                     3.00658   0.74395  -0.81891 
 C                     4.4595    0.67539  -0.3217 
 H                     2.55263   1.63071  -0.41201 
 H                     2.98988   0.83254  -1.89354 
 H                     4.97646   1.53962  -0.72302 
 H                     4.5269    0.73387   0.75563 
 H                     4.9896   -0.20458  -0.64998 
 C                     0.07737   1.77126   0.52491 
 C                     0.05514   3.00368  -0.1342 
 C                     0.15819   1.73308   1.91995 
 C                     0.11664   4.1886    0.6023 
 H                    -0.00819   3.06298  -1.19596 
 C                     0.22015   2.9262    2.64645 
 H                     0.17083   0.80957   2.45264 
 C                     0.20012   4.15719   1.99422 
 H                     0.09919   5.12662   0.08362 
 H                     0.28228   2.88175   3.71579 
 H                     0.24767   5.06918   2.55508 
 

 GradGradGradGradGradGradGradGradGradGradGradGradGradGradGradGradGradGrad
 Berny optimization.
 Initialization pass.
                           ----------------------------
                           !    Initial Parameters    !
                           ! (Angstroms and Degrees)  !
 --------------------------                            --------------------------
 ! Name  Definition              Value          Derivative Info.                !
 --------------------------------------------------------------------------------
 ! R1    R(1,2)                  2.0142         estimate D2E/DX2                !
 ! R2    R(1,11)                 2.1581         estimate D2E/DX2                !
 ! R3    R(1,12)                 2.1598         estimate D2E/DX2                !
 ! R4    R(1,13)                 2.1745         estimate D2E/DX2                !
 ! R5    R(1,51)                 2.0419         estimate D2E/DX2                !
 ! R6    R(2,3)                  1.3849         estimate D2E/DX2                !
 ! R7    R(2,4)                  1.3828         estimate D2E/DX2                !
 ! R8    R(3,5)                  1.3948         estimate D2E/DX2                !
 ! R9    R(3,17)                 1.514          estimate D2E/DX2                !
 ! R10   R(4,6)                  1.3971         estimate D2E/DX2                !
 ! R11   R(4,20)                 1.5125         estimate D2E/DX2                !
 ! R12   R(5,7)                  1.4039         estimate D2E/DX2                !
 ! R13   R(5,8)                  1.0733         estimate D2E/DX2                !
 ! R14   R(6,7)                  1.4021         estimate D2E/DX2                !
 ! R15   R(6,9)                  1.0733         estimate D2E/DX2                !
 ! R16   R(7,10)                 1.0725         estimate D2E/DX2                !
 ! R17   R(11,20)                1.534          estimate D2E/DX2                !
 ! R18   R(11,23)                1.5185         estimate D2E/DX2                !
 ! R19   R(11,30)                1.5354         estimate D2E/DX2                !
 ! R20   R(12,17)                1.5292         estimate D2E/DX2                !
 ! R21   R(12,37)                1.5244         estimate D2E/DX2                !
 ! R22   R(12,44)                1.5209         estimate D2E/DX2                !
 ! R23   R(13,14)                1.0926         estimate D2E/DX2                !
 ! R24   R(13,15)                1.0854         estimate D2E/DX2                !
 ! R25   R(13,16)                1.0858         estimate D2E/DX2                !
 ! R26   R(17,18)                1.0799         estimate D2E/DX2                !
 ! R27   R(17,19)                1.0788         estimate D2E/DX2                !
 ! R28   R(20,21)                1.0811         estimate D2E/DX2                !
 ! R29   R(20,22)                1.0764         estimate D2E/DX2                !
 ! R30   R(23,24)                1.5334         estimate D2E/DX2                !
 ! R31   R(23,25)                1.0762         estimate D2E/DX2                !
 ! R32   R(23,26)                1.0771         estimate D2E/DX2                !
 ! R33   R(24,27)                1.0837         estimate D2E/DX2                !
 ! R34   R(24,28)                1.0811         estimate D2E/DX2                !
 ! R35   R(24,29)                1.082          estimate D2E/DX2                !
 ! R36   R(30,31)                1.5342         estimate D2E/DX2                !
 ! R37   R(30,32)                1.0823         estimate D2E/DX2                !
 ! R38   R(30,33)                1.0783         estimate D2E/DX2                !
 ! R39   R(31,34)                1.0836         estimate D2E/DX2                !
 ! R40   R(31,35)                1.0815         estimate D2E/DX2                !
 ! R41   R(31,36)                1.0797         estimate D2E/DX2                !
 ! R42   R(37,38)                1.5338         estimate D2E/DX2                !
 ! R43   R(37,39)                1.0789         estimate D2E/DX2                !
 ! R44   R(37,40)                1.0811         estimate D2E/DX2                !
 ! R45   R(38,41)                1.0836         estimate D2E/DX2                !
 ! R46   R(38,42)                1.08           estimate D2E/DX2                !
 ! R47   R(38,43)                1.0812         estimate D2E/DX2                !
 ! R48   R(44,45)                1.5372         estimate D2E/DX2                !
 ! R49   R(44,46)                1.0761         estimate D2E/DX2                !
 ! R50   R(44,47)                1.0784         estimate D2E/DX2                !
 ! R51   R(45,48)                1.0841         estimate D2E/DX2                !
 ! R52   R(45,49)                1.081          estimate D2E/DX2                !
 ! R53   R(45,50)                1.0785         estimate D2E/DX2                !
 ! R54   R(51,52)                1.3978         estimate D2E/DX2                !
 ! R55   R(51,53)                1.3979         estimate D2E/DX2                !
 ! R56   R(52,54)                1.3965         estimate D2E/DX2                !
 ! R57   R(52,55)                1.0653         estimate D2E/DX2                !
 ! R58   R(53,56)                1.3983         estimate D2E/DX2                !
 ! R59   R(53,57)                1.0662         estimate D2E/DX2                !
 ! R60   R(54,58)                1.3948         estimate D2E/DX2                !
 ! R61   R(54,59)                1.072          estimate D2E/DX2                !
 ! R62   R(56,58)                1.3932         estimate D2E/DX2                !
 ! R63   R(56,60)                1.0721         estimate D2E/DX2                !
 ! R64   R(58,61)                1.0717         estimate D2E/DX2                !
 ! A1    A(2,1,11)              81.5646         estimate D2E/DX2                !
 ! A2    A(2,1,12)              81.1217         estimate D2E/DX2                !
 ! A3    A(2,1,51)              94.6837         estimate D2E/DX2                !
 ! A4    A(11,1,12)            158.8944         estimate D2E/DX2                !
 ! A5    A(11,1,13)             97.3539         estimate D2E/DX2                !
 ! A6    A(11,1,51)             96.6544         estimate D2E/DX2                !
 ! A7    A(12,1,13)             97.3041         estimate D2E/DX2                !
 ! A8    A(12,1,51)             96.6999         estimate D2E/DX2                !
 ! A9    A(13,1,51)             96.4372         estimate D2E/DX2                !
 ! A10   A(1,2,3)              118.0592         estimate D2E/DX2                !
 ! A11   A(1,2,4)              118.1088         estimate D2E/DX2                !
 ! A12   A(3,2,4)              123.3347         estimate D2E/DX2                !
 ! A13   A(2,3,5)              118.6492         estimate D2E/DX2                !
 ! A14   A(2,3,17)             114.0601         estimate D2E/DX2                !
 ! A15   A(5,3,17)             127.1284         estimate D2E/DX2                !
 ! A16   A(2,4,6)              118.5834         estimate D2E/DX2                !
 ! A17   A(2,4,20)             114.2935         estimate D2E/DX2                !
 ! A18   A(6,4,20)             126.9149         estimate D2E/DX2                !
 ! A19   A(3,5,7)              118.8546         estimate D2E/DX2                !
 ! A20   A(3,5,8)              121.5073         estimate D2E/DX2                !
 ! A21   A(7,5,8)              119.638          estimate D2E/DX2                !
 ! A22   A(4,6,7)              118.8986         estimate D2E/DX2                !
 ! A23   A(4,6,9)              121.4764         estimate D2E/DX2                !
 ! A24   A(7,6,9)              119.6246         estimate D2E/DX2                !
 ! A25   A(5,7,6)              121.6681         estimate D2E/DX2                !
 ! A26   A(5,7,10)             119.1538         estimate D2E/DX2                !
 ! A27   A(6,7,10)             119.1771         estimate D2E/DX2                !
 ! A28   A(1,11,20)            107.808          estimate D2E/DX2                !
 ! A29   A(1,11,23)            113.5679         estimate D2E/DX2                !
 ! A30   A(1,11,30)            102.2566         estimate D2E/DX2                !
 ! A31   A(20,11,23)           108.983          estimate D2E/DX2                !
 ! A32   A(20,11,30)           113.5735         estimate D2E/DX2                !
 ! A33   A(23,11,30)           110.5895         estimate D2E/DX2                !
 ! A34   A(1,12,17)            107.5427         estimate D2E/DX2                !
 ! A35   A(1,12,37)            100.5562         estimate D2E/DX2                !
 ! A36   A(1,12,44)            113.9594         estimate D2E/DX2                !
 ! A37   A(17,12,37)           110.6745         estimate D2E/DX2                !
 ! A38   A(17,12,44)           111.5484         estimate D2E/DX2                !
 ! A39   A(37,12,44)           111.9983         estimate D2E/DX2                !
 ! A40   A(1,13,14)            106.7733         estimate D2E/DX2                !
 ! A41   A(1,13,15)            113.8154         estimate D2E/DX2                !
 ! A42   A(1,13,16)            113.0366         estimate D2E/DX2                !
 ! A43   A(14,13,15)           107.3215         estimate D2E/DX2                !
 ! A44   A(14,13,16)           107.5958         estimate D2E/DX2                !
 ! A45   A(15,13,16)           107.9751         estimate D2E/DX2                !
 ! A46   A(3,17,12)            110.8604         estimate D2E/DX2                !
 ! A47   A(3,17,18)            108.6576         estimate D2E/DX2                !
 ! A48   A(3,17,19)            113.2256         estimate D2E/DX2                !
 ! A49   A(12,17,18)           106.6743         estimate D2E/DX2                !
 ! A50   A(12,17,19)           109.5782         estimate D2E/DX2                !
 ! A51   A(18,17,19)           107.5761         estimate D2E/DX2                !
 ! A52   A(4,20,11)            111.7026         estimate D2E/DX2                !
 ! A53   A(4,20,21)            108.475          estimate D2E/DX2                !
 ! A54   A(4,20,22)            113.2099         estimate D2E/DX2                !
 ! A55   A(11,20,21)           105.9115         estimate D2E/DX2                !
 ! A56   A(11,20,22)           109.9707         estimate D2E/DX2                !
 ! A57   A(21,20,22)           107.1941         estimate D2E/DX2                !
 ! A58   A(11,23,24)           116.1712         estimate D2E/DX2                !
 ! A59   A(11,23,25)           106.9644         estimate D2E/DX2                !
 ! A60   A(11,23,26)           106.4896         estimate D2E/DX2                !
 ! A61   A(24,23,25)           109.5461         estimate D2E/DX2                !
 ! A62   A(24,23,26)           109.6163         estimate D2E/DX2                !
 ! A63   A(25,23,26)           107.707          estimate D2E/DX2                !
 ! A64   A(23,24,27)           107.6614         estimate D2E/DX2                !
 ! A65   A(23,24,28)           112.461          estimate D2E/DX2                !
 ! A66   A(23,24,29)           112.7751         estimate D2E/DX2                !
 ! A67   A(27,24,28)           107.4046         estimate D2E/DX2                !
 ! A68   A(27,24,29)           107.4784         estimate D2E/DX2                !
 ! A69   A(28,24,29)           108.7977         estimate D2E/DX2                !
 ! A70   A(11,30,31)           117.6222         estimate D2E/DX2                !
 ! A71   A(11,30,32)           109.4065         estimate D2E/DX2                !
 ! A72   A(11,30,33)           105.8358         estimate D2E/DX2                !
 ! A73   A(31,30,32)           106.9616         estimate D2E/DX2                !
 ! A74   A(31,30,33)           110.1844         estimate D2E/DX2                !
 ! A75   A(32,30,33)           106.315          estimate D2E/DX2                !
 ! A76   A(30,31,34)           107.3085         estimate D2E/DX2                !
 ! A77   A(30,31,35)           112.0232         estimate D2E/DX2                !
 ! A78   A(30,31,36)           113.2636         estimate D2E/DX2                !
 ! A79   A(34,31,35)           107.4503         estimate D2E/DX2                !
 ! A80   A(34,31,36)           107.737          estimate D2E/DX2                !
 ! A81   A(35,31,36)           108.8015         estimate D2E/DX2                !
 ! A82   A(12,37,38)           117.9787         estimate D2E/DX2                !
 ! A83   A(12,37,39)           106.4591         estimate D2E/DX2                !
 ! A84   A(12,37,40)           106.6497         estimate D2E/DX2                !
 ! A85   A(38,37,39)           108.5641         estimate D2E/DX2                !
 ! A86   A(38,37,40)           108.8262         estimate D2E/DX2                !
 ! A87   A(39,37,40)           107.9738         estimate D2E/DX2                !
 ! A88   A(37,38,41)           107.2889         estimate D2E/DX2                !
 ! A89   A(37,38,42)           112.1598         estimate D2E/DX2                !
 ! A90   A(37,38,43)           113.1858         estimate D2E/DX2                !
 ! A91   A(41,38,42)           107.4871         estimate D2E/DX2                !
 ! A92   A(41,38,43)           107.4345         estimate D2E/DX2                !
 ! A93   A(42,38,43)           109.008          estimate D2E/DX2                !
 ! A94   A(12,44,45)           117.3617         estimate D2E/DX2                !
 ! A95   A(12,44,46)           106.9543         estimate D2E/DX2                !
 ! A96   A(12,44,47)           106.3408         estimate D2E/DX2                !
 ! A97   A(45,44,46)           108.2506         estimate D2E/DX2                !
 ! A98   A(45,44,47)           109.9151         estimate D2E/DX2                !
 ! A99   A(46,44,47)           107.6123         estimate D2E/DX2                !
 ! A100  A(44,45,48)           107.1836         estimate D2E/DX2                !
 ! A101  A(44,45,49)           112.2639         estimate D2E/DX2                !
 ! A102  A(44,45,50)           113.7357         estimate D2E/DX2                !
 ! A103  A(48,45,49)           107.2221         estimate D2E/DX2                !
 ! A104  A(48,45,50)           107.6615         estimate D2E/DX2                !
 ! A105  A(49,45,50)           108.4723         estimate D2E/DX2                !
 ! A106  A(1,51,52)            119.1694         estimate D2E/DX2                !
 ! A107  A(1,51,53)            121.1227         estimate D2E/DX2                !
 ! A108  A(52,51,53)           119.7078         estimate D2E/DX2                !
 ! A109  A(51,52,54)           119.9157         estimate D2E/DX2                !
 ! A110  A(51,52,55)           121.3323         estimate D2E/DX2                !
 ! A111  A(54,52,55)           118.752          estimate D2E/DX2                !
 ! A112  A(51,53,56)           119.852          estimate D2E/DX2                !
 ! A113  A(51,53,57)           121.5293         estimate D2E/DX2                !
 ! A114  A(56,53,57)           118.6184         estimate D2E/DX2                !
 ! A115  A(52,54,58)           120.6527         estimate D2E/DX2                !
 ! A116  A(52,54,59)           119.1137         estimate D2E/DX2                !
 ! A117  A(58,54,59)           120.2335         estimate D2E/DX2                !
 ! A118  A(53,56,58)           120.6665         estimate D2E/DX2                !
 ! A119  A(53,56,60)           119.0411         estimate D2E/DX2                !
 ! A120  A(58,56,60)           120.2924         estimate D2E/DX2                !
 ! A121  A(54,58,56)           119.205          estimate D2E/DX2                !
 ! A122  A(54,58,61)           120.3815         estimate D2E/DX2                !
 ! A123  A(56,58,61)           120.4135         estimate D2E/DX2                !
 ! A124  L(2,1,13,11,-1)       178.9185         estimate D2E/DX2                !
 ! A125  L(2,1,13,11,-2)       191.1773         estimate D2E/DX2                !
 ! D1    D(11,1,2,3)           171.1907         estimate D2E/DX2                !
 ! D2    D(11,1,2,4)            -0.9933         estimate D2E/DX2                !
 ! D3    D(12,1,2,3)             3.3068         estimate D2E/DX2                !
 ! D4    D(12,1,2,4)          -168.8772         estimate D2E/DX2                !
 ! D5    D(51,1,2,3)           -92.7597         estimate D2E/DX2                !
 ! D6    D(51,1,2,4)            95.0563         estimate D2E/DX2                !
 ! D7    D(2,1,11,20)           15.0927         estimate D2E/DX2                !
 ! D8    D(2,1,11,23)          135.9481         estimate D2E/DX2                !
 ! D9    D(2,1,11,30)         -104.8828         estimate D2E/DX2                !
 ! D10   D(12,1,11,20)          50.2563         estimate D2E/DX2                !
 ! D11   D(12,1,11,23)         171.1118         estimate D2E/DX2                !
 ! D12   D(12,1,11,30)         -69.7192         estimate D2E/DX2                !
 ! D13   D(13,1,11,20)        -176.0846         estimate D2E/DX2                !
 ! D14   D(13,1,11,23)         -55.2291         estimate D2E/DX2                !
 ! D15   D(13,1,11,30)          63.9399         estimate D2E/DX2                !
 ! D16   D(51,1,11,20)         -78.6804         estimate D2E/DX2                !
 ! D17   D(51,1,11,23)          42.175          estimate D2E/DX2                !
 ! D18   D(51,1,11,30)         161.344          estimate D2E/DX2                !
 ! D19   D(2,1,12,17)          -18.54           estimate D2E/DX2                !
 ! D20   D(2,1,12,37)           97.2811         estimate D2E/DX2                !
 ! D21   D(2,1,12,44)         -142.7342         estimate D2E/DX2                !
 ! D22   D(11,1,12,17)         -53.7512         estimate D2E/DX2                !
 ! D23   D(11,1,12,37)          62.07           estimate D2E/DX2                !
 ! D24   D(11,1,12,44)        -177.9454         estimate D2E/DX2                !
 ! D25   D(13,1,12,17)         172.583          estimate D2E/DX2                !
 ! D26   D(13,1,12,37)         -71.5958         estimate D2E/DX2                !
 ! D27   D(13,1,12,44)          48.3888         estimate D2E/DX2                !
 ! D28   D(51,1,12,17)          75.1789         estimate D2E/DX2                !
 ! D29   D(51,1,12,37)        -168.9999         estimate D2E/DX2                !
 ! D30   D(51,1,12,44)         -49.0152         estimate D2E/DX2                !
 ! D31   D(11,1,13,14)         -83.6323         estimate D2E/DX2                !
 ! D32   D(11,1,13,15)          34.593          estimate D2E/DX2                !
 ! D33   D(11,1,13,16)         158.2515         estimate D2E/DX2                !
 ! D34   D(12,1,13,14)          81.1409         estimate D2E/DX2                !
 ! D35   D(12,1,13,15)        -160.6338         estimate D2E/DX2                !
 ! D36   D(12,1,13,16)         -36.9753         estimate D2E/DX2                !
 ! D37   D(51,1,13,14)         178.7742         estimate D2E/DX2                !
 ! D38   D(51,1,13,15)         -63.0005         estimate D2E/DX2                !
 ! D39   D(51,1,13,16)          60.658          estimate D2E/DX2                !
 ! D40   D(2,1,51,52)         -176.786          estimate D2E/DX2                !
 ! D41   D(2,1,51,53)            3.1429         estimate D2E/DX2                !
 ! D42   D(11,1,51,52)         -94.7544         estimate D2E/DX2                !
 ! D43   D(11,1,51,53)          85.1745         estimate D2E/DX2                !
 ! D44   D(12,1,51,52)         101.6262         estimate D2E/DX2                !
 ! D45   D(12,1,51,53)         -78.4449         estimate D2E/DX2                !
 ! D46   D(13,1,51,52)           3.4582         estimate D2E/DX2                !
 ! D47   D(13,1,51,53)        -176.6129         estimate D2E/DX2                !
 ! D48   D(1,2,3,5)           -170.6704         estimate D2E/DX2                !
 ! D49   D(1,2,3,17)            13.6309         estimate D2E/DX2                !
 ! D50   D(4,2,3,5)              1.0749         estimate D2E/DX2                !
 ! D51   D(4,2,3,17)          -174.6238         estimate D2E/DX2                !
 ! D52   D(1,2,4,6)            170.6545         estimate D2E/DX2                !
 ! D53   D(1,2,4,20)           -14.2255         estimate D2E/DX2                !
 ! D54   D(3,2,4,6)             -1.087          estimate D2E/DX2                !
 ! D55   D(3,2,4,20)           174.0331         estimate D2E/DX2                !
 ! D56   D(2,3,5,7)             -0.1901         estimate D2E/DX2                !
 ! D57   D(2,3,5,8)            179.9582         estimate D2E/DX2                !
 ! D58   D(17,3,5,7)           174.8822         estimate D2E/DX2                !
 ! D59   D(17,3,5,8)            -4.9695         estimate D2E/DX2                !
 ! D60   D(2,3,17,12)          -29.5776         estimate D2E/DX2                !
 ! D61   D(2,3,17,18)           87.3434         estimate D2E/DX2                !
 ! D62   D(2,3,17,19)         -153.2024         estimate D2E/DX2                !
 ! D63   D(5,3,17,12)          155.1578         estimate D2E/DX2                !
 ! D64   D(5,3,17,18)          -87.9212         estimate D2E/DX2                !
 ! D65   D(5,3,17,19)           31.533          estimate D2E/DX2                !
 ! D66   D(2,4,6,7)              0.215          estimate D2E/DX2                !
 ! D67   D(2,4,6,9)            179.9911         estimate D2E/DX2                !
 ! D68   D(20,4,6,7)          -174.2199         estimate D2E/DX2                !
 ! D69   D(20,4,6,9)             5.5562         estimate D2E/DX2                !
 ! D70   D(2,4,20,11)           27.1768         estimate D2E/DX2                !
 ! D71   D(2,4,20,21)          -89.1875         estimate D2E/DX2                !
 ! D72   D(2,4,20,22)          151.9711         estimate D2E/DX2                !
 ! D73   D(6,4,20,11)         -158.1842         estimate D2E/DX2                !
 ! D74   D(6,4,20,21)           85.4514         estimate D2E/DX2                !
 ! D75   D(6,4,20,22)          -33.3899         estimate D2E/DX2                !
 ! D76   D(3,5,7,6)             -0.6432         estimate D2E/DX2                !
 ! D77   D(3,5,7,10)           179.7263         estimate D2E/DX2                !
 ! D78   D(8,5,7,6)            179.2113         estimate D2E/DX2                !
 ! D79   D(8,5,7,10)            -0.4192         estimate D2E/DX2                !
 ! D80   D(4,6,7,5)              0.6307         estimate D2E/DX2                !
 ! D81   D(4,6,7,10)          -179.7388         estimate D2E/DX2                !
 ! D82   D(9,6,7,5)           -179.1496         estimate D2E/DX2                !
 ! D83   D(9,6,7,10)             0.4809         estimate D2E/DX2                !
 ! D84   D(1,11,20,4)          -26.1625         estimate D2E/DX2                !
 ! D85   D(1,11,20,21)          91.7496         estimate D2E/DX2                !
 ! D86   D(1,11,20,22)        -152.7418         estimate D2E/DX2                !
 ! D87   D(23,11,20,4)        -149.8462         estimate D2E/DX2                !
 ! D88   D(23,11,20,21)        -31.9342         estimate D2E/DX2                !
 ! D89   D(23,11,20,22)         83.5744         estimate D2E/DX2                !
 ! D90   D(30,11,20,4)          86.3842         estimate D2E/DX2                !
 ! D91   D(30,11,20,21)       -155.7038         estimate D2E/DX2                !
 ! D92   D(30,11,20,22)        -40.1952         estimate D2E/DX2                !
 ! D93   D(1,11,23,24)         176.6166         estimate D2E/DX2                !
 ! D94   D(1,11,23,25)          53.9565         estimate D2E/DX2                !
 ! D95   D(1,11,23,26)         -60.9996         estimate D2E/DX2                !
 ! D96   D(20,11,23,24)        -63.1907         estimate D2E/DX2                !
 ! D97   D(20,11,23,25)        174.1492         estimate D2E/DX2                !
 ! D98   D(20,11,23,26)         59.193          estimate D2E/DX2                !
 ! D99   D(30,11,23,24)         62.3309         estimate D2E/DX2                !
 ! D100  D(30,11,23,25)        -60.3292         estimate D2E/DX2                !
 ! D101  D(30,11,23,26)       -175.2853         estimate D2E/DX2                !
 ! D102  D(1,11,30,31)         143.3659         estimate D2E/DX2                !
 ! D103  D(1,11,30,32)          21.1281         estimate D2E/DX2                !
 ! D104  D(1,11,30,33)         -93.0461         estimate D2E/DX2                !
 ! D105  D(20,11,30,31)         27.5012         estimate D2E/DX2                !
 ! D106  D(20,11,30,32)        -94.7366         estimate D2E/DX2                !
 ! D107  D(20,11,30,33)        151.0892         estimate D2E/DX2                !
 ! D108  D(23,11,30,31)        -95.3896         estimate D2E/DX2                !
 ! D109  D(23,11,30,32)        142.3726         estimate D2E/DX2                !
 ! D110  D(23,11,30,33)         28.1984         estimate D2E/DX2                !
 ! D111  D(1,12,17,3)           30.1558         estimate D2E/DX2                !
 ! D112  D(1,12,17,18)         -87.9773         estimate D2E/DX2                !
 ! D113  D(1,12,17,19)         155.8487         estimate D2E/DX2                !
 ! D114  D(37,12,17,3)         -78.7886         estimate D2E/DX2                !
 ! D115  D(37,12,17,18)        163.0783         estimate D2E/DX2                !
 ! D116  D(37,12,17,19)         46.9043         estimate D2E/DX2                !
 ! D117  D(44,12,17,3)         155.7986         estimate D2E/DX2                !
 ! D118  D(44,12,17,18)         37.6655         estimate D2E/DX2                !
 ! D119  D(44,12,17,19)        -78.5084         estimate D2E/DX2                !
 ! D120  D(1,12,37,38)         178.7767         estimate D2E/DX2                !
 ! D121  D(1,12,37,39)          56.5785         estimate D2E/DX2                !
 ! D122  D(1,12,37,40)         -58.5215         estimate D2E/DX2                !
 ! D123  D(17,12,37,38)        -67.7681         estimate D2E/DX2                !
 ! D124  D(17,12,37,39)        170.0337         estimate D2E/DX2                !
 ! D125  D(17,12,37,40)         54.9336         estimate D2E/DX2                !
 ! D126  D(44,12,37,38)         57.3907         estimate D2E/DX2                !
 ! D127  D(44,12,37,39)        -64.8075         estimate D2E/DX2                !
 ! D128  D(44,12,37,40)       -179.9076         estimate D2E/DX2                !
 ! D129  D(1,12,44,45)         159.3833         estimate D2E/DX2                !
 ! D130  D(1,12,44,46)          37.6199         estimate D2E/DX2                !
 ! D131  D(1,12,44,47)         -77.1529         estimate D2E/DX2                !
 ! D132  D(17,12,44,45)         37.371          estimate D2E/DX2                !
 ! D133  D(17,12,44,46)        -84.3924         estimate D2E/DX2                !
 ! D134  D(17,12,44,47)        160.8347         estimate D2E/DX2                !
 ! D135  D(37,12,44,45)        -87.3045         estimate D2E/DX2                !
 ! D136  D(37,12,44,46)        150.9321         estimate D2E/DX2                !
 ! D137  D(37,12,44,47)         36.1593         estimate D2E/DX2                !
 ! D138  D(11,23,24,27)        175.2481         estimate D2E/DX2                !
 ! D139  D(11,23,24,28)        -66.6324         estimate D2E/DX2                !
 ! D140  D(11,23,24,29)         56.8538         estimate D2E/DX2                !
 ! D141  D(25,23,24,27)        -63.456          estimate D2E/DX2                !
 ! D142  D(25,23,24,28)         54.6636         estimate D2E/DX2                !
 ! D143  D(25,23,24,29)        178.1498         estimate D2E/DX2                !
 ! D144  D(26,23,24,27)         54.5242         estimate D2E/DX2                !
 ! D145  D(26,23,24,28)        172.6438         estimate D2E/DX2                !
 ! D146  D(26,23,24,29)        -63.87           estimate D2E/DX2                !
 ! D147  D(11,30,31,34)        173.966          estimate D2E/DX2                !
 ! D148  D(11,30,31,35)        -68.3317         estimate D2E/DX2                !
 ! D149  D(11,30,31,36)         55.195          estimate D2E/DX2                !
 ! D150  D(32,30,31,34)        -62.5527         estimate D2E/DX2                !
 ! D151  D(32,30,31,35)         55.1496         estimate D2E/DX2                !
 ! D152  D(32,30,31,36)        178.6763         estimate D2E/DX2                !
 ! D153  D(33,30,31,34)         52.6001         estimate D2E/DX2                !
 ! D154  D(33,30,31,35)        170.3024         estimate D2E/DX2                !
 ! D155  D(33,30,31,36)        -66.171          estimate D2E/DX2                !
 ! D156  D(12,37,38,41)        173.7455         estimate D2E/DX2                !
 ! D157  D(12,37,38,42)        -68.4423         estimate D2E/DX2                !
 ! D158  D(12,37,38,43)         55.4073         estimate D2E/DX2                !
 ! D159  D(39,37,38,41)        -65.1335         estimate D2E/DX2                !
 ! D160  D(39,37,38,42)         52.6787         estimate D2E/DX2                !
 ! D161  D(39,37,38,43)        176.5283         estimate D2E/DX2                !
 ! D162  D(40,37,38,41)         52.1516         estimate D2E/DX2                !
 ! D163  D(40,37,38,42)        169.9638         estimate D2E/DX2                !
 ! D164  D(40,37,38,43)        -66.1866         estimate D2E/DX2                !
 ! D165  D(12,44,45,48)        175.6555         estimate D2E/DX2                !
 ! D166  D(12,44,45,49)        -66.8622         estimate D2E/DX2                !
 ! D167  D(12,44,45,50)         56.7812         estimate D2E/DX2                !
 ! D168  D(46,44,45,48)        -63.2542         estimate D2E/DX2                !
 ! D169  D(46,44,45,49)         54.2281         estimate D2E/DX2                !
 ! D170  D(46,44,45,50)        177.8716         estimate D2E/DX2                !
 ! D171  D(47,44,45,48)         54.0257         estimate D2E/DX2                !
 ! D172  D(47,44,45,49)        171.508          estimate D2E/DX2                !
 ! D173  D(47,44,45,50)        -64.8486         estimate D2E/DX2                !
 ! D174  D(1,51,52,54)        -179.9283         estimate D2E/DX2                !
 ! D175  D(1,51,52,55)           0.0692         estimate D2E/DX2                !
 ! D176  D(53,51,52,54)          0.1417         estimate D2E/DX2                !
 ! D177  D(53,51,52,55)       -179.8607         estimate D2E/DX2                !
 ! D178  D(1,51,53,56)         179.8859         estimate D2E/DX2                !
 ! D179  D(1,51,53,57)          -0.3237         estimate D2E/DX2                !
 ! D180  D(52,51,53,56)         -0.1856         estimate D2E/DX2                !
 ! D181  D(52,51,53,57)        179.6048         estimate D2E/DX2                !
 ! D182  D(51,52,54,58)         -0.0123         estimate D2E/DX2                !
 ! D183  D(51,52,54,59)        179.9695         estimate D2E/DX2                !
 ! D184  D(55,52,54,58)        179.9901         estimate D2E/DX2                !
 ! D185  D(55,52,54,59)         -0.0281         estimate D2E/DX2                !
 ! D186  D(51,53,56,58)          0.101          estimate D2E/DX2                !
 ! D187  D(51,53,56,60)       -179.9739         estimate D2E/DX2                !
 ! D188  D(57,53,56,58)       -179.6954         estimate D2E/DX2                !
 ! D189  D(57,53,56,60)          0.2296         estimate D2E/DX2                !
 ! D190  D(52,54,58,56)         -0.0727         estimate D2E/DX2                !
 ! D191  D(52,54,58,61)        179.9643         estimate D2E/DX2                !
 ! D192  D(59,54,58,56)        179.9457         estimate D2E/DX2                !
 ! D193  D(59,54,58,61)         -0.0173         estimate D2E/DX2                !
 ! D194  D(53,56,58,54)          0.0282         estimate D2E/DX2                !
 ! D195  D(53,56,58,61)        179.9912         estimate D2E/DX2                !
 ! D196  D(60,56,58,54)       -179.8959         estimate D2E/DX2                !
 ! D197  D(60,56,58,61)          0.067          estimate D2E/DX2                !
 --------------------------------------------------------------------------------
 Trust Radius=3.00D-01 FncErr=1.00D-07 GrdErr=1.00D-06 EigMax=2.50D+02 EigMin=1.00D-04
 Number of steps in this run=    366 maximum allowed number of steps=    366.
 GradGradGradGradGradGradGradGradGradGradGradGradGradGradGradGradGradGrad

 Stoichiometry    C23H35N2Pt(1+)
 Framework group  C1[X(C23H35N2Pt)]
 Deg. of freedom   177
 Full point group                 C1      NOp   1
 Largest Abelian subgroup         C1      NOp   1
 Largest concise Abelian subgroup C1      NOp   1
                         Standard orientation:                         
 ---------------------------------------------------------------------
 Center     Atomic      Atomic             Coordinates (Angstroms)
 Number     Number       Type             X           Y           Z
 ---------------------------------------------------------------------
      1         78           0       -0.011478    0.052920   -0.574539
      2          6           0       -0.045788   -1.166340    1.028371
      3          6           0        1.160042   -1.661070    1.496441
      4          6           0       -1.275168   -1.592770    1.496401
      5          6           0        1.140492   -2.655630    2.474231
      6          6           0       -1.308788   -2.588760    2.475601
      7          6           0       -0.098328   -3.114280    2.949401
      8          1           0        2.047542   -3.072080    2.868931
      9          1           0       -2.237028   -2.954100    2.871761
     10          1           0       -0.119028   -3.882030    3.698041
     11          7           0       -2.147028   -0.224230   -0.433249
     12          7           0        2.093112   -0.421350   -0.471369
     13          6           0        0.016341    1.010730   -2.526529
     14          1           0       -0.004578    0.210860   -3.270569
     15          1           0       -0.841449    1.648870   -2.713869
     16          1           0        0.913951    1.596580   -2.699579
     17          6           0        2.376432   -0.957860    0.932361
     18          1           0        2.599042   -0.101980    1.552111
     19          1           0        3.256282   -1.581660    0.910171
     20          6           0       -2.452668   -0.818220    0.947651
     21          1           0       -2.641188    0.024710    1.597741
     22          1           0       -3.359118   -1.397170    0.906361
     23          6           0       -2.938619    1.060220   -0.604659
     24          6           0       -4.465599    0.919970   -0.595329
     25          1           0       -2.623279    1.501750   -1.534049
     26          1           0       -2.630979    1.717480    0.191321
     27          1           0       -4.887639    1.917080   -0.641009
     28          1           0       -4.835368    0.372770   -1.451309
     29          1           0       -4.837598    0.450610    0.305761
     30          6           0       -2.427768   -1.190360   -1.593079
     31          6           0       -3.504378   -2.262580   -1.380969
     32          1           0       -1.515068   -1.707650   -1.859169
     33          1           0       -2.681708   -0.570130   -2.437779
     34          1           0       -3.640618   -2.774140   -2.326499
     35          1           0       -3.201858   -3.002500   -0.652559
     36          1           0       -4.459918   -1.855080   -1.086799
     37          6           0        2.178012   -1.540710   -1.502639
     38          6           0        3.551772   -2.166820   -1.773609
     39          1           0        1.797372   -1.134420   -2.426829
     40          1           0        1.499772   -2.316110   -1.174709
     41          1           0        3.397022   -3.006540   -2.440839
     42          1           0        4.222562   -1.479310   -2.267359
     43          1           0        4.030242   -2.545990   -0.881289
     44          6           0        3.006581    0.743950   -0.818909
     45          6           0        4.459501    0.675390   -0.321699
     46          1           0        2.552631    1.630710   -0.412009
     47          1           0        2.989881    0.832540   -1.893539
     48          1           0        4.976461    1.539620   -0.723019
     49          1           0        4.526901    0.733870    0.755631
     50          1           0        4.989602   -0.204580   -0.649979
     51          6           0        0.077371    1.771260    0.524911
     52          6           0        0.055141    3.003680   -0.134199
     53          6           0        0.158191    1.733080    1.919951
     54          6           0        0.116641    4.188600    0.602301
     55          1           0       -0.008189    3.062980   -1.195959
     56          6           0        0.220151    2.926200    2.646451
     57          1           0        0.170831    0.809570    2.452641
     58          6           0        0.200121    4.157190    1.994221
     59          1           0        0.099191    5.126620    0.083621
     60          1           0        0.282281    2.881750    3.715791
     61          1           0        0.247671    5.069180    2.555081
 ---------------------------------------------------------------------
 Rotational constants (GHZ):           0.2089918           0.1857167           0.1552581
 General basis read from cards:  (5D, 7F)
 ======================================================================================================
                                       Pseudopotential Parameters
 ======================================================================================================
  Center     Atomic      Valence      Angular      Power
  Number     Number     Electrons     Momentum     of R      Exponent        Coefficient   SO-Coeffient
 ======================================================================================================
    1         78           18
                                      G and up 
                                                     1      728.9394056       -0.16192680    0.00000000
                                                     2      320.6567800    -1320.28738520    0.00000000
                                                     2       52.8680174     -298.31781350    0.00000000
                                                     2       12.0280128      -87.58370650    0.00000000
                                                     2        3.5238913       -8.14932740    0.00000000
                                      S - G
                                                     0      409.4437358        2.73342180    0.00000000
                                                     1      274.5419231       59.70243290    0.00000000
                                                     2      127.5658570      891.45895500    0.00000000
                                                     2       32.9036631      368.44676560    0.00000000
                                                     2        5.0593880      238.02630900    0.00000000
                                                     2        4.1506556     -107.05564540    0.00000000
                                      P - G
                                                     0      466.1728892        1.88785680    0.00000000
                                                     1      120.7888259       76.01386290    0.00000000
                                                     2       36.4118791      343.55111160    0.00000000
                                                     2        5.6985408      119.49117860    0.00000000
                                      D - G
                                                     0      249.5650763        2.93436780    0.00000000
                                                     1      126.6678585       59.33065710    0.00000000
                                                     2       63.1430586      452.44451940    0.00000000
                                                     2       17.9059470      210.47694790    0.00000000
                                                     2        4.2239373       58.62541120    0.00000000
                                      F - G
                                                     0      121.8158799        3.95342530    0.00000000
                                                     1       60.8757030       53.85551820    0.00000000
                                                     2       31.4767147      247.43051330    0.00000000
                                                     2        9.8811751      127.81879760    0.00000000
                                                     2        2.7319874       15.37720460    0.00000000
    2          6
                                   No pseudopotential on this center.
    3          6
                                   No pseudopotential on this center.
    4          6
                                   No pseudopotential on this center.
    5          6
                                   No pseudopotential on this center.
    6          6
                                   No pseudopotential on this center.
    7          6
                                   No pseudopotential on this center.
    8          1
                                   No pseudopotential on this center.
    9          1
                                   No pseudopotential on this center.
   10          1
                                   No pseudopotential on this center.
   11          7
                                   No pseudopotential on this center.
   12          7
                                   No pseudopotential on this center.
   13          6
                                   No pseudopotential on this center.
   14          1
                                   No pseudopotential on this center.
   15          1
                                   No pseudopotential on this center.
   16          1
                                   No pseudopotential on this center.
   17          6
                                   No pseudopotential on this center.
   18          1
                                   No pseudopotential on this center.
   19          1
                                   No pseudopotential on this center.
   20          6
                                   No pseudopotential on this center.
   21          1
                                   No pseudopotential on this center.
   22          1
                                   No pseudopotential on this center.
   23          6
                                   No pseudopotential on this center.
   24          6
                                   No pseudopotential on this center.
   25          1
                                   No pseudopotential on this center.
   26          1
                                   No pseudopotential on this center.
   27          1
                                   No pseudopotential on this center.
   28          1
                                   No pseudopotential on this center.
   29          1
                                   No pseudopotential on this center.
   30          6
                                   No pseudopotential on this center.
   31          6
                                   No pseudopotential on this center.
   32          1
                                   No pseudopotential on this center.
   33          1
                                   No pseudopotential on this center.
   34          1
                                   No pseudopotential on this center.
   35          1
                                   No pseudopotential on this center.
   36          1
                                   No pseudopotential on this center.
   37          6
                                   No pseudopotential on this center.
   38          6
                                   No pseudopotential on this center.
   39          1
                                   No pseudopotential on this center.
   40          1
                                   No pseudopotential on this center.
   41          1
                                   No pseudopotential on this center.
   42          1
                                   No pseudopotential on this center.
   43          1
                                   No pseudopotential on this center.
   44          6
                                   No pseudopotential on this center.
   45          6
                                   No pseudopotential on this center.
   46          1
                                   No pseudopotential on this center.
   47          1
                                   No pseudopotential on this center.
   48          1
                                   No pseudopotential on this center.
   49          1
                                   No pseudopotential on this center.
   50          1
                                   No pseudopotential on this center.
   51          6
                                   No pseudopotential on this center.
   52          6
                                   No pseudopotential on this center.
   53          6
                                   No pseudopotential on this center.
   54          6
                                   No pseudopotential on this center.
   55          1
                                   No pseudopotential on this center.
   56          6
                                   No pseudopotential on this center.
   57          1
                                   No pseudopotential on this center.
   58          6
                                   No pseudopotential on this center.
   59          1
                                   No pseudopotential on this center.
   60          1
                                   No pseudopotential on this center.
   61          1
                                   No pseudopotential on this center.
 ======================================================================================================
 There are   883 symmetry adapted cartesian basis functions of A   symmetry.
 There are   827 symmetry adapted basis functions of A   symmetry.
   827 basis functions,  1278 primitive gaussians,   883 cartesian basis functions
   102 alpha electrons      102 beta electrons
       nuclear repulsion energy      2879.8845418756 Hartrees.
 NAtoms=   61 NActive=   61 NUniq=   61 SFac= 1.00D+00 NAtFMM=   60 NAOKFM=T Big=T
 Integral buffers will be    131072 words long.
 Raffenetti 2 integral format.
 Two-electron integral symmetry is turned on.
 Nuclear repulsion after empirical dispersion term =     2879.8667757662 Hartrees.
 ------------------------------------------------------------------------------
 Polarizable Continuum Model (PCM)
 =================================
 Model                : PCM.
 Atomic radii         : UFF (Universal Force Field).
 Polarization charges : Total charges.
 Charge compensation  : None.
 Solution method      : On-the-fly selection.
 Cavity type          : Scaled VdW (van der Waals Surface) (Alpha=1.100).
 Cavity algorithm     : GePol (No added spheres)
                        Default sphere list used, NSphG=   61.
                        Lebedev-Laikov grids with approx.  5.0 points / Ang**2.
                        Smoothing algorithm: York/Karplus (Gamma=1.0000).
                        Polarization charges: spherical gaussians, with
                                              point-specific exponents (IZeta= 3).
                        Self-potential: point-specific (ISelfS= 7).
                        Self-field    : sphere-specific E.n sum rule (ISelfD= 2).
 1st derivatives      : Analytical E(r).r(x)/FMM algorithm (CHGder, D1EAlg=3).
                        Cavity 1st derivative terms included.
 Solvent              : TetraHydroFuran, Eps=   7.425700 Eps(inf)=   1.974025
 ------------------------------------------------------------------------------
 One-electron integrals computed using PRISM.
   1 Symmetry operations used in ECPInt.
 ECPInt:  NShTT=   46360 NPrTT=  151530 LenC2=   40129 LenP2D=   86449.
 LDataN:  DoStor=T MaxTD1= 7 Len=  274
 Number of processors reduced to  10 by ecpmxn.
 NBasis=   827 RedAO= T EigKep=  4.18D-05  NBF=   827
 NBsUse=   827 1.00D-06 EigRej= -1.00D+00 NBFU=   827
 Defaulting to unpruned grid for atomic number  78.
 ExpMin= 2.90D-02 ExpMax= 6.29D+03 ExpMxC= 9.49D+02 IAcc=3 IRadAn=         5 AccDes= 0.00D+00
 Harris functional with IExCor= 1009 and IRadAn=       5 diagonalized for initial guess.
 HarFok:  IExCor= 1009 AccDes= 0.00D+00 IRadAn=         5 IDoV= 1 UseB2=F ITyADJ=14
 ICtDFT=  3500011 ScaDFX=  1.000000  1.000000  1.000000  1.000000
 Defaulting to unpruned grid for atomic number  78.
 FoFCou: FMM=F IPFlag=           0 FMFlag=      100000 FMFlg1=        2001
         NFxFlg=           0 DoJE=T BraDBF=F KetDBF=T FulRan=T
         wScrn=  0.000000 ICntrl=       500 IOpCl=  0 I1Cent=   200000004 NGrid=           0
         NMat0=    1 NMatS0=      1 NMatT0=    0 NMatD0=    1 NMtDS0=    0 NMtDT0=    0
 Petite list used in FoFCou.
 Requested convergence on RMS density matrix=1.00D-08 within 128 cycles.
 Requested convergence on MAX density matrix=1.00D-06.
 Requested convergence on             energy=1.00D-06.
 No special actions if energy rises.
 Defaulting to unpruned grid for atomic number  78.
 Defaulting to unpruned grid for atomic number  78.
 Defaulting to unpruned grid for atomic number  78.
 Defaulting to unpruned grid for atomic number  78.
 Defaulting to unpruned grid for atomic number  78.
 Defaulting to unpruned grid for atomic number  78.
 Defaulting to unpruned grid for atomic number  78.
 Defaulting to unpruned grid for atomic number  78.
 Defaulting to unpruned grid for atomic number  78.
 Defaulting to unpruned grid for atomic number  78.
 Defaulting to unpruned grid for atomic number  78.
 Defaulting to unpruned grid for atomic number  78.
 Inv3:  Mode=1 IEnd=    38642763.
 Iteration    1 A*A^-1 deviation from unit magnitude is 3.89D-15 for   3257.
 Iteration    1 A*A^-1 deviation from orthogonality  is 2.44D-15 for   1873   1319.
 Iteration    1 A^-1*A deviation from unit magnitude is 3.89D-15 for   3257.
 Iteration    1 A^-1*A deviation from orthogonality  is 2.66D-15 for   2788    552.
 Error on total polarization charges =  0.02275
 SCF Done:  E(RM06) =  -1125.45478830     A.U. after   16 cycles
            NFock= 16  Conv=0.92D-08     -V/T= 2.0826

 **********************************************************************

            Population analysis using the SCF Density.

 **********************************************************************

 Orbital symmetries:
       Occupied  (A) (A) (A) (A) (A) (A) (A) (A) (A) (A) (A) (A)
                 (A) (A) (A) (A) (A) (A) (A) (A) (A) (A) (A) (A)
                 (A) (A) (A) (A) (A) (A) (A) (A) (A) (A) (A) (A)
                 (A) (A) (A) (A) (A) (A) (A) (A) (A) (A) (A) (A)
                 (A) (A) (A) (A) (A) (A) (A) (A) (A) (A) (A) (A)
                 (A) (A) (A) (A) (A) (A) (A) (A) (A) (A) (A) (A)
                 (A) (A) (A) (A) (A) (A) (A) (A) (A) (A) (A) (A)
                 (A) (A) (A) (A) (A) (A) (A) (A) (A) (A) (A) (A)
                 (A) (A) (A) (A) (A) (A)
       Virtual   (A) (A) (A) (A) (A) (A) (A) (A) (A) (A) (A) (A)
                 (A) (A) (A) (A) (A) (A) (A) (A) (A) (A) (A) (A)
                 (A) (A) (A) (A) (A) (A) (A) (A) (A) (A) (A) (A)
                 (A) (A) (A) (A) (A) (A) (A) (A) (A) (A) (A) (A)
                 (A) (A) (A) (A) (A) (A) (A) (A) (A) (A) (A) (A)
                 (A) (A) (A) (A) (A) (A) (A) (A) (A) (A) (A) (A)
                 (A) (A) (A) (A) (A) (A) (A) (A) (A) (A) (A) (A)
                 (A) (A) (A) (A) (A) (A) (A) (A) (A) (A) (A) (A)
                 (A) (A) (A) (A) (A) (A) (A) (A) (A) (A) (A) (A)
                 (A) (A) (A) (A) (A) (A) (A) (A) (A) (A) (A) (A)
                 (A) (A) (A) (A) (A) (A) (A) (A) (A) (A) (A) (A)
                 (A) (A) (A) (A) (A) (A) (A) (A) (A) (A) (A) (A)
                 (A) (A) (A) (A) (A) (A) (A) (A) (A) (A) (A) (A)
                 (A) (A) (A) (A) (A) (A) (A) (A) (A) (A) (A) (A)
                 (A) (A) (A) (A) (A) (A) (A) (A) (A) (A) (A) (A)
                 (A) (A) (A) (A) (A) (A) (A) (A) (A) (A) (A) (A)
                 (A) (A) (A) (A) (A) (A) (A) (A) (A) (A) (A) (A)
                 (A) (A) (A) (A) (A) (A) (A) (A) (A) (A) (A) (A)
                 (A) (A) (A) (A) (A) (A) (A) (A) (A) (A) (A) (A)
                 (A) (A) (A) (A) (A) (A) (A) (A) (A) (A) (A) (A)
                 (A) (A) (A) (A) (A) (A) (A) (A) (A) (A) (A) (A)
                 (A) (A) (A) (A) (A) (A) (A) (A) (A) (A) (A) (A)
                 (A) (A) (A) (A) (A) (A) (A) (A) (A) (A) (A) (A)
                 (A) (A) (A) (A) (A) (A) (A) (A) (A) (A) (A) (A)
                 (A) (A) (A) (A) (A) (A) (A) (A) (A) (A) (A) (A)
                 (A) (A) (A) (A) (A) (A) (A) (A) (A) (A) (A) (A)
                 (A) (A) (A) (A) (A) (A) (A) (A) (A) (A) (A) (A)
                 (A) (A) (A) (A) (A) (A) (A) (A) (A) (A) (A) (A)
                 (A) (A) (A) (A) (A) (A) (A) (A) (A) (A) (A) (A)
                 (A) (A) (A) (A) (A) (A) (A) (A) (A) (A) (A) (A)
                 (A) (A) (A) (A) (A) (A) (A) (A) (A) (A) (A) (A)
                 (A) (A) (A) (A) (A) (A) (A) (A) (A) (A) (A) (A)
                 (A) (A) (A) (A) (A) (A) (A) (A) (A) (A) (A) (A)
                 (A) (A) (A) (A) (A) (A) (A) (A) (A) (A) (A) (A)
                 (A) (A) (A) (A) (A) (A) (A) (A) (A) (A) (A) (A)
                 (A) (A) (A) (A) (A) (A) (A) (A) (A) (A) (A) (A)
                 (A) (A) (A) (A) (A) (A) (A) (A) (A) (A) (A) (A)
                 (A) (A) (A) (A) (A) (A) (A) (A) (A) (A) (A) (A)
                 (A) (A) (A) (A) (A) (A) (A) (A) (A) (A) (A) (A)
                 (A) (A) (A) (A) (A) (A) (A) (A) (A) (A) (A) (A)
                 (A) (A) (A) (A) (A) (A) (A) (A) (A) (A) (A) (A)
                 (A) (A) (A) (A) (A) (A) (A) (A) (A) (A) (A) (A)
                 (A) (A) (A) (A) (A) (A) (A) (A) (A) (A) (A) (A)
                 (A) (A) (A) (A) (A) (A) (A) (A) (A) (A) (A) (A)
                 (A) (A) (A) (A) (A) (A) (A) (A) (A) (A) (A) (A)
                 (A) (A) (A) (A) (A) (A) (A) (A) (A) (A) (A) (A)
                 (A) (A) (A) (A) (A) (A) (A) (A) (A) (A) (A) (A)
                 (A) (A) (A) (A) (A) (A) (A) (A) (A) (A) (A) (A)
                 (A) (A) (A) (A) (A) (A) (A) (A) (A) (A) (A) (A)
                 (A) (A) (A) (A) (A) (A) (A) (A) (A) (A) (A) (A)
                 (A) (A) (A) (A) (A) (A) (A) (A) (A) (A) (A) (A)
                 (A) (A) (A) (A) (A) (A) (A) (A) (A) (A) (A) (A)
                 (A) (A) (A) (A) (A) (A) (A) (A) (A) (A) (A) (A)
                 (A) (A) (A) (A) (A) (A) (A) (A) (A) (A) (A) (A)
                 (A) (A) (A) (A) (A) (A) (A) (A) (A) (A) (A) (A)
                 (A) (A) (A) (A) (A) (A) (A) (A) (A) (A) (A) (A)
                 (A) (A) (A) (A) (A) (A) (A) (A) (A) (A) (A) (A)
                 (A) (A) (A) (A) (A) (A) (A) (A) (A) (A) (A) (A)
                 (A) (A) (A) (A) (A) (A) (A) (A) (A) (A) (A) (A)
                 (A) (A) (A) (A) (A) (A) (A) (A) (A) (A) (A) (A)
                 (A) (A) (A) (A) (A)
 The electronic state is 1-A.
 Alpha  occ. eigenvalues --  -14.49801 -14.49677 -10.31013 -10.30611 -10.30576
 Alpha  occ. eigenvalues --  -10.30566 -10.30500 -10.29915 -10.29911 -10.26843
 Alpha  occ. eigenvalues --  -10.26800 -10.26299 -10.26163 -10.26118 -10.26094
 Alpha  occ. eigenvalues --  -10.25948 -10.25942 -10.25728 -10.25666 -10.25459
 Alpha  occ. eigenvalues --  -10.25365 -10.24996 -10.24854 -10.24523 -10.20909
 Alpha  occ. eigenvalues --   -3.98928  -2.21832  -2.21825  -2.20747  -0.99636
 Alpha  occ. eigenvalues --   -0.99161  -0.89629  -0.89327  -0.82651  -0.81210
 Alpha  occ. eigenvalues --   -0.81053  -0.80486  -0.78399  -0.78292  -0.77466
 Alpha  occ. eigenvalues --   -0.77049  -0.73197  -0.72569  -0.68719  -0.68016
 Alpha  occ. eigenvalues --   -0.67806  -0.64512  -0.64033  -0.63917  -0.63431
 Alpha  occ. eigenvalues --   -0.61234  -0.61008  -0.56080  -0.55337  -0.55235
 Alpha  occ. eigenvalues --   -0.54300  -0.53481  -0.53339  -0.51289  -0.50668
 Alpha  occ. eigenvalues --   -0.49733  -0.49257  -0.48921  -0.47824  -0.46610
 Alpha  occ. eigenvalues --   -0.46397  -0.46223  -0.46132  -0.46025  -0.45188
 Alpha  occ. eigenvalues --   -0.44643  -0.44498  -0.44249  -0.44129  -0.43656
 Alpha  occ. eigenvalues --   -0.43517  -0.43126  -0.42771  -0.41694  -0.41174
 Alpha  occ. eigenvalues --   -0.41102  -0.40720  -0.40045  -0.39987  -0.39485
 Alpha  occ. eigenvalues --   -0.39126  -0.38796  -0.38471  -0.38365  -0.38314
 Alpha  occ. eigenvalues --   -0.37953  -0.37447  -0.36041  -0.35532  -0.34768
 Alpha  occ. eigenvalues --   -0.34164  -0.30732  -0.29047  -0.28183  -0.27832
 Alpha  occ. eigenvalues --   -0.26786  -0.25328
 Alpha virt. eigenvalues --   -0.11717  -0.06454  -0.03476  -0.03244  -0.03149
 Alpha virt. eigenvalues --   -0.02102  -0.01952  -0.00969  -0.00749   0.01566
 Alpha virt. eigenvalues --    0.04078   0.04570   0.04789   0.04991   0.05457
 Alpha virt. eigenvalues --    0.05599   0.06375   0.06557   0.06892   0.07206
 Alpha virt. eigenvalues --    0.07564   0.07713   0.08025   0.08158   0.08393
 Alpha virt. eigenvalues --    0.08973   0.09365   0.09586   0.10045   0.10347
 Alpha virt. eigenvalues --    0.10930   0.11091   0.11224   0.11662   0.11908
 Alpha virt. eigenvalues --    0.12102   0.12837   0.12942   0.13022   0.13413
 Alpha virt. eigenvalues --    0.13852   0.14257   0.14425   0.14676   0.14986
 Alpha virt. eigenvalues --    0.15090   0.15260   0.16196   0.16821   0.17636
 Alpha virt. eigenvalues --    0.18224   0.18921   0.19195   0.19677   0.19961
 Alpha virt. eigenvalues --    0.20746   0.21225   0.21705   0.22359   0.23228
 Alpha virt. eigenvalues --    0.23788   0.24408   0.24746   0.24923   0.25771
 Alpha virt. eigenvalues --    0.26073   0.26443   0.26787   0.27229   0.27328
 Alpha virt. eigenvalues --    0.27884   0.28098   0.29031   0.29453   0.29529
 Alpha virt. eigenvalues --    0.29966   0.30539   0.31007   0.31643   0.31748
 Alpha virt. eigenvalues --    0.32418   0.33045   0.33616   0.34574   0.35109
 Alpha virt. eigenvalues --    0.35362   0.36098   0.36602   0.37039   0.37101
 Alpha virt. eigenvalues --    0.37477   0.37678   0.37983   0.38103   0.38513
 Alpha virt. eigenvalues --    0.38680   0.39809   0.40137   0.40556   0.40837
 Alpha virt. eigenvalues --    0.41241   0.41830   0.42123   0.42461   0.43090
 Alpha virt. eigenvalues --    0.43518   0.43707   0.44078   0.44453   0.44867
 Alpha virt. eigenvalues --    0.45694   0.45936   0.46578   0.46969   0.47228
 Alpha virt. eigenvalues --    0.47294   0.47780   0.47993   0.48550   0.48729
 Alpha virt. eigenvalues --    0.49251   0.50242   0.50561   0.50760   0.50999
 Alpha virt. eigenvalues --    0.51291   0.51668   0.52055   0.52178   0.52350
 Alpha virt. eigenvalues --    0.52529   0.52719   0.53389   0.53552   0.53674
 Alpha virt. eigenvalues --    0.53931   0.54149   0.54350   0.54499   0.54703
 Alpha virt. eigenvalues --    0.55183   0.55374   0.55926   0.56327   0.56573
 Alpha virt. eigenvalues --    0.56704   0.57008   0.57404   0.57502   0.57840
 Alpha virt. eigenvalues --    0.58379   0.58596   0.59150   0.59820   0.60013
 Alpha virt. eigenvalues --    0.60149   0.60540   0.60892   0.61411   0.61773
 Alpha virt. eigenvalues --    0.62073   0.62782   0.62928   0.63220   0.63687
 Alpha virt. eigenvalues --    0.64361   0.64544   0.65051   0.65570   0.65788
 Alpha virt. eigenvalues --    0.66557   0.66967   0.67491   0.67832   0.68009
 Alpha virt. eigenvalues --    0.68363   0.68796   0.68941   0.69343   0.69818
 Alpha virt. eigenvalues --    0.70818   0.71315   0.71975   0.72183   0.72241
 Alpha virt. eigenvalues --    0.73132   0.73223   0.74000   0.74391   0.75151
 Alpha virt. eigenvalues --    0.75519   0.75632   0.76949   0.77244   0.77616
 Alpha virt. eigenvalues --    0.78283   0.78628   0.79510   0.79911   0.80447
 Alpha virt. eigenvalues --    0.80947   0.81007   0.81700   0.82378   0.82964
 Alpha virt. eigenvalues --    0.83262   0.84100   0.85139   0.85628   0.86222
 Alpha virt. eigenvalues --    0.87171   0.87762   0.88510   0.89135   0.89490
 Alpha virt. eigenvalues --    0.89606   0.90992   0.91325   0.91537   0.91846
 Alpha virt. eigenvalues --    0.92551   0.93176   0.94070   0.94612   0.95620
 Alpha virt. eigenvalues --    0.96277   0.96653   0.97101   0.98138   0.98537
 Alpha virt. eigenvalues --    0.99034   0.99990   1.00534   1.01839   1.02098
 Alpha virt. eigenvalues --    1.03048   1.03374   1.03804   1.04516   1.04851
 Alpha virt. eigenvalues --    1.05309   1.05886   1.06172   1.06812   1.07581
 Alpha virt. eigenvalues --    1.08355   1.08504   1.08828   1.09476   1.10001
 Alpha virt. eigenvalues --    1.10595   1.10925   1.11656   1.12241   1.12989
 Alpha virt. eigenvalues --    1.13188   1.13907   1.14314   1.15057   1.15302
 Alpha virt. eigenvalues --    1.16019   1.16532   1.17345   1.17944   1.18406
 Alpha virt. eigenvalues --    1.19055   1.19363   1.19999   1.20962   1.21271
 Alpha virt. eigenvalues --    1.21455   1.21954   1.22032   1.23129   1.23389
 Alpha virt. eigenvalues --    1.24337   1.25005   1.25423   1.25441   1.26388
 Alpha virt. eigenvalues --    1.26752   1.26971   1.27513   1.27912   1.28206
 Alpha virt. eigenvalues --    1.28629   1.29897   1.30666   1.31329   1.31651
 Alpha virt. eigenvalues --    1.31936   1.32618   1.33477   1.34166   1.34755
 Alpha virt. eigenvalues --    1.35843   1.36690   1.37153   1.38284   1.39294
 Alpha virt. eigenvalues --    1.39593   1.40073   1.41203   1.41633   1.42166
 Alpha virt. eigenvalues --    1.42629   1.43916   1.45260   1.45765   1.46299
 Alpha virt. eigenvalues --    1.46603   1.47500   1.47915   1.48529   1.49555
 Alpha virt. eigenvalues --    1.50142   1.50646   1.51028   1.51887   1.52584
 Alpha virt. eigenvalues --    1.52955   1.53366   1.55133   1.55631   1.55972
 Alpha virt. eigenvalues --    1.57067   1.58219   1.59325   1.59808   1.61278
 Alpha virt. eigenvalues --    1.61367   1.63062   1.63349   1.64545   1.65122
 Alpha virt. eigenvalues --    1.65405   1.66777   1.66918   1.68205   1.68879
 Alpha virt. eigenvalues --    1.69579   1.69741   1.70406   1.71169   1.71426
 Alpha virt. eigenvalues --    1.71614   1.71802   1.72753   1.73790   1.73880
 Alpha virt. eigenvalues --    1.75620   1.75958   1.76782   1.77032   1.78022
 Alpha virt. eigenvalues --    1.78595   1.80366   1.81802   1.82772   1.83561
 Alpha virt. eigenvalues --    1.84211   1.85069   1.85442   1.86368   1.87166
 Alpha virt. eigenvalues --    1.87907   1.88538   1.89606   1.91304   1.93045
 Alpha virt. eigenvalues --    1.94113   1.94570   1.95737   1.96944   1.97867
 Alpha virt. eigenvalues --    1.98847   1.99452   1.99921   2.00326   2.02729
 Alpha virt. eigenvalues --    2.04263   2.04843   2.05300   2.06096   2.06655
 Alpha virt. eigenvalues --    2.07116   2.08190   2.08666   2.09895   2.10868
 Alpha virt. eigenvalues --    2.11197   2.11702   2.12123   2.12292   2.12870
 Alpha virt. eigenvalues --    2.13641   2.14275   2.14714   2.15666   2.15752
 Alpha virt. eigenvalues --    2.16105   2.16507   2.17229   2.17624   2.18304
 Alpha virt. eigenvalues --    2.18625   2.18915   2.19381   2.20308   2.21264
 Alpha virt. eigenvalues --    2.22307   2.22774   2.23729   2.24942   2.25469
 Alpha virt. eigenvalues --    2.25909   2.26149   2.26212   2.26494   2.28508
 Alpha virt. eigenvalues --    2.29273   2.30001   2.30569   2.31144   2.31842
 Alpha virt. eigenvalues --    2.33862   2.35087   2.36278   2.36638   2.37609
 Alpha virt. eigenvalues --    2.37729   2.38965   2.39776   2.39977   2.41266
 Alpha virt. eigenvalues --    2.41740   2.42741   2.43063   2.43124   2.44114
 Alpha virt. eigenvalues --    2.44686   2.44989   2.45924   2.47508   2.48079
 Alpha virt. eigenvalues --    2.48683   2.50227   2.50413   2.51543   2.52748
 Alpha virt. eigenvalues --    2.53172   2.53318   2.53930   2.55044   2.56097
 Alpha virt. eigenvalues --    2.56586   2.57253   2.57834   2.58494   2.58819
 Alpha virt. eigenvalues --    2.59744   2.60056   2.61117   2.61279   2.62075
 Alpha virt. eigenvalues --    2.62670   2.63040   2.63786   2.64149   2.64496
 Alpha virt. eigenvalues --    2.65569   2.67069   2.68048   2.68366   2.69194
 Alpha virt. eigenvalues --    2.69817   2.70833   2.71908   2.72371   2.73283
 Alpha virt. eigenvalues --    2.74553   2.74700   2.75972   2.76699   2.77334
 Alpha virt. eigenvalues --    2.77987   2.78299   2.80151   2.81067   2.81542
 Alpha virt. eigenvalues --    2.82115   2.83063   2.83811   2.83903   2.85448
 Alpha virt. eigenvalues --    2.86291   2.86551   2.89001   2.89945   2.91253
 Alpha virt. eigenvalues --    2.91895   2.95492   2.97292   2.98384   3.00918
 Alpha virt. eigenvalues --    3.02108   3.02474   3.06065   3.06706   3.07527
 Alpha virt. eigenvalues --    3.07835   3.07945   3.08376   3.09583   3.10807
 Alpha virt. eigenvalues --    3.11857   3.12969   3.14035   3.14646   3.15217
 Alpha virt. eigenvalues --    3.15570   3.16431   3.17236   3.18079   3.18528
 Alpha virt. eigenvalues --    3.18713   3.19477   3.20110   3.20185   3.20918
 Alpha virt. eigenvalues --    3.21396   3.22196   3.22630   3.23335   3.23848
 Alpha virt. eigenvalues --    3.24580   3.24876   3.26145   3.26429   3.27214
 Alpha virt. eigenvalues --    3.27480   3.28307   3.28789   3.29558   3.30518
 Alpha virt. eigenvalues --    3.31282   3.31678   3.32079   3.32397   3.33532
 Alpha virt. eigenvalues --    3.34937   3.35155   3.35578   3.36207   3.36780
 Alpha virt. eigenvalues --    3.37659   3.38088   3.39250   3.39439   3.40229
 Alpha virt. eigenvalues --    3.40477   3.41623   3.42123   3.42464   3.42844
 Alpha virt. eigenvalues --    3.43314   3.43487   3.44523   3.45157   3.45680
 Alpha virt. eigenvalues --    3.46587   3.47029   3.47063   3.47416   3.48161
 Alpha virt. eigenvalues --    3.48772   3.49435   3.49800   3.50131   3.50660
 Alpha virt. eigenvalues --    3.51270   3.51780   3.52398   3.52696   3.53416
 Alpha virt. eigenvalues --    3.54364   3.54681   3.55033   3.55743   3.56020
 Alpha virt. eigenvalues --    3.56949   3.58171   3.58528   3.59125   3.59700
 Alpha virt. eigenvalues --    3.60220   3.60743   3.61464   3.61878   3.62968
 Alpha virt. eigenvalues --    3.64163   3.64997   3.65072   3.66010   3.66602
 Alpha virt. eigenvalues --    3.67292   3.67751   3.68377   3.68868   3.69778
 Alpha virt. eigenvalues --    3.70687   3.71340   3.71745   3.72393   3.72847
 Alpha virt. eigenvalues --    3.74717   3.75390   3.76203   3.76745   3.77998
 Alpha virt. eigenvalues --    3.79248   3.80435   3.81229   3.82154   3.82414
 Alpha virt. eigenvalues --    3.83316   3.84318   3.85227   3.86058   3.86540
 Alpha virt. eigenvalues --    3.87066   3.88322   3.89222   3.90101   3.90515
 Alpha virt. eigenvalues --    3.91664   3.92607   3.93964   3.94892   3.98311
 Alpha virt. eigenvalues --    4.01603   4.03309   4.05363   4.07368   4.11482
 Alpha virt. eigenvalues --    4.12388   4.12422   4.12841   4.13127   4.13740
 Alpha virt. eigenvalues --    4.14702   4.15256   4.16100   4.16598   4.17017
 Alpha virt. eigenvalues --    4.17920   4.18611   4.18883   4.19903   4.20430
 Alpha virt. eigenvalues --    4.21855   4.22985   4.25703   4.29743   4.35987
 Alpha virt. eigenvalues --    4.36585   4.37385   4.38415   4.44748   4.46786
 Alpha virt. eigenvalues --    4.47686   4.48866   4.53136   4.53339   4.60719
 Alpha virt. eigenvalues --    4.66924   4.73694   4.74797   4.75941   4.76262
 Alpha virt. eigenvalues --    4.77723   4.79194   4.84339   4.90365   5.24037
 Alpha virt. eigenvalues --    5.25802   5.26883   5.29142   5.30185   5.31577
 Alpha virt. eigenvalues --    5.37596   5.41102   5.47192   5.47462   5.53889
 Alpha virt. eigenvalues --    5.56095  13.55836  13.58072  13.63551  23.59550
 Alpha virt. eigenvalues --   23.64347  23.82116  23.82987  23.89743  23.91265
 Alpha virt. eigenvalues --   23.92769  23.94134  23.94423  23.96047  23.97814
 Alpha virt. eigenvalues --   23.98105  23.99053  23.99615  24.00579  24.01456
 Alpha virt. eigenvalues --   24.03266  24.04583  24.06512  24.07504  24.11193
 Alpha virt. eigenvalues --   24.14905  24.27059  35.46150  35.51982  39.03467
          Condensed to atoms (all electrons):
 Mulliken charges:
               1
     1  Pt   1.096919
     2  C   -0.399314
     3  C    0.091095
     4  C    0.084298
     5  C   -0.165198
     6  C   -0.164200
     7  C   -0.058282
     8  H    0.084457
     9  H    0.085964
    10  H    0.083110
    11  N   -0.652416
    12  N   -0.644002
    13  C   -0.652213
    14  H    0.117313
    15  H    0.091815
    16  H    0.100544
    17  C   -0.051692
    18  H    0.163203
    19  H    0.151551
    20  C   -0.043891
    21  H    0.165944
    22  H    0.154142
    23  C   -0.085660
    24  C   -0.278486
    25  H    0.150645
    26  H    0.158032
    27  H    0.137086
    28  H    0.119614
    29  H    0.120421
    30  C   -0.043479
    31  C   -0.302286
    32  H    0.167382
    33  H    0.164983
    34  H    0.140413
    35  H    0.126827
    36  H    0.121649
    37  C   -0.086161
    38  C   -0.288073
    39  H    0.171973
    40  H    0.173030
    41  H    0.141006
    42  H    0.125679
    43  H    0.122063
    44  C   -0.071267
    45  C   -0.282917
    46  H    0.161010
    47  H    0.152392
    48  H    0.135026
    49  H    0.118902
    50  H    0.114374
    51  C    0.050361
    52  C   -0.157401
    53  C   -0.166270
    54  C   -0.084351
    55  H    0.111336
    56  C   -0.089120
    57  H    0.105934
    58  C   -0.058398
    59  H    0.089512
    60  H    0.089101
    61  H    0.085969
 Sum of Mulliken charges =   1.00000
 Mulliken charges with hydrogens summed into heavy atoms:
               1
     1  Pt   1.096919
     2  C   -0.399314
     3  C    0.091095
     4  C    0.084298
     5  C   -0.080741
     6  C   -0.078236
     7  C    0.024828
    11  N   -0.652416
    12  N   -0.644002
    13  C   -0.342540
    17  C    0.263061
    20  C    0.276196
    23  C    0.223017
    24  C    0.098635
    30  C    0.288886
    31  C    0.086604
    37  C    0.258842
    38  C    0.100675
    44  C    0.242135
    45  C    0.085384
    51  C    0.050361
    52  C   -0.046065
    53  C   -0.060336
    54  C    0.005161
    56  C   -0.000019
    58  C    0.027571
 Electronic spatial extent (au):  <R**2>=           8848.0036
 Charge=              1.0000 electrons
 Dipole moment (field-independent basis, Debye):
    X=             -0.3200    Y=             -2.2204    Z=             -0.8090  Tot=              2.3848
 Quadrupole moment (field-independent basis, Debye-Ang):
   XX=           -126.5234   YY=           -151.2960   ZZ=           -161.1374
   XY=             -1.1401   XZ=              0.5711   YZ=              5.2768
 Traceless Quadrupole moment (field-independent basis, Debye-Ang):
   XX=             19.7955   YY=             -4.9771   ZZ=            -14.8184
   XY=             -1.1401   XZ=              0.5711   YZ=              5.2768
 Octapole moment (field-independent basis, Debye-Ang**2):
  XXX=             -9.7797  YYY=             43.8637  ZZZ=            -49.0314  XYY=              1.3468
  XXY=            -31.6697  XXZ=            -54.6752  XZZ=              0.2598  YZZ=            -22.1729
  YYZ=             -5.0299  XYZ=              2.6715
 Hexadecapole moment (field-independent basis, Debye-Ang**3):
 XXXX=          -4566.0766 YYYY=          -3820.6025 ZZZZ=          -2648.4597 XXXY=            -16.4491
 XXXZ=             -6.7427 YYYX=             -6.1837 YYYZ=             44.1082 ZZZX=             12.3668
 ZZZY=             60.4278 XXYY=          -1463.8326 XXZZ=          -1212.5119 YYZZ=           -973.7741
[...]
 0.00000776,0.00000072,0.00000173,0.00000039,0.00000136,-0.00000078,-0.
 00000211,-0.00000204,-0.00000102,0.00675416,-0.00015752,-0.00071624,0.
 00418129,-0.00128966,0.00042730,-0.00094647,-0.00011178,0.00005806,-0.
 03832299,0.01862199,-0.01238883,-0.00432516,-0.00005659,0.00057451,0.0
 0630555,-0.00005493,-0.00142172,-0.00077153,0.00000865,0.00009486,0.00
 350700,0.00338683,-0.00160305,0.02713927,0.00008000,-0.00062076,0.0000
 3043,-0.00000212,0.00018698,-0.00015851,-0.00005015,-0.00001950,0.0000
 1349,0.00004665,-0.00002186,0.00001019,-0.00001500,0.00000547,0.000005
 30,0.00001780,0.00000222,0.00000560,-0.00000214,-0.00003333,0.00003167
 ,0.00001054,-0.00001017,0.00000986,-0.00000978,-0.00000776,0.00000969,
 -0.00000029,-0.00001030,0.00000296,0.00006019,0.00004359,-0.00005643,-
 0.00006135,0.00001981,-0.00006134,-0.00003895,-0.00013305,-0.00005701,
 0.00000779,0.00004089,-0.00007532,-0.00001201,0.00000248,-0.00004824,0
 .00002569,0.00000537,-0.00003305,0.00000546,0.00001046,-0.00004716,-0.
 00000537,0.00001070,-0.00000578,0.00000995,-0.00001395,0.00001503,-0.0
 0000891,0.00000556,-0.00005599,0.00000969,0.00001550,-0.00000530,-0.00
 001118,-0.00001576,0.00001770,-0.00000415,-0.00011370,0.00002401,-0.00
 000078,0.00003187,-0.00000749,0.00001074,-0.00000165,-0.00000622,0.000
 03976,0.00000181,0.00000209,-0.00002529,0.00000408,-0.00000161,-0.0000
 0555,-0.00000567,0.00000047,-0.00000056,-0.00000508,0.00000022,-0.0000
 1176,-0.00010047,0.00003827,-0.00002586,0.00004320,-0.00003443,0.00000
 089,0.00003507,0.00001577,-0.00000924,0.00000012,-0.00000780,-0.000009
 97,-0.00001165,-0.00000334,0.00000127,0.00000316,0.00000659,-0.0000191
 1,-0.00001768,0.00000445,0.00007853,-0.00000002,0.00005026,-0.00002850
 ,-0.00000227,-0.00000313,-0.00001121,-0.00000551,0.00001320,-0.0000112
 7,0.00002815,-0.00000050,0.00001160,-0.00000894,-0.00000599,0.00001404
 ,0.00000093,-0.00000102,0.00001114,-0.00000044,0.00000222,-0.00001844,
 -0.00008793,0.00002739,0.00000455,0.00002015,-0.00001968,-0.00004650,0
 .00000648,0.00001134,0.00000072,-0.00000433,-0.00001067,0.00001924,0.0
 0000416,0.00000161,-0.00000238,-0.00000418,0.00000335,0.00000646,-0.00
 000584,0.00000202,-0.00008715,-0.00150140,-0.00205359,0.00206879,-0.01
 959690,0.01350750,-0.00013849,-0.00004767,-0.00095418,0.01873262,-0.26
 593534,0.11672170,-0.00009156,0.00119785,0.00026992,0.00005985,0.00182
 069,-0.00021408,-0.00000462,-0.00004097,0.00007984,-0.00022514,0.00317
 394,-0.00186859,-0.02027848,0.28123446,0.00004618,-0.00042017,0.000010
 47,-0.00000655,0.00009416,-0.00010613,-0.00001830,-0.00000742,0.000019
 22,0.00002172,-0.00000468,0.00002125,-0.00000607,-0.00000139,0.0000062
 0,0.00000634,0.00000053,0.00000255,0.00000062,-0.00001694,0.00001170,0
 .00000308,-0.00000373,0.00000244,-0.00000284,-0.00000276,0.00000252,0.
 ,-0.00000349,0.00000002,0.00002809,-0.00001107,-0.00004106,-0.00003313
 ,-0.00003087,-0.00003926,-0.00000860,-0.00004159,-0.00000194,-0.000004
 30,0.00004800,-0.00002312,-0.00003149,0.00001182,-0.00003622,0.0000281
 4,0.00000408,-0.00002280,-0.00000301,-0.00000596,-0.00003921,0.0000133
 1,0.00000983,0.00000189,0.00000456,0.00000039,0.00001397,-0.00001233,-
 0.00000149,-0.00003557,-0.00001489,-0.00000032,-0.00000245,-0.00000286
 ,-0.00000521,0.00001149,0.00001260,-0.00006503,0.00001033,-0.00000307,
 0.00002959,-0.00000069,0.00000038,-0.00000147,-0.00000932,-0.00001367,
 0.00000795,0.00000816,-0.00000796,0.00000189,0.00000185,0.00000547,-0.
 00000211,0.00000091,0.00000234,-0.00000088,-0.00000102,-0.00000947,-0.
 00009550,-0.00000672,-0.00002179,0.00003149,-0.00001463,-0.00000517,0.
 00002636,0.00001042,-0.00000727,0.00000127,-0.00000316,-0.00000341,-0.
 00000437,-0.00000067,0.00000139,0.00000009,0.00000287,-0.00001149,-0.0
 0001161,0.00000189,0.00004941,-0.00003111,0.00001417,-0.00001219,0.000
 00558,-0.00000105,-0.00000400,-0.00000552,0.00000989,-0.00000432,0.000
 01994,-0.00000098,0.00000507,-0.00000332,-0.00000174,0.00000863,-0.000
 00116,-0.00000177,0.00000620,-0.00000211,0.00000057,-0.00001196,-0.000
 05932,0.00000487,0.00000213,0.00002186,-0.00000584,0.00000920,0.000009
 19,0.00000372,0.00000039,0.00000152,-0.00000227,0.00000774,0.00000084,
 0.00000207,0.00000024,-0.00000273,0.00000032,-0.00000432,-0.00000098,0
 .00000005,-0.00071244,-0.00261633,0.00044361,0.00094479,-0.01614085,0.
 00927252,0.00002498,-0.00074819,-0.00088842,-0.01239659,0.11645432,-0.
 12069456,0.00056102,0.00059800,0.00069430,-0.00136034,-0.00069180,-0.0
 0526027,0.00009391,0.00008022,0.00004307,-0.00213444,0.02781712,-0.009
 02723,0.01447780,-0.12525522,0.12487235,0.00015679,-0.00001021,-0.0000
 3042,-0.00000612,-0.00000028,-0.00002375,-0.00001660,-0.00002917,-0.00
 000226,-0.00001172,-0.00000695,0.00000249,0.00000266,-0.00000397,0.000
 00102,-0.00000565,0.00001228,-0.00000595,0.00000418,-0.00000249,0.0000
 0832,-0.00000070,0.00000176,0.00000117,-0.00000298,-0.00000594,0.00000
 028,0.00000121,-0.00000157,-0.00000010,-0.00011994,0.00006891,-0.00000
 958,-0.00011255,-0.00006646,0.00000271,-0.00001416,0.00000780,0.000042
 97,0.00002846,-0.00000489,0.00000396,0.00000151,-0.00000416,0.00000163
 ,0.00001033,0.00001363,-0.00000128,-0.00002147,0.00002903,-0.00002236,
 0.00004595,0.00000115,0.00000849,0.00000170,0.00001692,0.00001321,0.00
 000072,-0.00003194,-0.00000745,0.00001998,0.00000785,-0.00000366,-0.00
 000407,-0.00001183,-0.00000163,0.00002350,-0.00005902,0.00002337,-0.00
 000002,0.00000792,-0.00000432,0.00000589,0.00000830,-0.00000231,0.0000
 2435,0.00000864,-0.00000910,-0.00000387,0.00000120,-0.00000264,-0.0000
 0184,-0.00000002,0.00000224,-0.00000198,-0.00000537,0.00000142,0.00002
 163,-0.00000759,0.00000280,0.00000174,0.00000128,-0.00000016,-0.000007
 28,-0.00000522,-0.00000460,-0.00000073,-0.00000041,-0.00000080,-0.0000
 0008,-0.00000017,0.00000044,-0.00000065,-0.00000094,0.00000112,0.00000
 091,-0.00000235,0.00000037,0.00001605,-0.00000237,0.00000522,0.,0.0000
 0516,-0.00000451,0.00000030,0.00000115,0.00000242,-0.00000066,0.000006
 05,0.00000330,0.00000049,-0.00000125,-0.00000106,0.00000249,-0.0000009
 4,0.00000067,0.00000092,0.00000105,0.00000204,0.00001526,0.00004262,0.
 00000148,-0.00000115,-0.00000392,0.00000450,0.00002829,-0.00001478,0.0
 0000589,-0.00000430,-0.00000240,-0.00000101,-0.00000261,-0.00000058,0.
 00000293,-0.00000267,0.00000906,-0.00000250,-0.00000103,-0.00000246,-0
 .00000576,0.00666954,0.00001647,-0.00072394,-0.00086368,-0.00006752,0.
 00016745,0.00383981,0.00019933,-0.00120143,0.00636867,0.00064703,-0.00
 066792,-0.00069752,-0.00002925,0.00007232,-0.04027103,0.00161727,-0.03
 364610,-0.00429023,0.00000569,0.00050019,0.00355503,-0.00019102,-0.002
 30475,0.00010213,-0.00001712,-0.00010845,0.02934996,-0.00010987,-0.000
 49057,-0.00077722,-0.00000261,0.00010781,-0.00018985,-0.00002431,-0.00
 006894,0.00007826,0.00000775,-0.00007371,0.00008276,0.00003584,0.00000
 520,0.00002422,-0.00003556,0.00001682,0.00001858,0.00000267,-0.0000230
 5,0.00002223,0.00000617,-0.00001699,0.00001174,-0.00000575,-0.00001567
 ,0.00001056,-0.00000043,-0.00001102,-0.00000004,0.00006188,-0.00000703
 ,0.00000099,-0.00003808,-0.00001180,-0.00000031,0.00000389,0.00003453,
 0.00010521,0.00000229,0.00001499,0.00001141,-0.00001667,0.00003492,-0.
 00002331,0.00001513,0.00003537,-0.00002720,0.00000611,-0.00002545,-0.0
 0007450,-0.00000075,0.00002034,-0.00000283,0.00001590,-0.00000737,0.00
 002408,-0.00001032,-0.00002115,-0.00007215,0.00000168,0.00001299,0.000
 00100,-0.00001398,-0.00000737,0.00002241,0.00000262,-0.00010027,0.0000
 1683,-0.00000142,0.00003425,-0.00000513,0.00000475,0.00000148,-0.00000
 408,-0.00000396,-0.00000080,0.00000312,-0.00001545,0.00000262,-0.00000
 070,0.00000037,-0.00000361,0.00000104,-0.00000018,-0.00000529,0.000001
 20,-0.00000337,-0.00011784,0.00001806,-0.00002665,0.00004737,-0.000026
 86,-0.00000347,0.00003454,0.00000944,-0.00000468,-0.00000063,-0.000003
 22,-0.00000737,-0.00000882,-0.00000171,0.00000121,-0.00000080,0.000006
 25,-0.00001780,-0.00001688,0.00000384,0.00007556,-0.00001196,0.0000346
 1,-0.00002356,0.00000285,-0.00000215,-0.00001165,-0.00000738,0.0000124
 5,-0.00000551,0.00002313,-0.00000872,0.00000960,-0.00000640,-0.0000044
 5,0.00001160,-0.00000065,-0.00000124,0.00001110,-0.00000208,0.00000192
 ,-0.00001546,-0.00008921,0.00002418,0.00000331,0.00002560,-0.00001736,
 -0.00000208,-0.00000095,0.00000209,-0.00000073,0.00000368,-0.00000179,
 0.00001350,0.00000205,0.00000352,0.00000151,-0.00000396,0.00000402,0.0
 0000083,-0.00000406,0.00000127,-0.00004330,-0.00202296,-0.00221218,0.0
 0000014,-0.00138391,-0.00005863,-0.00308689,0.00246812,-0.02727829,0.0
 0053253,-0.00428102,0.00236399,-0.00001865,0.00009990,0.00000558,0.001
 64257,-0.05671124,0.01024563,-0.00004581,0.00120304,0.00054300,0.00317
 406,0.00388557,0.02746657,0.00016048,0.00001136,0.00133096,-0.00201376
 ,0.05624403,-0.00007414,-0.00019036,-0.00043181,-0.00000525,0.00008822
 ,-0.00015978,-0.00002517,-0.00005363,0.00002698,0.00002198,-0.00005215
 ,0.00002872,0.00002051,0.00001732,0.00000366,-0.00001459,0.00001568,0.
 00001205,-0.00000333,-0.00002484,0.00003376,0.00000760,-0.00001562,0.0
 0001019,-0.00000732,-0.00001344,0.00000969,-0.00000075,-0.00001165,0.0
 0000071,0.00006709,0.00001858,0.00001295,-0.00001836,0.00003489,0.0000
 1171,-0.00000302,-0.00000158,0.00003401,0.00000150,-0.00000721,-0.0000
 1782,-0.00000316,0.00001930,-0.00000473,0.00000412,0.00001739,-0.00000
 893,0.00000072,-0.00002371,-0.00003906,-0.00003249,0.00002304,-0.00000
 756,0.00001306,-0.00001466,0.00000946,-0.00000253,-0.00001667,-0.00004
 729,0.00001564,0.00001989,-0.00000550,-0.00001341,-0.00000964,0.000012
 46,-0.00000408,-0.00004661,0.00001827,0.00000096,0.00001554,-0.0000099
 1,0.00000610,0.00000388,0.00000570,0.00003013,-0.00000014,-0.00001114,
 -0.00001021,0.00000379,-0.00000218,-0.00000804,-0.00000460,0.00000018,
 -0.00000334,-0.00000762,0.00000311,-0.00000007,-0.00004340,0.00003772,
 -0.00001238,0.00002427,-0.00002259,0.00000267,0.00001739,0.00000972,-0
 .00000473,-0.00000003,-0.00000191,-0.00000714,-0.00000777,-0.00000246,
 0.00000094,0.00000070,0.00000534,-0.00001106,-0.00000920,0.00000246,0.
 00004381,0.00001629,0.00004309,-0.00002060,-0.00000417,-0.00000457,-0.
 00000833,-0.00000041,0.00000642,-0.00000663,0.00001155,-0.00000239,0.0
 0000860,-0.00000576,-0.00000453,0.00000701,0.00000112,-0.00000036,0.00
 000707,-0.00000037,0.00000237,-0.00002049,-0.00004897,0.00002283,0.000
 00275,0.00001298,-0.00002352,-0.00004232,-0.00000017,-0.00000038,0.000
 00269,0.00000048,-0.00000198,0.00001146,0.00000368,-0.00000070,0.00000
 162,-0.00001001,0.00000723,0.00000954,-0.00000503,0.00000606,-0.000629
 37,-0.00197873,0.00100704,0.00015695,-0.00024802,0.00040832,-0.0019381
 1,0.00250266,-0.01228075,-0.00072635,0.00286445,0.00074625,0.00007067,
 0.00001213,-0.00008138,-0.03374408,0.01043065,-0.32828670,0.00058412,0
 .00023074,0.00067129,-0.00151953,-0.00227094,-0.00992572,-0.00008243,-
 0.00020917,-0.00056575,0.03737941,-0.01100181,0.34817527,-0.00095372,0
 .00007665,0.00004891,-0.00004125,0.00003467,0.00004129,0.00001209,0.00
 002102,-0.00001970,0.00002539,-0.00002073,0.00002404,-0.00001645,-0.00
 001545,0.00000158,-0.00001205,0.00000783,-0.00001000,0.00001469,-0.000
 00208,0.00000142,0.00000015,0.00000179,-0.00000030,-0.00000104,-0.0000
 0203,0.00000077,-0.00000023,0.00000029,0.00000047,0.00015827,-0.000067
 01,-0.00005607,0.00016286,0.00005246,0.00003174,0.00001759,-0.00007156
 ,-0.00001835,-0.00000947,0.00000342,-0.00002191,-0.00001418,0.00000857
 ,0.00000873,-0.00000898,-0.00001138,0.00001957,0.00000562,-0.00000356,
 -0.00001421,-0.00000890,0.00000204,-0.00000373,0.00000003,0.00000045,0
 .00000805,-0.00000210,0.00001933,0.00001337,-0.00001655,-0.00000801,-0
 .00000175,0.00000226,-0.00000470,-0.00001289,-0.00000394,0.00002860,-0
 .00002201,0.00000168,-0.00000820,-0.00000207,0.00000010,-0.00000277,0.
 00000070,0.00000885,0.00000367,0.00001067,0.00000054,0.00000064,-0.000
 00377,-0.00000134,0.00000218,0.00000240,-0.00000014,-0.00000220,0.0000
 0020,-0.00002716,-0.00004682,-0.00001590,-0.00001421,0.00001534,0.0000
 0455,-0.00001807,0.00001888,0.00000654,0.00000076,0.00000271,0.0000008
 0,0.00000191,0.00000122,-0.00000006,0.00000045,-0.00000103,0.00000037,
 -0.00000727,-0.00000513,-0.00000032,-0.00001070,0.00001678,0.00001352,
 -0.00000857,-0.00000812,-0.00000628,-0.00000004,0.00000213,-0.00000884
 ,-0.00000206,-0.00001218,-0.00000109,0.00000195,-0.00000174,-0.0000008
 2,-0.00000389,0.00000163,0.00000218,-0.00000222,0.00000256,0.00000057,
 -0.00000625,-0.00004611,0.00000648,0.00000165,0.00000674,0.00000083,-0
 .00001703,-0.00000449,0.00000012,-0.00000016,-0.00000111,-0.00000158,-
 0.00000017,0.00000045,0.00000550,0.00000005,0.00000513,-0.00000059,-0.
 00000084,-0.00000261,-0.00000058,-0.00024308,0.00009886,-0.00003924,0.
 00653171,0.00024875,-0.00135300,0.00670026,0.00054148,-0.00093973,0.00
 316508,-0.00327379,-0.00176498,0.00002192,-0.00012563,-0.00006404,0.00
 339280,0.00212180,0.00130334,0.00005201,0.00009327,0.00005038,-0.03731
 616,-0.00907868,-0.00813505,-0.00376074,-0.00004359,0.00061100,-0.0038
 3316,-0.00019499,0.00052412,0.02608144,-0.00003213,-0.00007130,-0.0000
 4721,-0.00002240,-0.00006006,-0.00011391,-0.00001567,-0.00002125,-0.00
 003440,0.00002864,-0.00001324,-0.00003298,-0.00000483,0.00002938,-0.00
 001041,0.00001340,0.00001270,0.00000878,-0.00000998,-0.00001502,0.0000
 2787,0.00000716,-0.00000719,0.00000481,-0.00000674,-0.00000594,0.00000
 521,-0.00000077,-0.00000847,0.00000179,0.00002081,0.00000606,0.0000025
 8,-0.00000739,0.00000496,0.00000473,-0.00000301,0.00001358,0.00000101,
 0.00000082,-0.00000803,-0.00000586,0.00000077,0.00000967,-0.00000581,0
 .00000061,0.00000924,-0.00000717,-0.00000800,-0.00000690,0.00001652,-0
 .00004095,0.00000856,0.00000101,0.00000744,-0.00001237,-0.00000382,0.0
 0000662,-0.00001059,0.00000222,0.00002625,0.00001271,-0.00000289,-0.00
 000963,-0.00000921,0.00000004,0.00000784,-0.00002601,0.00000913,0.0000
 0046,0.00000596,-0.00000422,0.00000295,0.00000386,0.00000306,0.0000275
 1,0.00000035,-0.00000458,-0.00000631,0.00000298,-0.00000269,-0.0000058
 2,-0.00000266,-0.00000025,-0.00000095,-0.00000512,0.00000185,0.0000028
 8,-0.00000940,0.00002386,-0.00000513,0.00000713,-0.00001194,0.00000425
 ,0.00000641,0.00000558,-0.00000207,-0.00000073,-0.00000332,-0.00000404
 ,-0.00000430,-0.00000247,0.00000087,0.00000258,0.00000299,-0.00000536,
 -0.00000376,0.00000183,0.00001536,0.00002099,0.00002539,-0.00000952,-0
 .00000576,-0.00000404,-0.00000299,-0.00000069,-0.00000032,-0.00000417,
 0.00000513,0.00000244,0.00000490,-0.00000367,-0.00000328,0.00000373,0.
 00000171,-0.00000012,0.00000208,0.00000158,0.00000230,-0.00002162,-0.0
 0002070,0.00001056,0.00000154,0.00000466,-0.00000879,-0.00002896,-0.00
 000135,0.00000864,0.00000261,-0.00000069,-0.00000417,0.00000657,0.0000
 0313,-0.00000243,-0.00000334,-0.00000396,0.00000342,0.00000618,-0.0000
 0353,0.00000187,0.00013658,0.00025553,0.00126189,0.00019674,0.00180844
 ,0.00056430,0.00062123,-0.00305119,0.00326967,0.00025565,0.00408622,0.
 00231341,0.00002667,0.00003620,0.00019761,-0.00140078,-0.01793641,-0.0
 1617735,-0.00004761,-0.00078633,-0.00072279,-0.00908327,-0.25895068,-0
 .12282496,-0.00014084,0.00041755,-0.00031030,-0.00012919,0.00118829,-0
 .00006853,0.00962438,0.27310099,0.00013069,0.00003507,-0.00004220,0.00
 001333,0.00007536,0.00002157,-0.00002236,-0.00000041,0.00002885,0.0000
 0974,-0.00000610,0.00002468,0.00000239,-0.00001187,0.00000218,-0.00000
 356,-0.00000598,-0.00000540,0.00000325,-0.00000528,-0.00000163,0.00000
 160,-0.00000273,0.00000343,-0.00000151,-0.00000195,0.00000280,0.000000
 34,-0.00000064,0.00000204,-0.00002471,0.00002138,-0.00001925,-0.000020
 25,0.00000093,-0.00002913,-0.00002338,-0.00018056,-0.00011139,0.000017
 24,-0.00002537,-0.00005577,0.00002484,-0.00001587,0.00005211,-0.000013
 05,-0.00000383,0.00003774,0.00000475,0.00001305,-0.00002176,0.00000717
 ,0.00000164,-0.00000334,0.00000125,-0.00000369,0.00000250,-0.00000016,
 0.00000811,-0.00002633,0.00000357,0.00000449,-0.00000264,-0.00000161,-
 0.00000387,0.00000491,-0.00000736,-0.00001228,0.00000694,0.00000209,-0
 .00000690,-0.00000088,0.00001183,0.00000688,0.00001309,0.00002484,0.00
 000368,-0.00002286,-0.00000333,0.00000218,-0.00000117,-0.00000693,-0.0
 0000243,-0.00000086,-0.00000513,-0.00000303,0.00000169,0.00000202,-0.0
 0000672,0.00001422,-0.00000113,0.00000445,-0.00000710,0.00000365,0.000
 00200,0.00000031,0.00000053,0.00000079,0.00000043,-0.00000254,-0.00000
 319,-0.00000084,-0.00000072,-0.00000053,0.00000195,-0.00000282,-0.0000
 0176,0.00000153,0.00001642,-0.00000019,0.00001098,-0.00000452,-0.00000
 047,0.00000006,-0.00000663,0.00000196,0.00000375,-0.00000200,0.0000054
 8,-0.00000109,0.00000227,-0.00000202,-0.00000142,0.00000285,0.00000058
 ,-0.00000004,0.00000356,-0.00000052,0.00000100,-0.00000065,-0.00000237
 ,0.00001386,0.00000038,-0.00000636,-0.00000604,-0.00002427,0.00000779,
 -0.00000928,-0.00000548,0.00000148,0.00000096,0.00000340,0.00000180,-0
 .00000136,0.00000096,-0.00000204,0.00000285,0.00000622,-0.00000160,0.0
 0000167,-0.00011723,0.00124640,-0.00094422,-0.00139775,0.00077002,-0.0
 0493841,-0.00087474,0.00302113,-0.00012787,-0.00099816,-0.02741653,-0.
 01065622,-0.00005066,-0.00113873,-0.00048014,0.00060286,0.01360860,0.0
 1116952,0.00000803,0.00061386,0.00030582,-0.00819792,-0.12282734,-0.13
 174154,0.00059985,0.00032672,0.00133219,0.00053400,-0.00071729,0.00056
 638,0.00977464,0.13263460,0.13562816\\-0.00048047,-0.00022417,-0.00028
 232,-0.00006399,0.00013884,-0.00016597,0.00008852,-0.00000398,0.000118
 07,-0.00013970,-0.00013564,0.00037614,0.00008273,-0.00010137,0.0000915
 1,-0.00010497,-0.00009762,-0.00001294,0.00004205,-0.00016297,0.0001812
 4,-0.00010791,0.00008218,-0.00003627,0.00009824,0.00006554,-0.00008110
 ,0.00001127,0.00009726,-0.00010365,-0.00031154,-0.00006559,0.00002630,
 0.00025176,0.00005285,-0.00003400,-0.00003160,0.00024384,0.00021377,-0
 .00000689,-0.00002336,0.00006014,0.00010466,0.00000776,-0.00006427,-0.
 00006947,0.00000720,-0.00012721,0.00016986,0.00011080,-0.00017747,0.00
 005362,-0.00009211,-0.00002895,0.00002183,0.00008786,-0.00003713,-0.00
 001675,-0.00008338,-0.00038884,0.00007139,-0.00006443,-0.00005581,-0.0
 0002404,0.00010764,-0.00004420,0.00009794,0.00000472,-0.00003631,-0.00
 003442,-0.00004521,-0.00006448,-0.00000822,-0.00006359,0.00011185,-0.0
 0002164,-0.00007406,-0.00007517,0.00001434,-0.00010546,-0.00002793,0.0
 0002109,0.00003989,0.00005098,-0.00001688,0.00000112,-0.00011295,0.000
 30371,0.00009011,-0.00015652,-0.00009024,-0.00001530,0.00002092,0.0003
 1745,-0.00010571,0.00038639,0.00000340,-0.00005205,0.00007279,0.000020
 54,0.00000516,0.00007823,-0.00005014,0.00004455,-0.00008544,0.00007717
 ,-0.00010873,0.00001333,-0.00011170,0.00039563,-0.00008314,0.00010617,
 -0.00000621,0.00004269,0.00007726,-0.00012186,0.00006028,0.00004463,0.
 00009214,0.00002682,0.00000677,0.00007354,0.00007565,-0.00001450,-0.00
 006690,0.00008023,0.00003262,0.00007787,0.00001335,-0.00011218,0.00004
 196,0.00004723,-0.00002122,-0.00010032,0.00004819,0.00006435,-0.000079
 45,-0.00007381,-0.00000483,-0.00002150,0.00013219,-0.00004802,-0.00001
 737,0.00007455,-0.00000928,0.00000766,-0.00001020,-0.00001162,0.000143
 28,0.00010704,0.00005014,-0.00003568,-0.00008085,-0.00007395,-0.000009
 11,-0.00025646,-0.00002159,-0.00017705,0.00008626,-0.00003732,0.000224
 75,-0.00015970,0.00000737,-0.00003521,0.00015163,0.00000865,-0.0000716
 8,0.00026690,-0.00005956,0.00010048,-0.00007414,-0.00001195,0.00022994
 ,0.00009666,-0.00002524,-0.00012231,0.00005549,-0.00006055,0.00002312,
 -0.00014775,-0.00004718,-0.00010827,-0.00008187\\\@
 The archive entry for this job was punched.


 TIMES HAVE CHANGED. IN THE BIBLE WHEN AN ASS
 SPOKE IT WAS CONSIDERED A MIRACLE.
 Job cpu time:       2 days 16 hours 34 minutes 43.7 seconds.
 Elapsed time:       0 days  5 hours 23 minutes 15.2 seconds.
 File lengths (MBytes):  RWF=   3341 Int=      0 D2E=      0 Chk=     73 Scr=      1
 Normal termination of Gaussian 16 at Tue May 24 06:10:33 2022.
