 Entering Gaussian System, Link 0=g16
 Input=NCNPtPhMe.com
 Output=NCNPtPhMe.log
 Initial command:
 /usr/local/g16/l1.exe "/hdd/Gau-929920.inp" -scrdir="/hdd/"
 Entering Link 1 = /usr/local/g16/l1.exe PID=    929922.
  
 Copyright (c) 1988-2019, Gaussian, Inc.  All Rights Reserved.
  
 This is part of the Gaussian(R) 16 program.  It is based on
 the Gaussian(R) 09 system (copyright 2009, Gaussian, Inc.),
 the Gaussian(R) 03 system (copyright 2003, Gaussian, Inc.),
 the Gaussian(R) 98 system (copyright 1998, Gaussian, Inc.),
 the Gaussian(R) 94 system (copyright 1995, Gaussian, Inc.),
 the Gaussian 92(TM) system (copyright 1992, Gaussian, Inc.),
 the Gaussian 90(TM) system (copyright 1990, Gaussian, Inc.),
 the Gaussian 88(TM) system (copyright 1988, Gaussian, Inc.),
 the Gaussian 86(TM) system (copyright 1986, Carnegie Mellon
 University), and the Gaussian 82(TM) system (copyright 1983,
 Carnegie Mellon University). Gaussian is a federally registered
 trademark of Gaussian, Inc.
  
 This software contains proprietary and confidential information,
 including trade secrets, belonging to Gaussian, Inc.
  
 This software is provided under written license and may be
 used, copied, transmitted, or stored only in accord with that
 written license.
  
 The following legend is applicable only to US Government
 contracts under FAR:
  
                    RESTRICTED RIGHTS LEGEND
  
 Use, reproduction and disclosure by the US Government is
 subject to restrictions as set forth in subparagraphs (a)
 and (c) of the Commercial Computer Software - Restricted
 Rights clause in FAR 52.227-19.
  
 Gaussian, Inc.
 340 Quinnipiac St., Bldg. 40, Wallingford CT 06492
  
  
 ---------------------------------------------------------------
 Warning -- This program may not be used in any manner that
 competes with the business of Gaussian, Inc. or will provide
 assistance to any competitor of Gaussian, Inc.  The licensee
 of this program is prohibited from giving any competitor of
 Gaussian, Inc. access to this program.  By using this program,
 the user acknowledges that Gaussian, Inc. is engaged in the
 business of creating and licensing software in the field of
 computational chemistry and represents and warrants to the
 licensee that it is not a competitor of Gaussian, Inc. and that
 it will not use this program in any manner prohibited above.
 ---------------------------------------------------------------
  

 Cite this work as:
 Gaussian 16, Revision C.01,
 M. J. Frisch, G. W. Trucks, H. B. Schlegel, G. E. Scuseria, 
 M. A. Robb, J. R. Cheeseman, G. Scalmani, V. Barone, 
 G. A. Petersson, H. Nakatsuji, X. Li, M. Caricato, A. V. Marenich, 
 J. Bloino, B. G. Janesko, R. Gomperts, B. Mennucci, H. P. Hratchian, 
 J. V. Ortiz, A. F. Izmaylov, J. L. Sonnenberg, D. Williams-Young, 
 F. Ding, F. Lipparini, F. Egidi, J. Goings, B. Peng, A. Petrone, 
 T. Henderson, D. Ranasinghe, V. G. Zakrzewski, J. Gao, N. Rega, 
 G. Zheng, W. Liang, M. Hada, M. Ehara, K. Toyota, R. Fukuda, 
 J. Hasegawa, M. Ishida, T. Nakajima, Y. Honda, O. Kitao, H. Nakai, 
 T. Vreven, K. Throssell, J. A. Montgomery, Jr., J. E. Peralta, 
 F. Ogliaro, M. J. Bearpark, J. J. Heyd, E. N. Brothers, K. N. Kudin, 
 V. N. Staroverov, T. A. Keith, R. Kobayashi, J. Normand, 
 K. Raghavachari, A. P. Rendell, J. C. Burant, S. S. Iyengar, 
 J. Tomasi, M. Cossi, J. M. Millam, M. Klene, C. Adamo, R. Cammi, 
 J. W. Ochterski, R. L. Martin, K. Morokuma, O. Farkas, 
 J. B. Foresman, and D. J. Fox, Gaussian, Inc., Wallingford CT, 2019.
 
 ******************************************
 Gaussian 16:  ES64L-G16RevC.01  3-Jul-2019
                24-May-2022 
 ******************************************
 %nprocshared=12
 Will use up to   12 processors via shared memory.
 %mem=128MW
 %chk=NCNPtPhMe.chk
 ----------------------------------------------------------------------
 # opt freq gen scrf=(iefpcm,solvent=thf) m06 EmpiricalDispersion=GD3 P
 seudo=Read
 ----------------------------------------------------------------------
 1/18=20,19=15,26=3,38=1/1,3;
 2/9=110,12=2,17=6,18=5,40=1/2;
 3/5=7,11=2,16=1,17=8,25=1,30=1,70=2201,71=1,72=20,74=-54,124=31/1,2,3;
 4//1;
 5/5=2,38=5,53=20/2;
 6/7=2,8=2,9=2,10=2,28=1/1;
 7//1,2,3,16;
 1/18=20,19=15,26=3/3(2);
 2/9=110/2;
 99//99;
 2/9=110/2;
 3/5=7,6=1,11=2,16=1,17=8,25=1,30=1,70=2205,71=1,72=20,74=-54,82=7,124=31/1,2,3;
 4/5=5,16=3,69=1/1;
 5/5=2,38=5,53=20/2;
 7//1,2,3,16;
 1/18=20,19=15,26=3/3(-5);
 2/9=110/2;
 6/7=2,8=2,9=2,10=2,19=2,28=1/1;
 99/9=1/99;
 --------------------------------------------------------
 M06 (NCN)PtPhMe; Custom Lanl2tz(f)+6-311g(d,p) basis set
 --------------------------------------------------------
 Symbolic Z-matrix:
 Charge =  1 Multiplicity = 1
 Pt                    0.06117  -0.02776  -0.22155 
 C                    -1.92924   0.26011  -0.20443 
 C                    -2.40444   1.57148  -0.14588 
 C                    -2.76438  -0.85797  -0.20322 
 C                    -3.78439   1.77644  -0.004 
 C                    -4.14667  -0.65993  -0.06035 
 C                    -4.63755   0.65573   0.05352 
 H                    -4.20715   2.77669   0.05263 
 H                    -4.84156  -1.49649  -0.04784 
 H                    -5.70556   0.81156   0.16929 
 N                    -0.58125  -2.06969  -0.03806 
 N                     0.03004   2.10589   0.09265 
 C                     0.0776   -0.01577  -2.28813 
 H                     0.29548   1.011    -2.59726 
 H                    -0.91034  -0.32821  -2.63649 
 H                     0.87164  -0.70282  -2.59078 
 C                    -1.33781   2.62053  -0.3638 
 H                    -1.24691   2.81941  -1.44059 
 H                    -1.54696   3.57935   0.12832 
 C                    -2.04503  -2.15617  -0.48041 
 H                    -2.01585  -2.33789  -1.56416 
 H                    -2.51831  -3.03408  -0.027 
 C                     0.2774   -3.04994  -0.80885 
 C                    -0.04453  -4.52204  -0.56896 
 H                     1.31692  -2.82502  -0.54519 
 H                     0.14713  -2.8054   -1.86989 
 H                     0.58085  -5.12796  -1.23168 
 H                     0.17859  -4.83419   0.45642 
 H                    -1.08881  -4.76572  -0.7941 
 C                    -0.41001  -2.23578   1.47156 
 C                    -1.4205   -3.12914   2.18937 
 H                    -0.475    -1.23233   1.9293 
 H                     0.61643  -2.58855   1.62094 
 H                    -1.11526  -3.21626   3.23687 
 H                    -2.42748  -2.69886   2.17814 
 H                    -1.46237  -4.13939   1.77183 
 C                     0.13396   2.14074   1.6134 
 C                     0.23416   3.51989   2.26358 
 H                     1.02488   1.5533    1.87536 
 H                    -0.75571   1.62228   1.99479 
 H                     0.1875    3.3887    3.34917 
 H                     1.18193   4.0163    2.0368 
 H                    -0.59295   4.18041   1.98201 
 C                     1.18233   2.83673  -0.57335 
 C                     1.00783   4.33764  -0.80895 
 H                     1.35722   2.34701  -1.53717 
 H                     2.06728   2.62889   0.03861 
 H                     1.94039   4.71836  -1.23811 
 H                     0.21339   4.55891  -1.52859 
 H                     0.81336   4.9052    0.10351 
 C                     2.16703  -0.30496  -0.06872 
 C                     3.1078   -0.1816   -1.11428 
 C                     2.68402  -0.59579   1.21854 
 C                     4.48569  -0.3413   -0.89418 
 H                     2.78163   0.05237  -2.12904 
 C                     4.06089  -0.75241   1.45107 
 H                     2.00981  -0.70252   2.0742 
 C                     4.96855  -0.62704   0.39082 
 H                     5.18175  -0.23926  -1.72251 
 H                     4.42126  -0.97143   2.45276 
 H                     6.03356  -0.74855   0.56249 
 

 GradGradGradGradGradGradGradGradGradGradGradGradGradGradGradGradGradGrad
 Berny optimization.
 Initialization pass.
                           ----------------------------
                           !    Initial Parameters    !
                           ! (Angstroms and Degrees)  !
 --------------------------                            --------------------------
 ! Name  Definition              Value          Derivative Info.                !
 --------------------------------------------------------------------------------
 ! R1    R(1,2)                  2.0112         estimate D2E/DX2                !
 ! R2    R(1,11)                 2.1485         estimate D2E/DX2                !
 ! R3    R(1,12)                 2.1569         estimate D2E/DX2                !
 ! R4    R(1,13)                 2.0667         estimate D2E/DX2                !
 ! R5    R(1,51)                 2.1295         estimate D2E/DX2                !
 ! R6    R(2,3)                  1.396          estimate D2E/DX2                !
 ! R7    R(2,4)                  1.3956         estimate D2E/DX2                !
 ! R8    R(3,5)                  1.4023         estimate D2E/DX2                !
 ! R9    R(3,17)                 1.5119         estimate D2E/DX2                !
 ! R10   R(4,6)                  1.4037         estimate D2E/DX2                !
 ! R11   R(4,20)                 1.5098         estimate D2E/DX2                !
 ! R12   R(5,7)                  1.4097         estimate D2E/DX2                !
 ! R13   R(5,8)                  1.0874         estimate D2E/DX2                !
 ! R14   R(6,7)                  1.4089         estimate D2E/DX2                !
 ! R15   R(6,9)                  1.0876         estimate D2E/DX2                !
 ! R16   R(7,10)                 1.0855         estimate D2E/DX2                !
 ! R17   R(11,20)                1.5316         estimate D2E/DX2                !
 ! R18   R(11,23)                1.514          estimate D2E/DX2                !
 ! R19   R(11,30)                1.5283         estimate D2E/DX2                !
 ! R20   R(12,17)                1.5311         estimate D2E/DX2                !
 ! R21   R(12,37)                1.5247         estimate D2E/DX2                !
 ! R22   R(12,44)                1.5184         estimate D2E/DX2                !
 ! R23   R(13,14)                1.0942         estimate D2E/DX2                !
 ! R24   R(13,15)                1.0932         estimate D2E/DX2                !
 ! R25   R(13,16)                1.0928         estimate D2E/DX2                !
 ! R26   R(17,18)                1.0988         estimate D2E/DX2                !
 ! R27   R(17,19)                1.0978         estimate D2E/DX2                !
 ! R28   R(20,21)                1.0993         estimate D2E/DX2                !
 ! R29   R(20,22)                1.0956         estimate D2E/DX2                !
 ! R30   R(23,24)                1.5259         estimate D2E/DX2                !
 ! R31   R(23,25)                1.0958         estimate D2E/DX2                !
 ! R32   R(23,26)                1.0966         estimate D2E/DX2                !
 ! R33   R(24,27)                1.0943         estimate D2E/DX2                !
 ! R34   R(24,28)                1.0948         estimate D2E/DX2                !
 ! R35   R(24,29)                1.0957         estimate D2E/DX2                !
 ! R36   R(30,31)                1.5279         estimate D2E/DX2                !
 ! R37   R(30,32)                1.1048         estimate D2E/DX2                !
 ! R38   R(30,33)                1.0956         estimate D2E/DX2                !
 ! R39   R(31,34)                1.0945         estimate D2E/DX2                !
 ! R40   R(31,35)                1.0951         estimate D2E/DX2                !
 ! R41   R(31,36)                1.0939         estimate D2E/DX2                !
 ! R42   R(37,38)                1.528          estimate D2E/DX2                !
 ! R43   R(37,39)                1.0988         estimate D2E/DX2                !
 ! R44   R(37,40)                1.0981         estimate D2E/DX2                !
 ! R45   R(38,41)                1.0945         estimate D2E/DX2                !
 ! R46   R(38,42)                1.0937         estimate D2E/DX2                !
 ! R47   R(38,43)                1.0953         estimate D2E/DX2                !
 ! R48   R(44,45)                1.5293         estimate D2E/DX2                !
 ! R49   R(44,46)                1.0952         estimate D2E/DX2                !
 ! R50   R(44,47)                1.0958         estimate D2E/DX2                !
 ! R51   R(45,48)                1.0949         estimate D2E/DX2                !
 ! R52   R(45,49)                1.0945         estimate D2E/DX2                !
 ! R53   R(45,50)                1.092          estimate D2E/DX2                !
 ! R54   R(51,52)                1.4119         estimate D2E/DX2                !
 ! R55   R(51,53)                1.4174         estimate D2E/DX2                !
 ! R56   R(52,54)                1.4045         estimate D2E/DX2                !
 ! R57   R(52,55)                1.0913         estimate D2E/DX2                !
 ! R58   R(53,56)                1.4051         estimate D2E/DX2                !
 ! R59   R(53,57)                1.0946         estimate D2E/DX2                !
 ! R60   R(54,58)                1.4022         estimate D2E/DX2                !
 ! R61   R(54,59)                1.0867         estimate D2E/DX2                !
 ! R62   R(56,58)                1.4013         estimate D2E/DX2                !
 ! R63   R(56,60)                1.0868         estimate D2E/DX2                !
 ! R64   R(58,61)                1.0856         estimate D2E/DX2                !
 ! A1    A(2,1,11)              80.7574         estimate D2E/DX2                !
 ! A2    A(2,1,12)              80.9605         estimate D2E/DX2                !
 ! A3    A(2,1,13)              90.8912         estimate D2E/DX2                !
 ! A4    A(11,1,12)            157.4319         estimate D2E/DX2                !
 ! A5    A(11,1,13)             95.3529         estimate D2E/DX2                !
 ! A6    A(11,1,51)             99.5461         estimate D2E/DX2                !
 ! A7    A(12,1,13)             98.0505         estimate D2E/DX2                !
 ! A8    A(12,1,51)             97.6193         estimate D2E/DX2                !
 ! A9    A(13,1,51)             93.7071         estimate D2E/DX2                !
 ! A10   A(1,2,3)              118.1439         estimate D2E/DX2                !
 ! A11   A(1,2,4)              118.5276         estimate D2E/DX2                !
 ! A12   A(3,2,4)              123.2874         estimate D2E/DX2                !
 ! A13   A(2,3,5)              118.4581         estimate D2E/DX2                !
 ! A14   A(2,3,17)             113.9286         estimate D2E/DX2                !
 ! A15   A(5,3,17)             127.4045         estimate D2E/DX2                !
 ! A16   A(2,4,6)              118.448          estimate D2E/DX2                !
 ! A17   A(2,4,20)             113.8029         estimate D2E/DX2                !
 ! A18   A(6,4,20)             127.5296         estimate D2E/DX2                !
 ! A19   A(3,5,7)              118.9142         estimate D2E/DX2                !
 ! A20   A(3,5,8)              121.4868         estimate D2E/DX2                !
 ! A21   A(7,5,8)              119.5964         estimate D2E/DX2                !
 ! A22   A(4,6,7)              118.8874         estimate D2E/DX2                !
 ! A23   A(4,6,9)              121.4558         estimate D2E/DX2                !
 ! A24   A(7,6,9)              119.6529         estimate D2E/DX2                !
 ! A25   A(5,7,6)              121.8876         estimate D2E/DX2                !
 ! A26   A(5,7,10)             119.057          estimate D2E/DX2                !
 ! A27   A(6,7,10)             119.0442         estimate D2E/DX2                !
 ! A28   A(1,11,20)            108.347          estimate D2E/DX2                !
 ! A29   A(1,11,23)            113.7212         estimate D2E/DX2                !
 ! A30   A(1,11,30)             98.8671         estimate D2E/DX2                !
 ! A31   A(20,11,23)           111.0032         estimate D2E/DX2                !
 ! A32   A(20,11,30)           112.7191         estimate D2E/DX2                !
 ! A33   A(23,11,30)           111.6515         estimate D2E/DX2                !
 ! A34   A(1,12,17)            107.5765         estimate D2E/DX2                !
 ! A35   A(1,12,37)             99.6091         estimate D2E/DX2                !
 ! A36   A(1,12,44)            113.6596         estimate D2E/DX2                !
 ! A37   A(17,12,37)           110.5213         estimate D2E/DX2                !
 ! A38   A(17,12,44)           112.6705         estimate D2E/DX2                !
 ! A39   A(37,12,44)           112.0096         estimate D2E/DX2                !
 ! A40   A(1,13,14)            106.8294         estimate D2E/DX2                !
 ! A41   A(1,13,15)            108.0479         estimate D2E/DX2                !
 ! A42   A(1,13,16)            106.205          estimate D2E/DX2                !
 ! A43   A(14,13,15)           110.9846         estimate D2E/DX2                !
 ! A44   A(14,13,16)           111.5342         estimate D2E/DX2                !
 ! A45   A(15,13,16)           112.876          estimate D2E/DX2                !
 ! A46   A(3,17,12)            110.7373         estimate D2E/DX2                !
 ! A47   A(3,17,18)            108.9788         estimate D2E/DX2                !
 ! A48   A(3,17,19)            114.0157         estimate D2E/DX2                !
 ! A49   A(12,17,18)           106.2059         estimate D2E/DX2                !
 ! A50   A(12,17,19)           109.277          estimate D2E/DX2                !
 ! A51   A(18,17,19)           107.2762         estimate D2E/DX2                !
 ! A52   A(4,20,11)            110.7182         estimate D2E/DX2                !
 ! A53   A(4,20,21)            109.6201         estimate D2E/DX2                !
 ! A54   A(4,20,22)            114.0288         estimate D2E/DX2                !
 ! A55   A(11,20,21)           105.587          estimate D2E/DX2                !
 ! A56   A(11,20,22)           109.7907         estimate D2E/DX2                !
 ! A57   A(21,20,22)           106.6789         estimate D2E/DX2                !
 ! A58   A(11,23,24)           115.1469         estimate D2E/DX2                !
 ! A59   A(11,23,25)           106.4168         estimate D2E/DX2                !
 ! A60   A(11,23,26)           106.3102         estimate D2E/DX2                !
 ! A61   A(24,23,25)           111.1218         estimate D2E/DX2                !
 ! A62   A(24,23,26)           110.0104         estimate D2E/DX2                !
 ! A63   A(25,23,26)           107.4411         estimate D2E/DX2                !
 ! A64   A(23,24,27)           108.567          estimate D2E/DX2                !
 ! A65   A(23,24,28)           112.2916         estimate D2E/DX2                !
 ! A66   A(23,24,29)           112.5404         estimate D2E/DX2                !
 ! A67   A(27,24,28)           107.0295         estimate D2E/DX2                !
 ! A68   A(27,24,29)           107.283          estimate D2E/DX2                !
 ! A69   A(28,24,29)           108.8606         estimate D2E/DX2                !
 ! A70   A(11,30,31)           116.968          estimate D2E/DX2                !
 ! A71   A(11,30,32)           107.6946         estimate D2E/DX2                !
 ! A72   A(11,30,33)           105.9403         estimate D2E/DX2                !
 ! A73   A(31,30,32)           107.3075         estimate D2E/DX2                !
 ! A74   A(31,30,33)           111.5486         estimate D2E/DX2                !
 ! A75   A(32,30,33)           106.9209         estimate D2E/DX2                !
 ! A76   A(30,31,34)           108.1627         estimate D2E/DX2                !
 ! A77   A(30,31,35)           111.9362         estimate D2E/DX2                !
 ! A78   A(30,31,36)           112.7039         estimate D2E/DX2                !
 ! A79   A(34,31,35)           107.3091         estimate D2E/DX2                !
 ! A80   A(34,31,36)           107.6049         estimate D2E/DX2                !
 ! A81   A(35,31,36)           108.8896         estimate D2E/DX2                !
 ! A82   A(12,37,38)           116.7118         estimate D2E/DX2                !
 ! A83   A(12,37,39)           106.3092         estimate D2E/DX2                !
 ! A84   A(12,37,40)           106.2845         estimate D2E/DX2                !
 ! A85   A(38,37,39)           109.142          estimate D2E/DX2                !
 ! A86   A(38,37,40)           109.3597         estimate D2E/DX2                !
 ! A87   A(39,37,40)           108.7653         estimate D2E/DX2                !
 ! A88   A(37,38,41)           108.1233         estimate D2E/DX2                !
 ! A89   A(37,38,42)           112.2267         estimate D2E/DX2                !
 ! A90   A(37,38,43)           112.6685         estimate D2E/DX2                !
 ! A91   A(41,38,42)           107.2786         estimate D2E/DX2                !
 ! A92   A(41,38,43)           107.1618         estimate D2E/DX2                !
 ! A93   A(42,38,43)           109.1098         estimate D2E/DX2                !
 ! A94   A(12,44,45)           116.9614         estimate D2E/DX2                !
 ! A95   A(12,44,46)           106.9762         estimate D2E/DX2                !
 ! A96   A(12,44,47)           106.0584         estimate D2E/DX2                !
 ! A97   A(45,44,46)           108.7545         estimate D2E/DX2                !
 ! A98   A(45,44,47)           111.3664         estimate D2E/DX2                !
 ! A99   A(46,44,47)           106.1228         estimate D2E/DX2                !
 ! A100  A(44,45,48)           107.7269         estimate D2E/DX2                !
 ! A101  A(44,45,49)           112.4907         estimate D2E/DX2                !
 ! A102  A(44,45,50)           113.6836         estimate D2E/DX2                !
 ! A103  A(48,45,49)           106.8705         estimate D2E/DX2                !
 ! A104  A(48,45,50)           107.365          estimate D2E/DX2                !
 ! A105  A(49,45,50)           108.3631         estimate D2E/DX2                !
 ! A106  A(1,51,52)            126.4696         estimate D2E/DX2                !
 ! A107  A(1,51,53)            116.9103         estimate D2E/DX2                !
 ! A108  A(52,51,53)           116.5797         estimate D2E/DX2                !
 ! A109  A(51,52,54)           121.8519         estimate D2E/DX2                !
 ! A110  A(51,52,55)           120.5431         estimate D2E/DX2                !
 ! A111  A(54,52,55)           117.6028         estimate D2E/DX2                !
 ! A112  A(51,53,56)           122.0453         estimate D2E/DX2                !
 ! A113  A(51,53,57)           120.3516         estimate D2E/DX2                !
 ! A114  A(56,53,57)           117.6027         estimate D2E/DX2                !
 ! A115  A(52,54,58)           120.3075         estimate D2E/DX2                !
 ! A116  A(52,54,59)           119.8846         estimate D2E/DX2                !
 ! A117  A(58,54,59)           119.8075         estimate D2E/DX2                !
 ! A118  A(53,56,58)           119.968          estimate D2E/DX2                !
 ! A119  A(53,56,60)           119.9925         estimate D2E/DX2                !
 ! A120  A(58,56,60)           120.0395         estimate D2E/DX2                !
 ! A121  A(54,58,56)           119.2468         estimate D2E/DX2                !
 ! A122  A(54,58,61)           120.37           estimate D2E/DX2                !
 ! A123  A(56,58,61)           120.3832         estimate D2E/DX2                !
 ! A124  L(2,1,51,11,-1)       180.3036         estimate D2E/DX2                !
 ! A125  L(2,1,51,11,-2)       184.7142         estimate D2E/DX2                !
 ! D1    D(11,1,2,3)           172.6503         estimate D2E/DX2                !
 ! D2    D(11,1,2,4)            -5.0932         estimate D2E/DX2                !
 ! D3    D(12,1,2,3)             5.939          estimate D2E/DX2                !
 ! D4    D(12,1,2,4)          -171.8045         estimate D2E/DX2                !
 ! D5    D(13,1,2,3)           -92.0712         estimate D2E/DX2                !
 ! D6    D(13,1,2,4)            90.1853         estimate D2E/DX2                !
 ! D7    D(2,1,11,20)           19.1978         estimate D2E/DX2                !
 ! D8    D(2,1,11,23)          143.1282         estimate D2E/DX2                !
 ! D9    D(2,1,11,30)          -98.419          estimate D2E/DX2                !
 ! D10   D(12,1,11,20)          55.4606         estimate D2E/DX2                !
 ! D11   D(12,1,11,23)         179.3909         estimate D2E/DX2                !
 ! D12   D(12,1,11,30)         -62.1563         estimate D2E/DX2                !
 ! D13   D(13,1,11,20)         -70.8354         estimate D2E/DX2                !
 ! D14   D(13,1,11,23)          53.095          estimate D2E/DX2                !
 ! D15   D(13,1,11,30)         171.5477         estimate D2E/DX2                !
 ! D16   D(51,1,11,20)        -165.5164         estimate D2E/DX2                !
 ! D17   D(51,1,11,23)         -41.586          estimate D2E/DX2                !
 ! D18   D(51,1,11,30)          76.8668         estimate D2E/DX2                !
 ! D19   D(2,1,12,17)          -20.4253         estimate D2E/DX2                !
 ! D20   D(2,1,12,37)           94.8257         estimate D2E/DX2                !
 ! D21   D(2,1,12,44)         -145.8895         estimate D2E/DX2                !
 ! D22   D(11,1,12,17)         -56.6641         estimate D2E/DX2                !
 ! D23   D(11,1,12,37)          58.5869         estimate D2E/DX2                !
 ! D24   D(11,1,12,44)         177.8717         estimate D2E/DX2                !
 ! D25   D(13,1,12,17)          69.1968         estimate D2E/DX2                !
 ! D26   D(13,1,12,37)        -175.5522         estimate D2E/DX2                !
 ! D27   D(13,1,12,44)         -56.2674         estimate D2E/DX2                !
 ! D28   D(51,1,12,17)         164.0614         estimate D2E/DX2                !
 ! D29   D(51,1,12,37)         -80.6876         estimate D2E/DX2                !
 ! D30   D(51,1,12,44)          38.5972         estimate D2E/DX2                !
 ! D31   D(2,1,13,14)           93.6332         estimate D2E/DX2                !
 ! D32   D(2,1,13,15)          -25.843          estimate D2E/DX2                !
 ! D33   D(2,1,13,16)         -147.2066         estimate D2E/DX2                !
 ! D34   D(11,1,13,14)         174.4333         estimate D2E/DX2                !
 ! D35   D(11,1,13,15)          54.957          estimate D2E/DX2                !
 ! D36   D(11,1,13,16)         -66.4066         estimate D2E/DX2                !
 ! D37   D(12,1,13,14)          12.6369         estimate D2E/DX2                !
 ! D38   D(12,1,13,15)        -106.8393         estimate D2E/DX2                !
 ! D39   D(12,1,13,16)         131.797          estimate D2E/DX2                !
 ! D40   D(51,1,13,14)         -85.6051         estimate D2E/DX2                !
 ! D41   D(51,1,13,15)         154.9187         estimate D2E/DX2                !
 ! D42   D(51,1,13,16)          33.555          estimate D2E/DX2                !
 ! D43   D(11,1,51,52)         108.1438         estimate D2E/DX2                !
 ! D44   D(11,1,51,53)         -74.2581         estimate D2E/DX2                !
 ! D45   D(12,1,51,52)         -86.5652         estimate D2E/DX2                !
 ! D46   D(12,1,51,53)          91.0329         estimate D2E/DX2                !
 ! D47   D(13,1,51,52)          12.0766         estimate D2E/DX2                !
 ! D48   D(13,1,51,53)        -170.3253         estimate D2E/DX2                !
 ! D49   D(1,2,3,5)           -173.9639         estimate D2E/DX2                !
 ! D50   D(1,2,3,17)            10.8968         estimate D2E/DX2                !
 ! D51   D(4,2,3,5)              3.6644         estimate D2E/DX2                !
 ! D52   D(4,2,3,17)          -171.4749         estimate D2E/DX2                !
 ! D53   D(1,2,4,6)            173.9078         estimate D2E/DX2                !
 ! D54   D(1,2,4,20)           -11.0694         estimate D2E/DX2                !
 ! D55   D(3,2,4,6)             -3.7119         estimate D2E/DX2                !
 ! D56   D(3,2,4,20)           171.3109         estimate D2E/DX2                !
 ! D57   D(2,3,5,7)             -0.9446         estimate D2E/DX2                !
 ! D58   D(2,3,5,8)            179.641          estimate D2E/DX2                !
 ! D59   D(17,3,5,7)           173.4601         estimate D2E/DX2                !
 ! D60   D(17,3,5,8)            -5.9542         estimate D2E/DX2                !
 ! D61   D(2,3,17,12)          -28.5392         estimate D2E/DX2                !
 ! D62   D(2,3,17,18)           87.9346         estimate D2E/DX2                !
 ! D63   D(2,3,17,19)         -152.2605         estimate D2E/DX2                !
 ! D64   D(5,3,17,12)          156.8418         estimate D2E/DX2                !
 ! D65   D(5,3,17,18)          -86.6844         estimate D2E/DX2                !
 ! D66   D(5,3,17,19)           33.1205         estimate D2E/DX2                !
 ! D67   D(2,4,6,7)              1.0387         estimate D2E/DX2                !
 ! D68   D(2,4,6,9)           -179.6901         estimate D2E/DX2                !
 ! D69   D(20,4,6,7)          -173.2167         estimate D2E/DX2                !
 ! D70   D(20,4,6,9)             6.0545         estimate D2E/DX2                !
 ! D71   D(2,4,20,11)           27.4097         estimate D2E/DX2                !
 ! D72   D(2,4,20,21)          -88.6825         estimate D2E/DX2                !
 ! D73   D(2,4,20,22)          151.8099         estimate D2E/DX2                !
 ! D74   D(6,4,20,11)         -158.1101         estimate D2E/DX2                !
 ! D75   D(6,4,20,21)           85.7976         estimate D2E/DX2                !
 ! D76   D(6,4,20,22)          -33.71           estimate D2E/DX2                !
 ! D77   D(3,5,7,6)             -1.5873         estimate D2E/DX2                !
 ! D78   D(3,5,7,10)           179.6373         estimate D2E/DX2                !
 ! D79   D(8,5,7,6)            177.8383         estimate D2E/DX2                !
 ! D80   D(8,5,7,10)            -0.9371         estimate D2E/DX2                !
 ! D81   D(4,6,7,5)              1.539          estimate D2E/DX2                !
 ! D82   D(4,6,7,10)          -179.6854         estimate D2E/DX2                !
 ! D83   D(9,6,7,5)           -177.7456         estimate D2E/DX2                !
 ! D84   D(9,6,7,10)             1.03           estimate D2E/DX2                !
 ! D85   D(1,11,20,4)          -29.7975         estimate D2E/DX2                !
 ! D86   D(1,11,20,21)          88.7715         estimate D2E/DX2                !
 ! D87   D(1,11,20,22)        -156.58           estimate D2E/DX2                !
 ! D88   D(23,11,20,4)        -155.3407         estimate D2E/DX2                !
 ! D89   D(23,11,20,21)        -36.7717         estimate D2E/DX2                !
 ! D90   D(23,11,20,22)         77.8768         estimate D2E/DX2                !
 ! D91   D(30,11,20,4)          78.5581         estimate D2E/DX2                !
 ! D92   D(30,11,20,21)       -162.873          estimate D2E/DX2                !
 ! D93   D(30,11,20,22)        -48.2245         estimate D2E/DX2                !
 ! D94   D(1,11,23,24)         172.9609         estimate D2E/DX2                !
 ! D95   D(1,11,23,25)          49.3663         estimate D2E/DX2                !
 ! D96   D(1,11,23,26)         -64.9504         estimate D2E/DX2                !
 ! D97   D(20,11,23,24)        -64.5601         estimate D2E/DX2                !
 ! D98   D(20,11,23,25)        171.8454         estimate D2E/DX2                !
 ! D99   D(20,11,23,26)         57.5287         estimate D2E/DX2                !
 ! D100  D(30,11,23,24)         62.1318         estimate D2E/DX2                !
 ! D101  D(30,11,23,25)        -61.4627         estimate D2E/DX2                !
 ! D102  D(30,11,23,26)       -175.7794         estimate D2E/DX2                !
 ! D103  D(1,11,30,31)         145.2663         estimate D2E/DX2                !
 ! D104  D(1,11,30,32)          24.4221         estimate D2E/DX2                !
 ! D105  D(1,11,30,33)         -89.7102         estimate D2E/DX2                !
 ! D106  D(20,11,30,31)         31.0176         estimate D2E/DX2                !
 ! D107  D(20,11,30,32)        -89.8266         estimate D2E/DX2                !
 ! D108  D(20,11,30,33)        156.0411         estimate D2E/DX2                !
 ! D109  D(23,11,30,31)        -94.7343         estimate D2E/DX2                !
 ! D110  D(23,11,30,32)        144.4214         estimate D2E/DX2                !
 ! D111  D(23,11,30,33)         30.2891         estimate D2E/DX2                !
 ! D112  D(1,12,17,3)           31.2555         estimate D2E/DX2                !
 ! D113  D(1,12,17,18)         -86.9202         estimate D2E/DX2                !
 ! D114  D(1,12,17,19)         157.6576         estimate D2E/DX2                !
 ! D115  D(37,12,17,3)         -76.5348         estimate D2E/DX2                !
 ! D116  D(37,12,17,18)        165.2896         estimate D2E/DX2                !
 ! D117  D(37,12,17,19)         49.8673         estimate D2E/DX2                !
 ! D118  D(44,12,17,3)         157.3074         estimate D2E/DX2                !
 ! D119  D(44,12,17,18)         39.1317         estimate D2E/DX2                !
 ! D120  D(44,12,17,19)        -76.2906         estimate D2E/DX2                !
 ! D121  D(1,12,37,38)         176.2497         estimate D2E/DX2                !
 ! D122  D(1,12,37,39)          54.2636         estimate D2E/DX2                !
 ! D123  D(1,12,37,40)         -61.5004         estimate D2E/DX2                !
 ! D124  D(17,12,37,38)        -70.7709         estimate D2E/DX2                !
 ! D125  D(17,12,37,39)        167.2429         estimate D2E/DX2                !
 ! D126  D(17,12,37,40)         51.479          estimate D2E/DX2                !
 ! D127  D(44,12,37,38)         55.7561         estimate D2E/DX2                !
 ! D128  D(44,12,37,39)        -66.23           estimate D2E/DX2                !
 ! D129  D(44,12,37,40)        178.006          estimate D2E/DX2                !
 ! D130  D(1,12,44,45)         160.2014         estimate D2E/DX2                !
 ! D131  D(1,12,44,46)          38.0308         estimate D2E/DX2                !
 ! D132  D(1,12,44,47)         -74.9244         estimate D2E/DX2                !
 ! D133  D(17,12,44,45)         37.497          estimate D2E/DX2                !
 ! D134  D(17,12,44,46)        -84.6736         estimate D2E/DX2                !
 ! D135  D(17,12,44,47)        162.3712         estimate D2E/DX2                !
 ! D136  D(37,12,44,45)        -87.8565         estimate D2E/DX2                !
 ! D137  D(37,12,44,46)        149.973          estimate D2E/DX2                !
 ! D138  D(37,12,44,47)         37.0178         estimate D2E/DX2                !
 ! D139  D(11,23,24,27)        175.6482         estimate D2E/DX2                !
 ! D140  D(11,23,24,28)        -66.2136         estimate D2E/DX2                !
 ! D141  D(11,23,24,29)         57.0453         estimate D2E/DX2                !
 ! D142  D(25,23,24,27)        -63.2845         estimate D2E/DX2                !
 ! D143  D(25,23,24,28)         54.8537         estimate D2E/DX2                !
 ! D144  D(25,23,24,29)        178.1126         estimate D2E/DX2                !
 ! D145  D(26,23,24,27)         55.5734         estimate D2E/DX2                !
 ! D146  D(26,23,24,28)        173.7116         estimate D2E/DX2                !
 ! D147  D(26,23,24,29)        -63.0295         estimate D2E/DX2                !
 ! D148  D(11,30,31,34)        175.1545         estimate D2E/DX2                !
 ! D149  D(11,30,31,35)        -66.8313         estimate D2E/DX2                !
 ! D150  D(11,30,31,36)         56.3184         estimate D2E/DX2                !
 ! D151  D(32,30,31,34)        -63.7977         estimate D2E/DX2                !
 ! D152  D(32,30,31,35)         54.2165         estimate D2E/DX2                !
 ! D153  D(32,30,31,36)        177.3662         estimate D2E/DX2                !
 ! D154  D(33,30,31,34)         52.9983         estimate D2E/DX2                !
 ! D155  D(33,30,31,35)        171.0125         estimate D2E/DX2                !
 ! D156  D(33,30,31,36)        -65.8378         estimate D2E/DX2                !
 ! D157  D(12,37,38,41)        173.7017         estimate D2E/DX2                !
 ! D158  D(12,37,38,42)        -68.1759         estimate D2E/DX2                !
 ! D159  D(12,37,38,43)         55.4616         estimate D2E/DX2                !
 ! D160  D(39,37,38,41)        -65.8051         estimate D2E/DX2                !
 ! D161  D(39,37,38,42)         52.3172         estimate D2E/DX2                !
 ! D162  D(39,37,38,43)        175.9548         estimate D2E/DX2                !
 ! D163  D(40,37,38,41)         53.0692         estimate D2E/DX2                !
 ! D164  D(40,37,38,42)        171.1915         estimate D2E/DX2                !
 ! D165  D(40,37,38,43)        -65.171          estimate D2E/DX2                !
 ! D166  D(12,44,45,48)        176.7529         estimate D2E/DX2                !
 ! D167  D(12,44,45,49)        -65.7242         estimate D2E/DX2                !
 ! D168  D(12,44,45,50)         57.913          estimate D2E/DX2                !
 ! D169  D(46,44,45,48)        -62.0044         estimate D2E/DX2                !
 ! D170  D(46,44,45,49)         55.5184         estimate D2E/DX2                !
 ! D171  D(46,44,45,50)        179.1557         estimate D2E/DX2                !
 ! D172  D(47,44,45,48)         54.5948         estimate D2E/DX2                !
 ! D173  D(47,44,45,49)        172.1177         estimate D2E/DX2                !
 ! D174  D(47,44,45,50)        -64.2451         estimate D2E/DX2                !
 ! D175  D(1,51,52,54)         177.7475         estimate D2E/DX2                !
 ! D176  D(1,51,52,55)          -1.7115         estimate D2E/DX2                !
 ! D177  D(53,51,52,54)          0.1424         estimate D2E/DX2                !
 ! D178  D(53,51,52,55)       -179.3165         estimate D2E/DX2                !
 ! D179  D(1,51,53,56)        -177.7288         estimate D2E/DX2                !
 ! D180  D(1,51,53,57)           2.0309         estimate D2E/DX2                !
 ! D181  D(52,51,53,56)          0.1115         estimate D2E/DX2                !
 ! D182  D(52,51,53,57)        179.8713         estimate D2E/DX2                !
 ! D183  D(51,52,54,58)         -0.2302         estimate D2E/DX2                !
 ! D184  D(51,52,54,59)       -179.9929         estimate D2E/DX2                !
 ! D185  D(55,52,54,58)        179.244          estimate D2E/DX2                !
 ! D186  D(55,52,54,59)         -0.5187         estimate D2E/DX2                !
 ! D187  D(51,53,56,58)         -0.2789         estimate D2E/DX2                !
 ! D188  D(51,53,56,60)        179.7684         estimate D2E/DX2                !
 ! D189  D(57,53,56,58)        179.9551         estimate D2E/DX2                !
 ! D190  D(57,53,56,60)          0.0023         estimate D2E/DX2                !
 ! D191  D(52,54,58,56)          0.0594         estimate D2E/DX2                !
 ! D192  D(52,54,58,61)       -179.8673         estimate D2E/DX2                !
 ! D193  D(59,54,58,56)        179.8222         estimate D2E/DX2                !
 ! D194  D(59,54,58,61)         -0.1044         estimate D2E/DX2                !
 ! D195  D(53,56,58,54)          0.1883         estimate D2E/DX2                !
 ! D196  D(53,56,58,61)       -179.885          estimate D2E/DX2                !
 ! D197  D(60,56,58,54)       -179.8589         estimate D2E/DX2                !
 ! D198  D(60,56,58,61)          0.0677         estimate D2E/DX2                !
 --------------------------------------------------------------------------------
 Trust Radius=3.00D-01 FncErr=1.00D-07 GrdErr=1.00D-06 EigMax=2.50D+02 EigMin=1.00D-04
 Number of steps in this run=    366 maximum allowed number of steps=    366.
 GradGradGradGradGradGradGradGradGradGradGradGradGradGradGradGradGradGrad

 Stoichiometry    C23H35N2Pt(1+)
 Framework group  C1[X(C23H35N2Pt)]
 Deg. of freedom   177
 Full point group                 C1      NOp   1
 Largest Abelian subgroup         C1      NOp   1
 Largest concise Abelian subgroup C1      NOp   1
                         Standard orientation:                         
 ---------------------------------------------------------------------
 Center     Atomic      Atomic             Coordinates (Angstroms)
 Number     Number       Type             X           Y           Z
 ---------------------------------------------------------------------
      1         78           0        0.061171   -0.027755   -0.221553
      2          6           0       -1.929236    0.260111   -0.204428
      3          6           0       -2.404443    1.571476   -0.145875
      4          6           0       -2.764383   -0.857973   -0.203219
      5          6           0       -3.784394    1.776439   -0.004001
      6          6           0       -4.146665   -0.659933   -0.060346
      7          6           0       -4.637546    0.655727    0.053515
      8          1           0       -4.207147    2.776691    0.052629
      9          1           0       -4.841564   -1.496485   -0.047841
     10          1           0       -5.705559    0.811558    0.169289
     11          7           0       -0.581246   -2.069690   -0.038061
     12          7           0        0.030040    2.105885    0.092645
     13          6           0        0.077604   -0.015773   -2.288134
     14          1           0        0.295477    1.011004   -2.597263
     15          1           0       -0.910340   -0.328210   -2.636492
     16          1           0        0.871638   -0.702823   -2.590779
     17          6           0       -1.337807    2.620533   -0.363802
     18          1           0       -1.246909    2.819407   -1.440588
     19          1           0       -1.546964    3.579349    0.128318
     20          6           0       -2.045032   -2.156172   -0.480408
     21          1           0       -2.015853   -2.337893   -1.564156
     22          1           0       -2.518314   -3.034079   -0.027003
     23          6           0        0.277395   -3.049937   -0.808849
     24          6           0       -0.044534   -4.522037   -0.568957
     25          1           0        1.316915   -2.825018   -0.545193
     26          1           0        0.147130   -2.805398   -1.869888
     27          1           0        0.580850   -5.127955   -1.231680
     28          1           0        0.178593   -4.834192    0.456420
     29          1           0       -1.088806   -4.765719   -0.794095
     30          6           0       -0.410011   -2.235781    1.471556
     31          6           0       -1.420501   -3.129144    2.189371
     32          1           0       -0.474996   -1.232329    1.929304
     33          1           0        0.616433   -2.588549    1.620941
     34          1           0       -1.115258   -3.216264    3.236868
     35          1           0       -2.427478   -2.698855    2.178135
     36          1           0       -1.462374   -4.139391    1.771831
     37          6           0        0.133960    2.140739    1.613402
     38          6           0        0.234160    3.519891    2.263576
     39          1           0        1.024884    1.553299    1.875364
     40          1           0       -0.755714    1.622279    1.994787
     41          1           0        0.187496    3.388701    3.349174
     42          1           0        1.181931    4.016299    2.036803
     43          1           0       -0.592946    4.180414    1.982006
     44          6           0        1.182328    2.836733   -0.573351
     45          6           0        1.007832    4.337635   -0.808954
     46          1           0        1.357220    2.347007   -1.537172
     47          1           0        2.067278    2.628892    0.038608
     48          1           0        1.940389    4.718362   -1.238114
     49          1           0        0.213386    4.558913   -1.528585
     50          1           0        0.813364    4.905204    0.103506
     51          6           0        2.167030   -0.304963   -0.068724
     52          6           0        3.107803   -0.181595   -1.114277
     53          6           0        2.684023   -0.595791    1.218538
     54          6           0        4.485693   -0.341296   -0.894184
     55          1           0        2.781629    0.052373   -2.129037
     56          6           0        4.060893   -0.752405    1.451065
     57          1           0        2.009807   -0.702522    2.074204
     58          6           0        4.968550   -0.627037    0.390818
     59          1           0        5.181749   -0.239260   -1.722505
     60          1           0        4.421260   -0.971427    2.452762
     61          1           0        6.033558   -0.748554    0.562491
 ---------------------------------------------------------------------
 Rotational constants (GHZ):           0.2303334           0.1914558           0.1287957
 General basis read from cards:  (5D, 7F)
 ======================================================================================================
                                       Pseudopotential Parameters
 ======================================================================================================
  Center     Atomic      Valence      Angular      Power
  Number     Number     Electrons     Momentum     of R      Exponent        Coefficient   SO-Coeffient
 ======================================================================================================
    1         78           18
                                      G and up 
                                                     1      728.9394056       -0.16192680    0.00000000
                                                     2      320.6567800    -1320.28738520    0.00000000
                                                     2       52.8680174     -298.31781350    0.00000000
                                                     2       12.0280128      -87.58370650    0.00000000
                                                     2        3.5238913       -8.14932740    0.00000000
                                      S - G
                                                     0      409.4437358        2.73342180    0.00000000
                                                     1      274.5419231       59.70243290    0.00000000
                                                     2      127.5658570      891.45895500    0.00000000
                                                     2       32.9036631      368.44676560    0.00000000
                                                     2        5.0593880      238.02630900    0.00000000
                                                     2        4.1506556     -107.05564540    0.00000000
                                      P - G
                                                     0      466.1728892        1.88785680    0.00000000
                                                     1      120.7888259       76.01386290    0.00000000
                                                     2       36.4118791      343.55111160    0.00000000
                                                     2        5.6985408      119.49117860    0.00000000
                                      D - G
                                                     0      249.5650763        2.93436780    0.00000000
                                                     1      126.6678585       59.33065710    0.00000000
                                                     2       63.1430586      452.44451940    0.00000000
                                                     2       17.9059470      210.47694790    0.00000000
                                                     2        4.2239373       58.62541120    0.00000000
                                      F - G
                                                     0      121.8158799        3.95342530    0.00000000
                                                     1       60.8757030       53.85551820    0.00000000
                                                     2       31.4767147      247.43051330    0.00000000
                                                     2        9.8811751      127.81879760    0.00000000
                                                     2        2.7319874       15.37720460    0.00000000
    2          6
                                   No pseudopotential on this center.
    3          6
                                   No pseudopotential on this center.
    4          6
                                   No pseudopotential on this center.
    5          6
                                   No pseudopotential on this center.
    6          6
                                   No pseudopotential on this center.
    7          6
                                   No pseudopotential on this center.
    8          1
                                   No pseudopotential on this center.
    9          1
                                   No pseudopotential on this center.
   10          1
                                   No pseudopotential on this center.
   11          7
                                   No pseudopotential on this center.
   12          7
                                   No pseudopotential on this center.
   13          6
                                   No pseudopotential on this center.
   14          1
                                   No pseudopotential on this center.
   15          1
                                   No pseudopotential on this center.
   16          1
                                   No pseudopotential on this center.
   17          6
                                   No pseudopotential on this center.
   18          1
                                   No pseudopotential on this center.
   19          1
                                   No pseudopotential on this center.
   20          6
                                   No pseudopotential on this center.
   21          1
                                   No pseudopotential on this center.
   22          1
                                   No pseudopotential on this center.
   23          6
                                   No pseudopotential on this center.
   24          6
                                   No pseudopotential on this center.
   25          1
                                   No pseudopotential on this center.
   26          1
                                   No pseudopotential on this center.
   27          1
                                   No pseudopotential on this center.
   28          1
                                   No pseudopotential on this center.
   29          1
                                   No pseudopotential on this center.
   30          6
                                   No pseudopotential on this center.
   31          6
                                   No pseudopotential on this center.
   32          1
                                   No pseudopotential on this center.
   33          1
                                   No pseudopotential on this center.
   34          1
                                   No pseudopotential on this center.
   35          1
                                   No pseudopotential on this center.
   36          1
                                   No pseudopotential on this center.
   37          6
                                   No pseudopotential on this center.
   38          6
                                   No pseudopotential on this center.
   39          1
                                   No pseudopotential on this center.
   40          1
                                   No pseudopotential on this center.
   41          1
                                   No pseudopotential on this center.
   42          1
                                   No pseudopotential on this center.
   43          1
                                   No pseudopotential on this center.
   44          6
                                   No pseudopotential on this center.
   45          6
                                   No pseudopotential on this center.
   46          1
                                   No pseudopotential on this center.
   47          1
                                   No pseudopotential on this center.
   48          1
                                   No pseudopotential on this center.
   49          1
                                   No pseudopotential on this center.
   50          1
                                   No pseudopotential on this center.
   51          6
                                   No pseudopotential on this center.
   52          6
                                   No pseudopotential on this center.
   53          6
                                   No pseudopotential on this center.
   54          6
                                   No pseudopotential on this center.
   55          1
                                   No pseudopotential on this center.
   56          6
                                   No pseudopotential on this center.
   57          1
                                   No pseudopotential on this center.
   58          6
                                   No pseudopotential on this center.
   59          1
                                   No pseudopotential on this center.
   60          1
                                   No pseudopotential on this center.
   61          1
                                   No pseudopotential on this center.
 ======================================================================================================
 There are   883 symmetry adapted cartesian basis functions of A   symmetry.
 There are   827 symmetry adapted basis functions of A   symmetry.
   827 basis functions,  1278 primitive gaussians,   883 cartesian basis functions
   102 alpha electrons      102 beta electrons
       nuclear repulsion energy      2853.7455914044 Hartrees.
 NAtoms=   61 NActive=   61 NUniq=   61 SFac= 1.00D+00 NAtFMM=   60 NAOKFM=T Big=T
 Integral buffers will be    131072 words long.
 Raffenetti 2 integral format.
 Two-electron integral symmetry is turned on.
 Nuclear repulsion after empirical dispersion term =     2853.7279973474 Hartrees.
 ------------------------------------------------------------------------------
 Polarizable Continuum Model (PCM)
 =================================
 Model                : PCM.
 Atomic radii         : UFF (Universal Force Field).
 Polarization charges : Total charges.
 Charge compensation  : None.
 Solution method      : On-the-fly selection.
 Cavity type          : Scaled VdW (van der Waals Surface) (Alpha=1.100).
 Cavity algorithm     : GePol (No added spheres)
                        Default sphere list used, NSphG=   61.
                        Lebedev-Laikov grids with approx.  5.0 points / Ang**2.
                        Smoothing algorithm: York/Karplus (Gamma=1.0000).
                        Polarization charges: spherical gaussians, with
                                              point-specific exponents (IZeta= 3).
                        Self-potential: point-specific (ISelfS= 7).
                        Self-field    : sphere-specific E.n sum rule (ISelfD= 2).
 1st derivatives      : Analytical E(r).r(x)/FMM algorithm (CHGder, D1EAlg=3).
                        Cavity 1st derivative terms included.
 Solvent              : TetraHydroFuran, Eps=   7.425700 Eps(inf)=   1.974025
 ------------------------------------------------------------------------------
 One-electron integrals computed using PRISM.
   1 Symmetry operations used in ECPInt.
 ECPInt:  NShTT=   46360 NPrTT=  151530 LenC2=   39904 LenP2D=   85921.
 LDataN:  DoStor=T MaxTD1= 7 Len=  274
 Number of processors reduced to  10 by ecpmxn.
 NBasis=   827 RedAO= T EigKep=  4.91D-05  NBF=   827
 NBsUse=   827 1.00D-06 EigRej= -1.00D+00 NBFU=   827
 Defaulting to unpruned grid for atomic number  78.
 ExpMin= 2.90D-02 ExpMax= 6.29D+03 ExpMxC= 9.49D+02 IAcc=3 IRadAn=         5 AccDes= 0.00D+00
 Harris functional with IExCor= 1009 and IRadAn=       5 diagonalized for initial guess.
 HarFok:  IExCor= 1009 AccDes= 0.00D+00 IRadAn=         5 IDoV= 1 UseB2=F ITyADJ=14
 ICtDFT=  3500011 ScaDFX=  1.000000  1.000000  1.000000  1.000000
 Defaulting to unpruned grid for atomic number  78.
 FoFCou: FMM=F IPFlag=           0 FMFlag=      100000 FMFlg1=        2001
         NFxFlg=           0 DoJE=T BraDBF=F KetDBF=T FulRan=T
         wScrn=  0.000000 ICntrl=       500 IOpCl=  0 I1Cent=   200000004 NGrid=           0
         NMat0=    1 NMatS0=      1 NMatT0=    0 NMatD0=    1 NMtDS0=    0 NMtDT0=    0
 Petite list used in FoFCou.
 Requested convergence on RMS density matrix=1.00D-08 within 128 cycles.
 Requested convergence on MAX density matrix=1.00D-06.
 Requested convergence on             energy=1.00D-06.
 No special actions if energy rises.
 Defaulting to unpruned grid for atomic number  78.
 Defaulting to unpruned grid for atomic number  78.
 Defaulting to unpruned grid for atomic number  78.
 Defaulting to unpruned grid for atomic number  78.
 Defaulting to unpruned grid for atomic number  78.
 Defaulting to unpruned grid for atomic number  78.
 Defaulting to unpruned grid for atomic number  78.
 Defaulting to unpruned grid for atomic number  78.
 Defaulting to unpruned grid for atomic number  78.
 Defaulting to unpruned grid for atomic number  78.
 Defaulting to unpruned grid for atomic number  78.
 Defaulting to unpruned grid for atomic number  78.
 Inv3:  Mode=1 IEnd=    37509888.
 Iteration    1 A*A^-1 deviation from unit magnitude is 3.11D-15 for     33.
 Iteration    1 A*A^-1 deviation from orthogonality  is 2.89D-15 for   2444   1081.
 Iteration    1 A^-1*A deviation from unit magnitude is 3.11D-15 for     33.
 Iteration    1 A^-1*A deviation from orthogonality  is 1.89D-15 for   2507    786.
 Error on total polarization charges =  0.02154
 SCF Done:  E(RM06) =  -1125.46140145     A.U. after   16 cycles
            NFock= 16  Conv=0.46D-08     -V/T= 2.0834

 **********************************************************************

            Population analysis using the SCF Density.

 **********************************************************************

 Orbital symmetries:
       Occupied  (A) (A) (A) (A) (A) (A) (A) (A) (A) (A) (A) (A)
                 (A) (A) (A) (A) (A) (A) (A) (A) (A) (A) (A) (A)
                 (A) (A) (A) (A) (A) (A) (A) (A) (A) (A) (A) (A)
                 (A) (A) (A) (A) (A) (A) (A) (A) (A) (A) (A) (A)
                 (A) (A) (A) (A) (A) (A) (A) (A) (A) (A) (A) (A)
                 (A) (A) (A) (A) (A) (A) (A) (A) (A) (A) (A) (A)
                 (A) (A) (A) (A) (A) (A) (A) (A) (A) (A) (A) (A)
                 (A) (A) (A) (A) (A) (A) (A) (A) (A) (A) (A) (A)
                 (A) (A) (A) (A) (A) (A)
       Virtual   (A) (A) (A) (A) (A) (A) (A) (A) (A) (A) (A) (A)
                 (A) (A) (A) (A) (A) (A) (A) (A) (A) (A) (A) (A)
                 (A) (A) (A) (A) (A) (A) (A) (A) (A) (A) (A) (A)
                 (A) (A) (A) (A) (A) (A) (A) (A) (A) (A) (A) (A)
                 (A) (A) (A) (A) (A) (A) (A) (A) (A) (A) (A) (A)
                 (A) (A) (A) (A) (A) (A) (A) (A) (A) (A) (A) (A)
                 (A) (A) (A) (A) (A) (A) (A) (A) (A) (A) (A) (A)
                 (A) (A) (A) (A) (A) (A) (A) (A) (A) (A) (A) (A)
                 (A) (A) (A) (A) (A) (A) (A) (A) (A) (A) (A) (A)
                 (A) (A) (A) (A) (A) (A) (A) (A) (A) (A) (A) (A)
                 (A) (A) (A) (A) (A) (A) (A) (A) (A) (A) (A) (A)
                 (A) (A) (A) (A) (A) (A) (A) (A) (A) (A) (A) (A)
                 (A) (A) (A) (A) (A) (A) (A) (A) (A) (A) (A) (A)
                 (A) (A) (A) (A) (A) (A) (A) (A) (A) (A) (A) (A)
                 (A) (A) (A) (A) (A) (A) (A) (A) (A) (A) (A) (A)
                 (A) (A) (A) (A) (A) (A) (A) (A) (A) (A) (A) (A)
                 (A) (A) (A) (A) (A) (A) (A) (A) (A) (A) (A) (A)
                 (A) (A) (A) (A) (A) (A) (A) (A) (A) (A) (A) (A)
                 (A) (A) (A) (A) (A) (A) (A) (A) (A) (A) (A) (A)
                 (A) (A) (A) (A) (A) (A) (A) (A) (A) (A) (A) (A)
                 (A) (A) (A) (A) (A) (A) (A) (A) (A) (A) (A) (A)
                 (A) (A) (A) (A) (A) (A) (A) (A) (A) (A) (A) (A)
                 (A) (A) (A) (A) (A) (A) (A) (A) (A) (A) (A) (A)
                 (A) (A) (A) (A) (A) (A) (A) (A) (A) (A) (A) (A)
                 (A) (A) (A) (A) (A) (A) (A) (A) (A) (A) (A) (A)
                 (A) (A) (A) (A) (A) (A) (A) (A) (A) (A) (A) (A)
                 (A) (A) (A) (A) (A) (A) (A) (A) (A) (A) (A) (A)
                 (A) (A) (A) (A) (A) (A) (A) (A) (A) (A) (A) (A)
                 (A) (A) (A) (A) (A) (A) (A) (A) (A) (A) (A) (A)
                 (A) (A) (A) (A) (A) (A) (A) (A) (A) (A) (A) (A)
                 (A) (A) (A) (A) (A) (A) (A) (A) (A) (A) (A) (A)
                 (A) (A) (A) (A) (A) (A) (A) (A) (A) (A) (A) (A)
                 (A) (A) (A) (A) (A) (A) (A) (A) (A) (A) (A) (A)
                 (A) (A) (A) (A) (A) (A) (A) (A) (A) (A) (A) (A)
                 (A) (A) (A) (A) (A) (A) (A) (A) (A) (A) (A) (A)
                 (A) (A) (A) (A) (A) (A) (A) (A) (A) (A) (A) (A)
                 (A) (A) (A) (A) (A) (A) (A) (A) (A) (A) (A) (A)
                 (A) (A) (A) (A) (A) (A) (A) (A) (A) (A) (A) (A)
                 (A) (A) (A) (A) (A) (A) (A) (A) (A) (A) (A) (A)
                 (A) (A) (A) (A) (A) (A) (A) (A) (A) (A) (A) (A)
                 (A) (A) (A) (A) (A) (A) (A) (A) (A) (A) (A) (A)
                 (A) (A) (A) (A) (A) (A) (A) (A) (A) (A) (A) (A)
                 (A) (A) (A) (A) (A) (A) (A) (A) (A) (A) (A) (A)
                 (A) (A) (A) (A) (A) (A) (A) (A) (A) (A) (A) (A)
                 (A) (A) (A) (A) (A) (A) (A) (A) (A) (A) (A) (A)
                 (A) (A) (A) (A) (A) (A) (A) (A) (A) (A) (A) (A)
                 (A) (A) (A) (A) (A) (A) (A) (A) (A) (A) (A) (A)
                 (A) (A) (A) (A) (A) (A) (A) (A) (A) (A) (A) (A)
                 (A) (A) (A) (A) (A) (A) (A) (A) (A) (A) (A) (A)
                 (A) (A) (A) (A) (A) (A) (A) (A) (A) (A) (A) (A)
                 (A) (A) (A) (A) (A) (A) (A) (A) (A) (A) (A) (A)
                 (A) (A) (A) (A) (A) (A) (A) (A) (A) (A) (A) (A)
                 (A) (A) (A) (A) (A) (A) (A) (A) (A) (A) (A) (A)
                 (A) (A) (A) (A) (A) (A) (A) (A) (A) (A) (A) (A)
                 (A) (A) (A) (A) (A) (A) (A) (A) (A) (A) (A) (A)
                 (A) (A) (A) (A) (A) (A) (A) (A) (A) (A) (A) (A)
                 (A) (A) (A) (A) (A) (A) (A) (A) (A) (A) (A) (A)
                 (A) (A) (A) (A) (A) (A) (A) (A) (A) (A) (A) (A)
                 (A) (A) (A) (A) (A) (A) (A) (A) (A) (A) (A) (A)
                 (A) (A) (A) (A) (A) (A) (A) (A) (A) (A) (A) (A)
                 (A) (A) (A) (A) (A)
 The electronic state is 1-A.
 Alpha  occ. eigenvalues --  -14.50096 -14.49846 -10.31775 -10.31322 -10.31319
 Alpha  occ. eigenvalues --  -10.31081 -10.30541 -10.30529 -10.29728 -10.27395
 Alpha  occ. eigenvalues --  -10.27367 -10.26491 -10.26463 -10.26204 -10.26024
 Alpha  occ. eigenvalues --  -10.25797 -10.25492 -10.25316 -10.25063 -10.24730
 Alpha  occ. eigenvalues --  -10.24644 -10.24556 -10.24345 -10.24258 -10.23741
 Alpha  occ. eigenvalues --   -3.98998  -2.21971  -2.21788  -2.21017  -1.00108
 Alpha  occ. eigenvalues --   -0.99556  -0.89451  -0.86417  -0.82767  -0.81427
 Alpha  occ. eigenvalues --   -0.81057  -0.80561  -0.77478  -0.77054  -0.75976
 Alpha  occ. eigenvalues --   -0.75556  -0.73975  -0.72996  -0.72555  -0.67966
 Alpha  occ. eigenvalues --   -0.67772  -0.64297  -0.63855  -0.61768  -0.61231
 Alpha  occ. eigenvalues --   -0.60973  -0.60631  -0.56117  -0.55456  -0.54335
 Alpha  occ. eigenvalues --   -0.53734  -0.53352  -0.52998  -0.51335  -0.50881
 Alpha  occ. eigenvalues --   -0.49809  -0.48185  -0.47969  -0.47334  -0.46918
 Alpha  occ. eigenvalues --   -0.46586  -0.46379  -0.46113  -0.46014  -0.45867
 Alpha  occ. eigenvalues --   -0.44946  -0.44617  -0.44203  -0.43958  -0.43910
 Alpha  occ. eigenvalues --   -0.43679  -0.43263  -0.42993  -0.42571  -0.41777
 Alpha  occ. eigenvalues --   -0.40819  -0.40784  -0.40218  -0.39679  -0.39517
 Alpha  occ. eigenvalues --   -0.39016  -0.38813  -0.38610  -0.38110  -0.37949
 Alpha  occ. eigenvalues --   -0.37425  -0.36750  -0.36291  -0.35804  -0.33975
 Alpha  occ. eigenvalues --   -0.33628  -0.31443  -0.28259  -0.27193  -0.27006
 Alpha  occ. eigenvalues --   -0.26270  -0.25767
 Alpha virt. eigenvalues --   -0.11860  -0.06310  -0.03748  -0.02988  -0.02099
 Alpha virt. eigenvalues --   -0.01901  -0.01759  -0.00476  -0.00057   0.01208
 Alpha virt. eigenvalues --    0.03388   0.04273   0.04462   0.04916   0.05088
 Alpha virt. eigenvalues --    0.05731   0.06018   0.06184   0.06562   0.06918
 Alpha virt. eigenvalues --    0.07079   0.07223   0.07579   0.07754   0.08352
 Alpha virt. eigenvalues --    0.08855   0.09259   0.09389   0.09672   0.10041
 Alpha virt. eigenvalues --    0.10069   0.10250   0.10973   0.11220   0.11553
 Alpha virt. eigenvalues --    0.11849   0.11958   0.12506   0.13084   0.13198
 Alpha virt. eigenvalues --    0.13889   0.14040   0.14145   0.14524   0.15106
 Alpha virt. eigenvalues --    0.15285   0.15613   0.15869   0.16472   0.16626
 Alpha virt. eigenvalues --    0.17230   0.18041   0.18443   0.19212   0.19427
 Alpha virt. eigenvalues --    0.20496   0.21531   0.22131   0.22639   0.23004
 Alpha virt. eigenvalues --    0.23498   0.24213   0.24476   0.24980   0.25760
 Alpha virt. eigenvalues --    0.26041   0.26493   0.26728   0.26926   0.27428
 Alpha virt. eigenvalues --    0.27759   0.28121   0.29025   0.29098   0.29567
 Alpha virt. eigenvalues --    0.30230   0.30573   0.30880   0.31633   0.32177
 Alpha virt. eigenvalues --    0.32526   0.32763   0.33366   0.33962   0.34614
 Alpha virt. eigenvalues --    0.34784   0.35413   0.36079   0.36723   0.37137
 Alpha virt. eigenvalues --    0.37310   0.37553   0.37897   0.37968   0.38254
 Alpha virt. eigenvalues --    0.39006   0.39267   0.39780   0.40284   0.40771
 Alpha virt. eigenvalues --    0.41335   0.41506   0.41699   0.41958   0.42371
 Alpha virt. eigenvalues --    0.42589   0.42914   0.43722   0.44060   0.44159
 Alpha virt. eigenvalues --    0.45113   0.45396   0.45745   0.46281   0.47144
 Alpha virt. eigenvalues --    0.47232   0.47651   0.47803   0.48093   0.48641
 Alpha virt. eigenvalues --    0.49415   0.49827   0.50043   0.50717   0.50892
 Alpha virt. eigenvalues --    0.50973   0.51280   0.51513   0.51754   0.52030
 Alpha virt. eigenvalues --    0.52062   0.52469   0.52712   0.52920   0.53145
 Alpha virt. eigenvalues --    0.53514   0.53711   0.53907   0.54240   0.54342
 Alpha virt. eigenvalues --    0.54765   0.54941   0.55396   0.55594   0.55866
 Alpha virt. eigenvalues --    0.56156   0.56477   0.56871   0.56972   0.57134
 Alpha virt. eigenvalues --    0.57594   0.57925   0.58087   0.58520   0.58811
 Alpha virt. eigenvalues --    0.59656   0.60037   0.60138   0.60638   0.60852
 Alpha virt. eigenvalues --    0.61135   0.62225   0.62543   0.63076   0.63204
 Alpha virt. eigenvalues --    0.63673   0.64474   0.64825   0.65140   0.65733
 Alpha virt. eigenvalues --    0.65820   0.66281   0.66890   0.67381   0.67731
 Alpha virt. eigenvalues --    0.67852   0.68342   0.68544   0.69222   0.69717
 Alpha virt. eigenvalues --    0.70486   0.71272   0.71922   0.72219   0.72929
 Alpha virt. eigenvalues --    0.73053   0.73545   0.74437   0.74690   0.75107
 Alpha virt. eigenvalues --    0.75503   0.75691   0.76553   0.76760   0.77251
 Alpha virt. eigenvalues --    0.77364   0.78349   0.79294   0.79492   0.79906
 Alpha virt. eigenvalues --    0.80521   0.80629   0.81014   0.81661   0.82551
 Alpha virt. eigenvalues --    0.83470   0.84530   0.84886   0.85099   0.85490
 Alpha virt. eigenvalues --    0.86552   0.86871   0.87684   0.88058   0.88615
 Alpha virt. eigenvalues --    0.90018   0.90933   0.91805   0.91869   0.92357
 Alpha virt. eigenvalues --    0.92836   0.93219   0.93894   0.94472   0.94585
 Alpha virt. eigenvalues --    0.95967   0.97051   0.97367   0.97469   0.97958
 Alpha virt. eigenvalues --    0.98937   0.99525   1.00501   1.01030   1.02487
 Alpha virt. eigenvalues --    1.02785   1.02928   1.03795   1.04451   1.04590
 Alpha virt. eigenvalues --    1.04781   1.06427   1.06633   1.07262   1.07383
 Alpha virt. eigenvalues --    1.07588   1.08857   1.09054   1.09354   1.10657
 Alpha virt. eigenvalues --    1.10858   1.11069   1.11663   1.11881   1.12338
 Alpha virt. eigenvalues --    1.12916   1.13262   1.13887   1.14470   1.14873
 Alpha virt. eigenvalues --    1.15403   1.16126   1.17654   1.18183   1.18429
 Alpha virt. eigenvalues --    1.18754   1.19397   1.19587   1.20561   1.21157
 Alpha virt. eigenvalues --    1.21456   1.21804   1.22302   1.23331   1.23986
 Alpha virt. eigenvalues --    1.24274   1.24700   1.25093   1.25503   1.25758
 Alpha virt. eigenvalues --    1.26089   1.26354   1.27065   1.27699   1.28008
 Alpha virt. eigenvalues --    1.28675   1.29051   1.30021   1.30216   1.30691
 Alpha virt. eigenvalues --    1.31213   1.32343   1.32449   1.32988   1.34077
 Alpha virt. eigenvalues --    1.34985   1.35860   1.36619   1.37367   1.37993
 Alpha virt. eigenvalues --    1.38535   1.39655   1.40479   1.40866   1.41414
 Alpha virt. eigenvalues --    1.42526   1.43724   1.44087   1.44401   1.46017
 Alpha virt. eigenvalues --    1.46366   1.46779   1.47103   1.48153   1.49125
 Alpha virt. eigenvalues --    1.49665   1.50125   1.50446   1.50851   1.51735
 Alpha virt. eigenvalues --    1.52294   1.52744   1.53902   1.54577   1.55062
 Alpha virt. eigenvalues --    1.56365   1.57215   1.57772   1.58947   1.59965
 Alpha virt. eigenvalues --    1.60136   1.61542   1.62395   1.63012   1.63437
 Alpha virt. eigenvalues --    1.64404   1.65156   1.66198   1.67807   1.68291
 Alpha virt. eigenvalues --    1.68783   1.69012   1.69622   1.69914   1.71051
 Alpha virt. eigenvalues --    1.71356   1.71454   1.72376   1.72695   1.73779
 Alpha virt. eigenvalues --    1.74342   1.74998   1.75418   1.76335   1.77378
 Alpha virt. eigenvalues --    1.77931   1.79273   1.80761   1.81142   1.82336
 Alpha virt. eigenvalues --    1.83040   1.83246   1.84503   1.85684   1.86405
 Alpha virt. eigenvalues --    1.86953   1.87482   1.87978   1.89478   1.90481
 Alpha virt. eigenvalues --    1.92572   1.93919   1.94070   1.95882   1.96273
 Alpha virt. eigenvalues --    1.96862   1.97124   1.99398   2.00215   2.02257
 Alpha virt. eigenvalues --    2.02614   2.03158   2.04468   2.05178   2.05761
 Alpha virt. eigenvalues --    2.06140   2.07068   2.07789   2.08224   2.08891
 Alpha virt. eigenvalues --    2.09470   2.10025   2.10068   2.10630   2.11082
 Alpha virt. eigenvalues --    2.11982   2.12587   2.12739   2.13582   2.14047
 Alpha virt. eigenvalues --    2.14461   2.14716   2.15219   2.16526   2.16864
 Alpha virt. eigenvalues --    2.16934   2.17603   2.17738   2.18208   2.19521
 Alpha virt. eigenvalues --    2.20170   2.20900   2.21549   2.22148   2.22720
 Alpha virt. eigenvalues --    2.23196   2.24793   2.25242   2.25646   2.26861
 Alpha virt. eigenvalues --    2.27425   2.27780   2.28963   2.29753   2.31484
 Alpha virt. eigenvalues --    2.32424   2.33258   2.33383   2.34845   2.36216
 Alpha virt. eigenvalues --    2.37244   2.37570   2.38239   2.39130   2.39376
 Alpha virt. eigenvalues --    2.39758   2.40695   2.41016   2.41497   2.42722
 Alpha virt. eigenvalues --    2.43468   2.44588   2.44867   2.45864   2.46746
 Alpha virt. eigenvalues --    2.47328   2.47503   2.48329   2.50056   2.50848
 Alpha virt. eigenvalues --    2.52299   2.52813   2.53308   2.53377   2.54305
 Alpha virt. eigenvalues --    2.55170   2.55985   2.56391   2.57662   2.58358
 Alpha virt. eigenvalues --    2.59213   2.59774   2.59953   2.60474   2.60814
 Alpha virt. eigenvalues --    2.61239   2.61315   2.62259   2.62654   2.62893
 Alpha virt. eigenvalues --    2.64200   2.65810   2.67030   2.68574   2.68885
 Alpha virt. eigenvalues --    2.69966   2.70581   2.70993   2.71745   2.73015
 Alpha virt. eigenvalues --    2.73677   2.74395   2.75319   2.76670   2.77302
 Alpha virt. eigenvalues --    2.78598   2.78807   2.80125   2.80548   2.81212
 Alpha virt. eigenvalues --    2.81634   2.82956   2.83288   2.84756   2.85296
 Alpha virt. eigenvalues --    2.85442   2.87260   2.87969   2.88506   2.89169
 Alpha virt. eigenvalues --    2.91696   2.93968   2.94212   2.98750   2.99470
 Alpha virt. eigenvalues --    2.99865   3.02317   3.05599   3.06215   3.07048
 Alpha virt. eigenvalues --    3.07784   3.08638   3.08830   3.09260   3.10636
 Alpha virt. eigenvalues --    3.11687   3.12256   3.13425   3.13942   3.14961
 Alpha virt. eigenvalues --    3.16073   3.16282   3.17055   3.17589   3.18269
 Alpha virt. eigenvalues --    3.18695   3.18808   3.19496   3.19761   3.20818
 Alpha virt. eigenvalues --    3.21157   3.21697   3.22109   3.22741   3.23364
 Alpha virt. eigenvalues --    3.24365   3.24756   3.25650   3.26402   3.27208
 Alpha virt. eigenvalues --    3.28366   3.29152   3.29651   3.30538   3.30888
 Alpha virt. eigenvalues --    3.31471   3.32251   3.33260   3.33809   3.34491
 Alpha virt. eigenvalues --    3.34732   3.34975   3.35422   3.35820   3.36586
 Alpha virt. eigenvalues --    3.37727   3.38400   3.38726   3.39168   3.40241
 Alpha virt. eigenvalues --    3.40557   3.41370   3.41735   3.43171   3.43543
 Alpha virt. eigenvalues --    3.44488   3.44745   3.45261   3.45574   3.46311
 Alpha virt. eigenvalues --    3.46487   3.47214   3.47403   3.47838   3.48322
 Alpha virt. eigenvalues --    3.49040   3.49316   3.49893   3.50250   3.50700
 Alpha virt. eigenvalues --    3.51202   3.51679   3.52186   3.53154   3.53621
 Alpha virt. eigenvalues --    3.54089   3.54928   3.55337   3.55451   3.56416
 Alpha virt. eigenvalues --    3.56816   3.57360   3.58232   3.58509   3.59438
 Alpha virt. eigenvalues --    3.59596   3.60322   3.61037   3.61436   3.62522
 Alpha virt. eigenvalues --    3.62993   3.63961   3.64534   3.65324   3.65684
 Alpha virt. eigenvalues --    3.66809   3.67271   3.68283   3.68776   3.69354
 Alpha virt. eigenvalues --    3.69658   3.70248   3.70882   3.71343   3.72931
 Alpha virt. eigenvalues --    3.73993   3.74628   3.74995   3.76224   3.77488
 Alpha virt. eigenvalues --    3.78666   3.79016   3.80057   3.80721   3.81874
 Alpha virt. eigenvalues --    3.82035   3.83222   3.84177   3.84576   3.85630
 Alpha virt. eigenvalues --    3.86607   3.87736   3.88219   3.89329   3.89541
 Alpha virt. eigenvalues --    3.90776   3.91404   3.92803   3.93181   3.93528
 Alpha virt. eigenvalues --    3.99714   4.01986   4.03601   4.05927   4.06880
 Alpha virt. eigenvalues --    4.08811   4.08925   4.09279   4.09903   4.10208
 Alpha virt. eigenvalues --    4.10829   4.11970   4.12337   4.13097   4.14034
 Alpha virt. eigenvalues --    4.14623   4.15463   4.16028   4.16905   4.17339
 Alpha virt. eigenvalues --    4.17965   4.19663   4.24170   4.29197   4.36110
 Alpha virt. eigenvalues --    4.36296   4.38212   4.39182   4.43727   4.45802
 Alpha virt. eigenvalues --    4.47068   4.47465   4.51620   4.53888   4.60578
 Alpha virt. eigenvalues --    4.64612   4.72656   4.73980   4.74883   4.75788
 Alpha virt. eigenvalues --    4.76627   4.76879   4.84321   4.88763   5.20399
 Alpha virt. eigenvalues --    5.22746   5.25637   5.27416   5.29047   5.29626
 Alpha virt. eigenvalues --    5.38150   5.42523   5.47584   5.48982   5.53522
 Alpha virt. eigenvalues --    5.58509  13.41806  13.60568  13.66032  23.57373
 Alpha virt. eigenvalues --   23.64260  23.79685  23.80150  23.87131  23.88842
 Alpha virt. eigenvalues --   23.90156  23.91538  23.92623  23.93142  23.93684
 Alpha virt. eigenvalues --   23.95001  23.96146  23.96324  23.97891  23.98616
 Alpha virt. eigenvalues --   23.99963  24.00546  24.04614  24.06349  24.09117
 Alpha virt. eigenvalues --   24.11818  24.25050  35.46349  35.51708  39.13873
          Condensed to atoms (all electrons):
 Mulliken charges:
               1
     1  Pt   1.112698
     2  C   -0.409648
     3  C    0.072446
     4  C    0.075377
     5  C   -0.171142
     6  C   -0.174083
     7  C   -0.060598
     8  H    0.091301
     9  H    0.093386
    10  H    0.090418
    11  N   -0.653886
    12  N   -0.644263
    13  C   -0.430317
    14  H    0.149757
    15  H    0.167549
    16  H    0.165025
    17  C   -0.068629
    18  H    0.172027
    19  H    0.153580
    20  C   -0.057883
    21  H    0.168147
    22  H    0.158495
    23  C   -0.089880
    24  C   -0.290170
    25  H    0.169298
    26  H    0.153192
    27  H    0.139348
    28  H    0.123135
    29  H    0.123079
    30  C   -0.046224
    31  C   -0.296289
    32  H    0.166113
    33  H    0.167473
    34  H    0.142987
    35  H    0.127488
    36  H    0.124895
    37  C   -0.080276
    38  C   -0.293825
    39  H    0.168381
    40  H    0.169591
    41  H    0.142581
    42  H    0.128384
    43  H    0.123696
    44  C   -0.071699
    45  C   -0.284855
    46  H    0.142548
    47  H    0.163252
    48  H    0.137887
    49  H    0.119311
    50  H    0.118666
    51  C   -0.144115
    52  C   -0.185087
    53  C   -0.165212
    54  C   -0.105707
    55  H    0.075838
    56  C   -0.115005
    57  H    0.083804
    58  C   -0.068444
    59  H    0.075482
    60  H    0.075419
    61  H    0.075177
 Sum of Mulliken charges =   1.00000
 Mulliken charges with hydrogens summed into heavy atoms:
               1
     1  Pt   1.112698
     2  C   -0.409648
     3  C    0.072446
     4  C    0.075377
     5  C   -0.079841
     6  C   -0.080697
     7  C    0.029821
    11  N   -0.653886
    12  N   -0.644263
    13  C    0.052015
    17  C    0.256978
    20  C    0.268759
    23  C    0.232610
    24  C    0.095393
    30  C    0.287362
    31  C    0.099082
    37  C    0.257695
    38  C    0.100836
    44  C    0.234101
    45  C    0.091010
    51  C   -0.144115
    52  C   -0.109249
    53  C   -0.081407
    54  C   -0.030225
    56  C   -0.039586
    58  C    0.006733
 Electronic spatial extent (au):  <R**2>=           9250.4712
 Charge=              1.0000 electrons
 Dipole moment (field-independent basis, Debye):
    X=             -3.5863    Y=              0.1920    Z=              0.4960  Tot=              3.6255
 Quadrupole moment (field-independent basis, Debye-Ang):
   XX=           -161.5760   YY=           -127.2191   ZZ=           -157.9387
   XY=              5.8475   XZ=             -1.1243   YZ=             -0.2231
 Traceless Quadrupole moment (field-independent basis, Debye-Ang):
   XX=            -12.6647   YY=             21.6922   ZZ=             -9.0274
   XY=              5.8475   XZ=             -1.1243   YZ=             -0.2231
 Octapole moment (field-independent basis, Debye-Ang**2):
  XXX=            -42.9785  YYY=              5.4227  ZZZ=            -17.0446  XYY=            -30.8366
  XXY=             -1.7471  XXZ=             -8.4625  XZZ=             18.1763  YZZ=             -4.8161
  YYZ=             -4.1187  XYZ=             -4.0107
 Hexadecapole moment (field-independent basis, Debye-Ang**3):
 XXXX=          -5523.8347 YYYY=          -4472.2362 ZZZZ=          -1394.7860 XXXY=            -12.7307
 XXXZ=            -26.4385 YYYX=             71.5311 YYYZ=             22.4783 ZZZX=             -3.7424
[...]
 0.00000674,0.00001886,-0.00000424,-0.00000642,0.00000413,0.00000117,-0
 .00000232,0.00000556,0.00000155,-0.00524017,0.00163004,-0.00148069,-0.
 01452020,-0.00319784,0.02470824,-0.00067018,0.00022616,-0.00107517,-0.
 17005517,-0.01309930,0.13253694,0.00127444,-0.00050352,-0.00017683,0.0
 0080588,0.00115010,-0.00231951,0.00003261,-0.00018156,0.00012488,0.009
 75576,0.00113914,-0.00886191,0.17766897,0.00002010,0.00003826,-0.00006
 373,0.00005296,0.00002271,0.00001784,0.00000866,-0.00000096,-0.0000061
 3,0.00001740,-0.00001677,-0.00000369,0.00000038,-0.00000611,-0.0000033
 7,0.00000110,0.00000851,-0.00000101,-0.00000105,-0.00000088,0.00000082
 ,0.00000178,-0.00000039,-0.00000094,0.00000224,-0.00000144,0.00000023,
 0.00000033,-0.00000022,0.00000035,-0.00001280,-0.00004185,0.00000363,-
 0.00000230,-0.00003041,-0.00003043,-0.00003570,-0.00003134,-0.00008559
 ,-0.00000554,0.00000169,0.00000408,-0.00002042,0.00001951,-0.00000498,
 -0.00003267,0.00005159,0.00002838,0.00000988,-0.00000152,0.00000754,-0
 .00000208,-0.00000068,0.00000348,0.00000061,-0.00000204,-0.00000033,0.
 00000338,0.00000107,-0.00000701,-0.00000050,0.00000027,-0.00000176,-0.
 00000058,0.00000083,0.00000181,-0.00001697,-0.00000458,0.00001366,0.00
 000262,0.00000024,0.00000128,0.00000011,0.00000536,0.00000852,-0.00000
 193,0.00000344,-0.00000205,-0.00000134,-0.00000526,-0.00000217,-0.0000
 0119,0.00000008,0.00000030,0.00000238,-0.00000077,0.00000012,-0.000000
 13,0.00000899,-0.00000780,0.00000839,-0.00000414,0.00000214,-0.0000023
 1,-0.00000332,-0.00000213,0.00001265,0.00000966,0.00001026,-0.00000083
 ,-0.00000011,0.00000021,0.00000127,0.00000074,-0.00000099,-0.00000141,
 -0.00000142,0.00000036,0.00001240,0.00000690,0.00005953,-0.00001548,0.
 00000732,-0.00001006,-0.00003329,0.00003407,-0.00001952,0.00000026,-0.
 00000134,0.00000105,-0.00000029,-0.00000188,-0.00000065,-0.00000003,-0
 .00000268,-0.00000054,-0.00000046,0.00000560,0.00000179,0.00001915,-0.
 00002915,0.00001959,-0.00000101,0.00000241,-0.00000762,0.00000577,-0.0
 0000582,-0.00001008,0.00000170,-0.00000044,-0.00000872,-0.00000058,-0.
 00000706,0.00000398,-0.00000218,0.00000106,-0.00000072,0.00000069,-0.0
 0000305,0.00000146,0.00155233,0.00677389,0.00112859,0.00274019,0.00381
 243,-0.00308678,0.00027198,-0.00075000,0.00007019,-0.01288204,-0.03967
 639,0.02194844,-0.00062412,-0.00370072,-0.00093488,0.00126052,0.006833
 92,0.00250241,-0.00017545,-0.00139885,-0.00028622,-0.00493191,0.002797
 36,0.00481251,0.01346319,0.02878260,-0.00027742,0.00002450,0.00003985,
 -0.00002044,0.00001510,-0.00005086,0.00003707,0.00000647,-0.00000051,0
 .00003561,-0.00001876,0.00000090,0.00000741,-0.00000557,0.00000761,0.0
 0000480,0.00000610,0.00000666,0.00001687,-0.00000583,-0.00000245,0.000
 00859,-0.00000853,-0.00000227,0.00001143,0.00000599,-0.00000168,0.0000
 0109,-0.00000008,-0.00000111,-0.00000672,0.00000404,0.00001085,-0.0000
 0596,-0.00000973,0.00000276,-0.00003820,0.00003719,-0.00002875,-0.0000
 0200,-0.00000660,0.00000074,0.00001904,-0.00000232,-0.00000663,-0.0000
 1852,-0.00001823,-0.00001947,-0.00001115,0.00000726,-0.00001187,-0.000
 00291,0.00000101,0.00000432,0.00000544,-0.00000896,-0.00000065,-0.0000
 1385,-0.00000442,-0.00001729,-0.00000222,-0.00000141,0.00000387,0.0000
 0627,0.00000660,0.00000008,-0.00000408,-0.00000412,-0.00002291,0.00000
 698,-0.00000199,0.00000399,0.00000282,-0.00003158,-0.00000056,-0.00000
 062,-0.00000440,-0.00000004,-0.00000124,0.00000384,0.00000096,0.000000
 63,0.00000007,-0.00000189,0.00000534,0.00000665,-0.00000093,-0.0000057
 2,0.00000729,0.00001145,0.00000179,-0.00000327,0.00000318,-0.00000790,
 0.00000119,0.00001121,-0.00000149,-0.00002087,0.00000341,-0.00000088,0
 .00000085,-0.00000141,0.00000623,0.00000254,-0.00000034,0.00000205,0.0
 0000356,-0.00000013,-0.00001149,0.00000805,0.00002496,0.00000425,0.000
 00577,-0.00000204,-0.00001310,0.00002310,0.00000697,0.00000087,0.00000
 185,0.00000230,-0.00000219,-0.00000106,-0.00000283,-0.00000180,-0.0000
 0150,-0.00000031,0.00000152,-0.00000558,0.00000085,0.00001441,-0.00000
 680,-0.00001334,0.00000626,0.00000237,-0.00000341,-0.00000889,0.000011
 20,-0.00000976,0.00001218,0.00001992,0.00001111,-0.00000157,-0.0000064
 1,0.00000354,0.00000278,-0.00000616,0.00000144,0.00000185,-0.00000605,
 -0.00000097,-0.00107492,0.00123348,0.00174659,-0.00503472,-0.00011532,
 0.00658651,-0.00080562,-0.00002628,-0.00013313,0.13206661,0.02187108,-
 0.21099723,0.00035985,-0.00094110,0.00044648,-0.00305727,0.00255408,-0
 .00355179,0.00011815,-0.00029663,-0.00006501,0.02084390,0.00186423,-0.
 01645042,-0.14398026,-0.02526322,0.22227012,0.00095837,0.00000651,-0.0
 0070218,-0.00038154,0.00000736,0.00033448,-0.00020594,-0.00010328,0.00
 001562,-0.00018096,0.00015915,0.00002165,0.00000591,0.00007116,-0.0000
 3486,-0.00001616,-0.00007323,-0.00003871,-0.00003504,0.00000494,0.0000
 1158,-0.00003667,0.00001599,0.00000348,-0.00004086,-0.00000561,0.00000
 476,-0.00001096,0.00000161,0.00000603,0.00007093,0.00001148,0.00000493
 ,0.00005520,-0.00004419,0.00000275,0.00022463,-0.00004888,0.00011672,0
 .00000109,0.00000928,-0.00001252,-0.00001948,-0.00000481,0.00001464,0.
 00000749,0.00001634,-0.00008420,-0.00000043,-0.00000327,0.00004360,0.0
 0001566,-0.00000252,-0.00000226,-0.00000259,0.00002527,-0.00000287,-0.
 00000333,0.00000292,0.00004368,0.00001590,-0.00000277,-0.00000353,-0.0
 0000885,-0.00002250,-0.00000452,-0.00003268,-0.00000251,0.00004673,0.0
 0000414,-0.00000110,-0.00002148,0.00000348,0.00002609,-0.00000645,0.00
 000598,0.00000803,0.00000581,0.00000103,-0.00001116,-0.00000222,-0.000
 00323,-0.00000609,0.00000778,-0.00000425,-0.00000397,0.00000387,-0.000
 02206,0.00000184,-0.00007544,0.00001155,-0.00000030,0.00001082,0.00000
 182,0.00003052,-0.00003654,0.00001072,-0.00000294,-0.00001003,-0.00000
 855,-0.00000966,0.00001246,0.00000138,-0.00000140,-0.00000394,-0.00000
 427,-0.00000084,-0.00000007,-0.00001864,0.00001000,-0.00005504,0.00000
 397,-0.00001237,0.00001399,0.00001787,-0.00001299,-0.00001753,-0.00000
 374,-0.00000840,-0.00001328,-0.00000235,0.00001106,0.00000980,0.000000
 93,0.00000724,-0.00000342,0.00000241,0.00000097,-0.00000091,-0.0000379
 3,0.00000757,0.00002507,0.00001037,0.00000152,-0.00000246,0.00000537,-
 0.00001148,0.00001038,-0.00000399,-0.00000820,-0.00001223,0.00000369,0
 .00000874,-0.00000336,-0.00000400,0.00000328,0.00000126,-0.00000333,0.
 00000839,0.00000208,-0.00527139,0.00143263,-0.00084014,-0.00126369,-0.
 00005877,0.00069419,-0.00470979,0.00657431,-0.02882897,-0.00190626,0.0
 0028997,0.00347696,0.00009967,-0.00014381,-0.00014887,-0.08399334,0.02
 054799,-0.07843551,0.00131339,-0.00062219,0.00030344,0.01035274,-0.004
 59841,0.01942398,0.00026744,-0.00021845,0.00100979,0.08389722,-0.00026
 545,-0.00003300,0.00008981,0.00007634,0.00003449,-0.00004622,0.0000408
 4,0.00002965,-0.00000920,0.00004256,-0.00003672,-0.00000239,-0.0000015
 4,-0.00001429,0.00000623,0.00000159,0.00001529,0.00000573,0.00000981,-
 0.00000289,-0.00000260,0.00000886,-0.00000530,-0.00000049,0.00000932,0
 .00000196,-0.00000165,0.00000265,-0.00000054,-0.00000084,-0.00002150,-
 0.00001630,0.00000392,-0.00001042,-0.00002753,-0.00000462,-0.00006191,
 0.00002788,0.00003163,-0.00000134,-0.00000408,-0.00000458,0.00000250,-
 0.00000223,-0.00000559,0.00007231,-0.00004293,0.00002123,-0.00001314,0
 .00000002,-0.00000959,-0.00000240,0.00000163,0.00000163,0.00000127,-0.
 00000661,0.00000117,-0.00000353,-0.00000449,-0.00000797,-0.00000401,0.
 00000065,0.00000015,0.00000061,0.00000361,0.00000017,-0.00000420,0.000
 01187,-0.00000508,0.00000193,0.00000150,-0.00000409,0.00000332,-0.0000
 0719,-0.00000475,0.00000301,-0.00000292,-0.00000582,-0.00000161,0.0000
 0092,-0.00000256,-0.00000350,0.00000032,0.00000110,0.00000474,0.000000
 68,0.00000164,-0.00000959,-0.00003659,0.00001521,-0.00001505,0.0000039
 9,-0.00001260,0.00000900,-0.00000902,0.00000802,-0.00002943,0.00002278
 ,0.00000736,-0.00000137,0.00000396,0.00000066,-0.00000072,-0.00000403,
 0.00000420,-0.00000198,-0.00000121,-0.00000116,0.00001441,-0.00001396,
 0.00001276,0.00000995,0.00000716,0.00000141,0.00001403,0.00003283,0.00
 000325,0.00000207,-0.00000303,0.00000459,0.00000569,-0.00000405,-0.000
 00580,-0.00000258,-0.00000876,0.00000615,-0.00000449,-0.00000705,-0.00
 000319,0.00002675,0.00003006,-0.00002402,-0.00000685,0.00000264,0.0000
 0530,-0.00001419,0.00001405,0.00000104,-0.00000346,0.00001069,0.000007
 86,-0.00000095,-0.00000307,0.00000368,-0.00000073,-0.00000054,-0.00000
 187,0.00000279,-0.00000176,-0.00000167,0.00158303,0.00666557,0.0012601
 0,0.00001771,-0.00051639,-0.00028934,0.00049259,0.00256641,0.00404572,
 0.00015051,0.00715285,0.00134348,-0.00013007,-0.00140916,-0.00026930,0
 .02058769,-0.05006544,0.05787764,-0.00049342,-0.00374297,-0.00087263,0
 .00122876,0.00269071,0.00199782,0.00009878,0.00020299,0.00010932,-0.02
 292364,0.04025176,0.00061227,-0.00005192,-0.00020106,-0.00011613,0.000
 00502,0.00005470,-0.00011239,-0.00005150,0.00001588,-0.00009407,0.0000
 8348,0.00001728,-0.00000050,0.00003149,-0.00000786,-0.00000943,-0.0000
 3119,-0.00000701,-0.00002601,0.00000400,0.00000625,-0.00002196,0.00001
 329,0.00000183,-0.00002580,-0.00000731,0.00000142,-0.00000601,0.000000
 82,0.00000215,0.00004270,-0.00001682,0.00000623,0.00003756,-0.00001082
 ,0.00001075,0.00003336,-0.00002920,0.00008891,-0.00000007,0.00000636,-
 0.00000866,-0.00001648,0.00000212,-0.00000490,0.00003619,0.00001071,0.
 00000257,0.00001695,-0.00001180,0.00002215,0.00000905,-0.00000055,-0.0
 0000443,-0.00000659,0.00001666,0.00000013,0.00002209,0.00000557,0.0000
 2499,0.00000741,-0.00000132,-0.00000618,-0.00000970,-0.00001351,-0.000
 00086,-0.00000800,0.00000448,0.00003708,-0.00000379,0.00000181,-0.0000
 1848,-0.00000026,0.00004570,-0.00000129,0.00000409,0.00000471,0.000000
 97,0.00000104,-0.00000737,-0.00000378,-0.00000494,-0.00000362,0.000007
 95,-0.00000583,-0.00000905,0.00000428,-0.00001503,-0.00002336,-0.00003
 957,0.00000010,0.00000322,-0.00000592,0.00001798,0.00000197,-0.0000237
 3,-0.00000753,0.00004248,-0.00000642,-0.00000320,-0.00000282,0.0000080
 1,-0.00000738,-0.00000573,-0.00000019,-0.00000719,-0.00000577,-0.00000
 085,0.00001006,0.00000518,-0.00003156,-0.00001260,-0.00000837,0.000004
 57,0.00001159,-0.00002513,-0.00002674,-0.00000383,-0.00000669,-0.00000
 430,-0.00000132,0.00000528,0.00000846,0.00000175,0.00000513,-0.0000049
 1,0.00000137,0.00000990,0.00000085,-0.00001283,0.00000373,0.00002111,0
 .00000084,-0.00000122,-0.00000185,0.00001118,-0.00000954,0.00001360,-0
 .00001097,-0.00002190,-0.00001942,0.00000232,0.00000409,-0.00000289,-0
 .00000497,0.00000693,-0.00000111,-0.00000359,0.00000844,0.00000300,-0.
 00111705,0.00113243,0.00185961,0.00042035,-0.00023971,0.00038857,0.000
 77365,0.00101686,-0.00203873,0.00424718,0.00125146,-0.00124721,-0.0001
 2413,-0.00024381,-0.00015197,-0.07776491,0.05790083,-0.28713893,-0.000
 36425,-0.00082845,0.00039904,-0.01035050,0.00509940,-0.01691590,-0.000
 53043,0.00029193,-0.00091967,0.08463966,-0.06441501,0.30494906,0.00043
 283,-0.00016677,-0.00004851,-0.00010201,0.00003576,0.00005994,-0.00008
 658,-0.00004276,0.00000444,-0.00005843,0.00005754,0.00000343,0.0000037
 5,0.00002116,-0.00000654,-0.00000720,-0.00001401,-0.00000989,-0.000013
 83,-0.00000224,0.00000225,-0.00001514,0.00000702,0.00000210,-0.0000154
 2,-0.00000321,0.00000351,-0.00000452,0.00000094,0.00000300,0.00002519,
 -0.00001107,-0.00000167,0.00002992,0.00001045,0.00000289,0.00003526,-0
 .00004106,0.00004983,0.00000101,0.00000566,-0.00000434,-0.00002418,0.0
 0000888,0.00000106,0.00002853,0.00002641,0.00001969,0.00002593,-0.0000
 1131,0.00001425,0.00000436,-0.00000129,-0.00000437,-0.00000531,0.00001
 041,0.00000147,0.00002771,0.00000437,0.00001581,0.00000378,0.00000082,
 -0.00000526,-0.00000698,-0.00000747,0.00000165,-0.00000043,0.00001188,
 0.00002656,-0.00000419,0.00000005,-0.00000924,0.00000205,0.00004060,0.
 00000668,0.00000101,0.00000469,-0.00000143,0.00000151,-0.00000687,-0.0
 0000519,-0.00000321,-0.00000075,0.00000722,-0.00000635,-0.00000731,0.0
 0000238,0.00000351,-0.00001674,-0.00000426,-0.00000519,0.00000244,-0.0
 0001576,0.00002206,-0.00001145,-0.00002322,0.00000492,0.00005899,0.000
 00044,0.00000091,-0.00000042,0.00000549,-0.00000976,-0.00000587,0.0000
 0026,-0.00000762,-0.00000831,0.00000045,0.00002918,0.00000094,-0.00000
 898,-0.00001758,-0.00000392,-0.00000400,0.00000378,-0.00003685,-0.0000
 1437,-0.00000238,-0.00000733,-0.00000471,0.00000073,0.00000130,0.00000
 616,0.00000343,0.00000393,-0.00000238,-0.00000037,0.00001225,0.0000007
 5,-0.00001875,-0.00000781,0.00001436,0.00000023,0.00000004,0.00000182,
 0.00001486,-0.00001326,0.00001224,-0.00000769,-0.00002384,-0.00001437,
 0.00000297,0.00000453,-0.00000435,-0.00000439,0.00000596,-0.00000136,-
 0.00000416,0.00000780,0.00000328,0.00032781,-0.00026033,0.00012511,0.0
 0169099,0.00097507,-0.00183230,-0.00035546,0.00006261,0.00394012,-0.00
 635355,0.00076459,0.00094228,-0.00047977,0.00007084,0.00004688,-0.0155
 8785,0.00322965,-0.00643339,-0.00098031,0.00016729,-0.00022420,-0.3170
 5114,0.03903283,-0.04385383,0.00058793,-0.00044939,-0.00020871,0.00086
 595,-0.00049235,-0.00015104,0.33705762,-0.00006413,-0.00091033,-0.0001
 1025,0.00005694,0.00025282,0.00009723,-0.00003852,-0.00000284,-0.00000
 147,0.00004503,-0.00003803,-0.00001271,0.00000069,0.00000766,-0.000010
 21,-0.00000279,0.00001795,-0.00000678,-0.00000031,-0.00000335,0.000002
 12,-0.00000238,0.00000118,0.00000072,0.00000522,-0.00000020,-0.0000014
 6,0.00000146,-0.00000072,0.00000064,-0.00001078,0.00007071,-0.00000402
 ,0.00001104,0.00006256,-0.00001247,0.00003211,-0.00001662,0.00001812,0
 .00000812,-0.00000617,0.00000835,0.00001189,-0.00000593,-0.00001359,-0
 .00001730,-0.00000920,-0.00004517,-0.00000051,-0.00000874,-0.00000014,
 -0.00000152,0.00000045,-0.00000019,0.00000281,-0.00000256,0.00000057,-
 0.00001685,-0.00000568,0.00000614,-0.00000093,-0.00000027,0.00000007,-
 0.00000063,-0.00000165,-0.00000131,0.00001628,-0.00001597,-0.00001305,
 -0.00001362,0.00000404,-0.00000145,-0.00000368,0.00001578,0.00000164,0
 .00000062,-0.00000130,0.00000168,-0.00000148,0.00000030,-0.00000269,-0
 .00000219,-0.00000054,0.00000170,0.00000033,-0.00000517,0.00000099,-0.
 00000186,0.00002863,0.00002829,0.00000835,-0.00000575,0.00000292,-0.00
 000943,-0.00001283,-0.00000503,0.00001045,-0.00000938,-0.00000251,-0.0
 0000138,0.00000041,-0.00000025,0.00000342,0.00000226,0.00000004,-0.000
 00068,-0.00000055,0.00000057,0.00000909,0.00002664,-0.00000291,-0.0000
 0356,0.00000778,-0.00001110,-0.00001879,0.00000013,0.00001096,0.000002
 91,-0.00001053,0.00000119,0.00000178,-0.00000243,-0.00000152,-0.000000
 43,-0.00000214,0.00000256,-0.00000110,0.00000210,0.00000124,-0.0000309
 0,0.00000151,0.00001346,0.00001245,0.00000283,0.00000285,0.00000120,0.
 00000041,-0.00000729,0.00001503,0.00001428,0.00000823,-0.00000053,-0.0
 0000126,0.00000282,0.00000015,-0.00000522,0.00000038,0.00000169,-0.000
 00278,-0.00000103,-0.00029770,-0.00173417,-0.00023265,0.00082971,0.006
 69456,0.00254741,0.00017036,0.00694375,0.00154078,0.00673698,0.0018780
 0,0.00036427,0.00032375,0.00019916,0.00011766,-0.00272535,0.00300396,-
 0.00040620,-0.00013842,0.00026310,0.00006944,0.03899921,-0.04085169,0.
 01063387,-0.00058516,-0.00370190,-0.00101195,-0.00033241,-0.00375483,-
 0.00094200,-0.04299376,0.03162777,-0.00005884,-0.00019317,0.00004054,0
 .00000488,0.00006505,-0.00007056,-0.00002236,-0.00001214,0.00000553,0.
 00000273,0.00000557,0.00000272,0.00000376,0.00000501,0.00000709,0.0000
 0051,-0.00000019,0.00000726,-0.00000166,-0.00000149,-0.00000175,-0.000
 00295,0.00000099,0.00000055,-0.00000116,-0.00000003,0.00000041,-0.0000
 0065,0.,-0.00000037,0.00001298,0.00001622,0.00000267,0.00002383,0.0000
 1427,-0.00000349,-0.00005949,-0.00006387,-0.00007268,0.00000498,0.0000
 0487,0.00001831,-0.00003334,0.00001538,0.00000846,0.00005066,0.0000430
 9,0.00007153,0.00000667,-0.00000494,0.00000140,0.00000321,-0.00000099,
 0.00000063,-0.00000144,0.00000076,0.00000067,-0.00000266,-0.00000292,0
 .00000096,0.00000358,0.00000029,0.00000083,-0.00000195,-0.00000118,-0.
 00000021,0.00000449,-0.00001072,0.00000377,-0.00000619,0.00000171,0.00
 000023,0.00000077,0.00001201,-0.00001187,0.00000569,0.00000646,0.00000
 441,0.00000015,-0.00000055,-0.00000073,-0.00000027,-0.00000263,0.00000
 146,-0.00000122,-0.00000276,0.00000009,0.00000434,0.00001578,-0.000021
 65,0.00000966,0.00000074,0.00001986,-0.00001810,0.00002110,0.00000209,
 0.00000795,-0.00003359,-0.00000643,-0.00000246,-0.00000265,0.00000121,
 0.00000441,0.00000325,-0.00000209,0.00000319,0.00000350,-0.00000209,-0
 .00001456,0.00000326,-0.00001624,0.00000488,-0.00000229,0.00000719,0.0
 0000020,0.00001617,0.00000060,-0.00000195,-0.00000178,0.00000224,0.000
 00015,0.00000200,0.00000124,-0.00000074,-0.00000155,-0.00000078,-0.000
 00060,-0.00000293,-0.00000170,-0.00000571,0.00000485,-0.00000098,-0.00
 000467,-0.00000025,0.00000749,0.00001482,-0.00001425,0.00000757,-0.000
 00181,-0.00000808,-0.00001208,0.00000071,-0.00000077,-0.00000068,-0.00
 000116,0.00000225,-0.00000107,-0.00000093,0.00000532,0.,0.00018185,-0.
 00016417,-0.00105673,-0.00080875,0.00247470,-0.00440558,0.00298056,0.0
 0163164,-0.00266462,-0.02896121,0.00356429,0.00012551,-0.00138370,0.00
 026068,-0.00031235,0.02348956,-0.00359711,0.00807253,0.00124011,-0.000
 09245,0.00008557,-0.04386971,0.01060451,-0.06416689,0.00054754,-0.0010
 9336,0.00110892,-0.00091846,-0.00086538,0.00088498,0.04756987,-0.01262
 752,0.06232710\\-0.00000558,0.00000084,-0.00000071,-0.00000270,-0.0000
 0742,0.00002139,-0.00000852,-0.00000853,0.00003782,0.00000062,-0.00000
 873,0.00001784,-0.00000820,-0.00001628,0.00005217,0.00000194,-0.000016
 91,0.00003199,-0.00000239,-0.00002108,0.00004901,-0.00001202,-0.000018
 50,0.00006595,0.00000640,-0.00002081,0.00003016,-0.00000187,-0.0000268
 3,0.00006079,0.00000815,-0.00000020,-0.00001476,-0.00000938,0.00000229
 ,0.00002138,-0.00002016,0.00002272,0.00000340,-0.00002967,0.00002606,0
 .00000989,-0.00002249,0.00002162,0.00000329,-0.00002269,0.00003002,-0.
 00001464,-0.00001634,-0.00000281,0.00003798,-0.00002764,0.00000900,0.0
 0003991,-0.00001612,-0.00000776,0.00004875,0.00000362,-0.00000373,-0.0
 0000191,-0.00000555,0.00000686,-0.00000330,0.00001238,-0.00000946,-0.0
 0000532,0.00000474,0.00000978,-0.00003197,0.00001340,0.00000721,-0.000
 04354,0.00000670,0.00001107,-0.00003919,-0.00000588,0.00001920,-0.0000
 2735,0.00000755,0.00001728,-0.00005406,0.00002354,-0.00000094,-0.00004
 900,0.00001113,0.00000493,-0.00003544,0.00002283,-0.00001586,-0.000016
 96,0.00003312,-0.00002558,-0.00001840,0.00002243,-0.00001999,-0.000008
 64,0.00002588,-0.00001223,-0.00003041,0.00004372,-0.00003472,-0.000023
 61,0.00003188,-0.00003049,-0.00000593,0.00003300,-0.00002063,-0.000028
 03,0.00000437,-0.00001321,0.00002081,0.00000340,-0.00001938,0.00003263
 ,0.00000811,-0.00001147,0.00000603,0.00001005,-0.00002109,0.00002300,0
 .00001427,-0.00002930,0.00003091,-0.00000141,-0.00001204,0.00002850,-0
 .00000188,-0.00001947,0.00004695,-0.00002019,0.00001155,0.00001708,-0.
 00002762,0.00001449,0.00003255,-0.00002639,0.00002241,0.00001116,-0.00
 001305,0.00001101,0.00000608,-0.00003485,0.00002279,0.00002835,-0.0000
 3543,0.00001701,0.00004331,-0.00002256,0.00000454,0.00003985,0.0000022
 7,0.00001170,-0.00002573,-0.00000858,0.00002344,-0.00002997,0.00001240
 ,0.00000056,-0.00003093,-0.00000673,0.00002852,-0.00004558,-0.00002015
 ,0.00003297,-0.00002567,0.00001674,0.00000381,-0.00004506,0.00002233,-
 0.00001154,-0.00002469,0.00000652,0.00001796,-0.00005269,-0.00001432,0
 .00003928,-0.00005094,0.00002753,-0.00000449,-0.00005061,0.00000928,0.
 00002058,-0.00006393\\\@
 The archive entry for this job was punched.


 AN AIRPLANE IS A COLLECTION OF SPARE PARTS
 FLYING IN CLOSE FORMATION.
 Job cpu time:       2 days 13 hours 23 minutes 44.1 seconds.
 Elapsed time:       0 days  5 hours  7 minutes 20.0 seconds.
 File lengths (MBytes):  RWF=   3344 Int=      0 D2E=      0 Chk=     73 Scr=      1
 Normal termination of Gaussian 16 at Tue May 24 14:45:55 2022.
