 Entering Gaussian System, Link 0=g16
 Input=NCNPtMe.com
 Output=NCNPtMe.log
 Initial command:
 /usr/local/g16/l1.exe "/hdd/Gau-693978.inp" -scrdir="/hdd/"
 Entering Link 1 = /usr/local/g16/l1.exe PID=    693980.
  
 Copyright (c) 1988-2019, Gaussian, Inc.  All Rights Reserved.
  
 This is part of the Gaussian(R) 16 program.  It is based on
 the Gaussian(R) 09 system (copyright 2009, Gaussian, Inc.),
 the Gaussian(R) 03 system (copyright 2003, Gaussian, Inc.),
 the Gaussian(R) 98 system (copyright 1998, Gaussian, Inc.),
 the Gaussian(R) 94 system (copyright 1995, Gaussian, Inc.),
 the Gaussian 92(TM) system (copyright 1992, Gaussian, Inc.),
 the Gaussian 90(TM) system (copyright 1990, Gaussian, Inc.),
 the Gaussian 88(TM) system (copyright 1988, Gaussian, Inc.),
 the Gaussian 86(TM) system (copyright 1986, Carnegie Mellon
 University), and the Gaussian 82(TM) system (copyright 1983,
 Carnegie Mellon University). Gaussian is a federally registered
 trademark of Gaussian, Inc.
  
 This software contains proprietary and confidential information,
 including trade secrets, belonging to Gaussian, Inc.
  
 This software is provided under written license and may be
 used, copied, transmitted, or stored only in accord with that
 written license.
  
 The following legend is applicable only to US Government
 contracts under FAR:
  
                    RESTRICTED RIGHTS LEGEND
  
 Use, reproduction and disclosure by the US Government is
 subject to restrictions as set forth in subparagraphs (a)
 and (c) of the Commercial Computer Software - Restricted
 Rights clause in FAR 52.227-19.
  
 Gaussian, Inc.
 340 Quinnipiac St., Bldg. 40, Wallingford CT 06492
  
  
 ---------------------------------------------------------------
 Warning -- This program may not be used in any manner that
 competes with the business of Gaussian, Inc. or will provide
 assistance to any competitor of Gaussian, Inc.  The licensee
 of this program is prohibited from giving any competitor of
 Gaussian, Inc. access to this program.  By using this program,
 the user acknowledges that Gaussian, Inc. is engaged in the
 business of creating and licensing software in the field of
 computational chemistry and represents and warrants to the
 licensee that it is not a competitor of Gaussian, Inc. and that
 it will not use this program in any manner prohibited above.
 ---------------------------------------------------------------
  

 Cite this work as:
 Gaussian 16, Revision C.01,
 M. J. Frisch, G. W. Trucks, H. B. Schlegel, G. E. Scuseria, 
 M. A. Robb, J. R. Cheeseman, G. Scalmani, V. Barone, 
 G. A. Petersson, H. Nakatsuji, X. Li, M. Caricato, A. V. Marenich, 
 J. Bloino, B. G. Janesko, R. Gomperts, B. Mennucci, H. P. Hratchian, 
 J. V. Ortiz, A. F. Izmaylov, J. L. Sonnenberg, D. Williams-Young, 
 F. Ding, F. Lipparini, F. Egidi, J. Goings, B. Peng, A. Petrone, 
 T. Henderson, D. Ranasinghe, V. G. Zakrzewski, J. Gao, N. Rega, 
 G. Zheng, W. Liang, M. Hada, M. Ehara, K. Toyota, R. Fukuda, 
 J. Hasegawa, M. Ishida, T. Nakajima, Y. Honda, O. Kitao, H. Nakai, 
 T. Vreven, K. Throssell, J. A. Montgomery, Jr., J. E. Peralta, 
 F. Ogliaro, M. J. Bearpark, J. J. Heyd, E. N. Brothers, K. N. Kudin, 
 V. N. Staroverov, T. A. Keith, R. Kobayashi, J. Normand, 
 K. Raghavachari, A. P. Rendell, J. C. Burant, S. S. Iyengar, 
 J. Tomasi, M. Cossi, J. M. Millam, M. Klene, C. Adamo, R. Cammi, 
 J. W. Ochterski, R. L. Martin, K. Morokuma, O. Farkas, 
 J. B. Foresman, and D. J. Fox, Gaussian, Inc., Wallingford CT, 2019.
 
 ******************************************
 Gaussian 16:  ES64L-G16RevC.01  3-Jul-2019
                16-May-2022 
 ******************************************
 %nprocshared=12
 Will use up to   12 processors via shared memory.
 %mem=32MW
 %chk=NCNPtMe.chk
 ----------------------------------------------------------------------
 # opt freq gen scrf=(iefpcm,solvent=thf) m06 EmpiricalDispersion=GD3 P
 seudo=Read
 ----------------------------------------------------------------------
 1/18=20,19=15,26=3,38=1/1,3;
 2/9=110,12=2,17=6,18=5,40=1/2;
 3/5=7,11=2,16=1,17=8,25=1,30=1,70=2201,71=1,72=20,74=-54,124=31/1,2,3;
 4//1;
 5/5=2,38=5,53=20/2;
 6/7=2,8=2,9=2,10=2,28=1/1;
 7//1,2,3,16;
 1/18=20,19=15,26=3/3(2);
 2/9=110/2;
 99//99;
 2/9=110/2;
 3/5=7,6=1,11=2,16=1,17=8,25=1,30=1,70=2205,71=1,72=20,74=-54,82=7,124=31/1,2,3;
 4/5=5,16=3,69=1/1;
 5/5=2,38=5,53=20/2;
 7//1,2,3,16;
 1/18=20,19=15,26=3/3(-5);
 2/9=110/2;
 6/7=2,8=2,9=2,10=2,19=2,28=1/1;
 99/9=1/99;
 ------------------------------------------------------
 M06 (NCN)PtMe; Custom Lanl2tz(f)+6-311g(d,p) basis set
 ------------------------------------------------------
 Symbolic Z-matrix:
 Charge =  0 Multiplicity = 1
 Pt                   -0.00002  -0.61197  -0.1235 
 C                     0.00004   1.36908  -0.23459 
 C                     1.22203   2.05429  -0.22013 
 C                    -1.22192   2.05436  -0.22012 
 C                     1.22914   3.45242  -0.11033 
 C                    -1.22895   3.45249  -0.11032 
 C                     0.00012   4.14097  -0.03548 
 H                     2.16245   4.0145   -0.09186 
 H                    -2.16223   4.01463  -0.09184 
 H                     0.00015   5.22355   0.06177 
 N                    -2.13182  -0.27472  -0.00459 
 N                     2.1318   -0.27484  -0.0046 
 C                    -0.00008  -2.77072   0.09289 
 H                    -0.883    -3.16287   0.6321 
 H                    -0.00008  -3.24318  -0.90762 
 H                     0.88282  -3.16292   0.63211 
 C                     2.40396   1.14972  -0.48652 
 H                     2.53802   1.07605  -1.57524 
 H                     3.35066   1.51554  -0.06107 
 C                    -2.4039    1.14986  -0.48651 
 H                    -2.53797   1.0762   -1.57523 
 H                    -3.35057   1.51574  -0.06105 
 C                    -2.85347  -1.29331  -0.85338 
 C                    -4.32178  -1.02707  -1.20606 
 H                    -2.74223  -2.25393  -0.33711 
 H                    -2.27195  -1.36734  -1.7805 
 H                    -4.66854  -1.84392  -1.84982 
 H                    -4.98144  -0.98962  -0.33535 
 H                    -4.44898  -0.09703  -1.77075 
 C                    -2.42212  -0.39287   1.47601 
 C                    -3.88801  -0.34364   1.91281 
 H                    -1.85931   0.42276   1.94593 
 H                    -1.96627  -1.33175   1.80852 
 H                    -3.92098  -0.25424   3.00442 
 H                    -4.42739   0.51586   1.49673 
 H                    -4.42464  -1.25886   1.64251 
 C                     2.42211  -0.39298   1.476 
 C                     3.88799  -0.34346   1.91281 
 H                     1.96644  -1.33196   1.80847 
 H                     1.85913   0.42252   1.94594 
 H                     3.92093  -0.25421   3.00444 
 H                     4.42484  -1.25851   1.64237 
 H                     4.42715   0.51624   1.49686 
 C                     2.8534   -1.29347  -0.85338 
 C                     4.32173  -1.02732  -1.20604 
 H                     2.27189  -1.36746  -1.78051 
 H                     2.74209  -2.25408  -0.33711 
 H                     4.66845  -1.84419  -1.84981 
 H                     4.449    -0.09728  -1.77071 
 H                     4.98138  -0.98993  -0.33532 
 

 GradGradGradGradGradGradGradGradGradGradGradGradGradGradGradGradGradGrad
 Berny optimization.
 Initialization pass.
                           ----------------------------
                           !    Initial Parameters    !
                           ! (Angstroms and Degrees)  !
 --------------------------                            --------------------------
 ! Name  Definition              Value          Derivative Info.                !
 --------------------------------------------------------------------------------
 ! R1    R(1,2)                  1.9842         estimate D2E/DX2                !
 ! R2    R(1,11)                 2.1616         estimate D2E/DX2                !
 ! R3    R(1,12)                 2.1616         estimate D2E/DX2                !
 ! R4    R(1,13)                 2.1696         estimate D2E/DX2                !
 ! R5    R(2,3)                  1.4011         estimate D2E/DX2                !
 ! R6    R(2,4)                  1.4011         estimate D2E/DX2                !
 ! R7    R(3,5)                  1.4025         estimate D2E/DX2                !
 ! R8    R(3,17)                 1.512          estimate D2E/DX2                !
 ! R9    R(4,6)                  1.4025         estimate D2E/DX2                !
 ! R10   R(4,20)                 1.512          estimate D2E/DX2                !
 ! R11   R(5,7)                  1.4107         estimate D2E/DX2                !
 ! R12   R(5,8)                  1.0897         estimate D2E/DX2                !
 ! R13   R(6,7)                  1.4107         estimate D2E/DX2                !
 ! R14   R(6,9)                  1.0897         estimate D2E/DX2                !
 ! R15   R(7,10)                 1.0869         estimate D2E/DX2                !
 ! R16   R(11,20)                1.5283         estimate D2E/DX2                !
 ! R17   R(11,23)                1.5096         estimate D2E/DX2                !
 ! R18   R(11,30)                1.5134         estimate D2E/DX2                !
 ! R19   R(12,17)                1.5283         estimate D2E/DX2                !
 ! R20   R(12,37)                1.5134         estimate D2E/DX2                !
 ! R21   R(12,44)                1.5096         estimate D2E/DX2                !
 ! R22   R(13,14)                1.1064         estimate D2E/DX2                !
 ! R23   R(13,15)                1.1065         estimate D2E/DX2                !
 ! R24   R(13,16)                1.1064         estimate D2E/DX2                !
 ! R25   R(17,18)                1.0994         estimate D2E/DX2                !
 ! R26   R(17,19)                1.1005         estimate D2E/DX2                !
 ! R27   R(20,21)                1.0994         estimate D2E/DX2                !
 ! R28   R(20,22)                1.1005         estimate D2E/DX2                !
 ! R29   R(23,24)                1.5334         estimate D2E/DX2                !
 ! R30   R(23,25)                1.0962         estimate D2E/DX2                !
 ! R31   R(23,26)                1.0969         estimate D2E/DX2                !
 ! R32   R(24,27)                1.0963         estimate D2E/DX2                !
 ! R33   R(24,28)                1.093          estimate D2E/DX2                !
 ! R34   R(24,29)                1.0955         estimate D2E/DX2                !
 ! R35   R(30,31)                1.5304         estimate D2E/DX2                !
 ! R36   R(30,32)                1.0967         estimate D2E/DX2                !
 ! R37   R(30,33)                1.0954         estimate D2E/DX2                !
 ! R38   R(31,34)                1.0958         estimate D2E/DX2                !
 ! R39   R(31,35)                1.0967         estimate D2E/DX2                !
 ! R40   R(31,36)                1.0948         estimate D2E/DX2                !
 ! R41   R(37,38)                1.5304         estimate D2E/DX2                !
 ! R42   R(37,39)                1.0954         estimate D2E/DX2                !
 ! R43   R(37,40)                1.0967         estimate D2E/DX2                !
 ! R44   R(38,41)                1.0958         estimate D2E/DX2                !
 ! R45   R(38,42)                1.0948         estimate D2E/DX2                !
 ! R46   R(38,43)                1.0967         estimate D2E/DX2                !
 ! R47   R(44,45)                1.5334         estimate D2E/DX2                !
 ! R48   R(44,46)                1.0969         estimate D2E/DX2                !
 ! R49   R(44,47)                1.0962         estimate D2E/DX2                !
 ! R50   R(45,48)                1.0963         estimate D2E/DX2                !
 ! R51   R(45,49)                1.0955         estimate D2E/DX2                !
 ! R52   R(45,50)                1.093          estimate D2E/DX2                !
 ! A1    A(2,1,11)              81.2185         estimate D2E/DX2                !
 ! A2    A(2,1,12)              81.2184         estimate D2E/DX2                !
 ! A3    A(11,1,12)            160.9583         estimate D2E/DX2                !
 ! A4    A(11,1,13)             98.6112         estimate D2E/DX2                !
 ! A5    A(12,1,13)             98.6112         estimate D2E/DX2                !
 ! A6    A(1,2,3)              119.1921         estimate D2E/DX2                !
 ! A7    A(1,2,4)              119.1921         estimate D2E/DX2                !
 ! A8    A(3,2,4)              121.4248         estimate D2E/DX2                !
 ! A9    A(2,3,5)              119.5234         estimate D2E/DX2                !
 ! A10   A(2,3,17)             112.7918         estimate D2E/DX2                !
 ! A11   A(5,3,17)             127.3187         estimate D2E/DX2                !
 ! A12   A(2,4,6)              119.5234         estimate D2E/DX2                !
 ! A13   A(2,4,20)             112.7918         estimate D2E/DX2                !
 ! A14   A(6,4,20)             127.3186         estimate D2E/DX2                !
 ! A15   A(3,5,7)              119.0985         estimate D2E/DX2                !
 ! A16   A(3,5,8)              121.3263         estimate D2E/DX2                !
 ! A17   A(7,5,8)              119.5724         estimate D2E/DX2                !
 ! A18   A(4,6,7)              119.0985         estimate D2E/DX2                !
 ! A19   A(4,6,9)              121.3264         estimate D2E/DX2                !
 ! A20   A(7,6,9)              119.5723         estimate D2E/DX2                !
 ! A21   A(5,7,6)              121.1969         estimate D2E/DX2                !
 ! A22   A(5,7,10)             119.3959         estimate D2E/DX2                !
 ! A23   A(6,7,10)             119.3959         estimate D2E/DX2                !
 ! A24   A(1,11,20)            107.6775         estimate D2E/DX2                !
 ! A25   A(1,11,23)            109.5885         estimate D2E/DX2                !
 ! A26   A(1,11,30)            103.3448         estimate D2E/DX2                !
 ! A27   A(20,11,23)           111.5038         estimate D2E/DX2                !
 ! A28   A(20,11,30)           110.3107         estimate D2E/DX2                !
 ! A29   A(23,11,30)           113.9358         estimate D2E/DX2                !
 ! A30   A(1,12,17)            107.6776         estimate D2E/DX2                !
 ! A31   A(1,12,37)            103.3451         estimate D2E/DX2                !
 ! A32   A(1,12,44)            109.5888         estimate D2E/DX2                !
 ! A33   A(17,12,37)           110.3101         estimate D2E/DX2                !
 ! A34   A(17,12,44)           111.5037         estimate D2E/DX2                !
 ! A35   A(37,12,44)           113.9359         estimate D2E/DX2                !
 ! A36   A(1,13,14)            113.6601         estimate D2E/DX2                !
 ! A37   A(1,13,15)            109.5537         estimate D2E/DX2                !
 ! A38   A(1,13,16)            113.66           estimate D2E/DX2                !
 ! A39   A(14,13,15)           106.8187         estimate D2E/DX2                !
 ! A40   A(14,13,16)           105.8812         estimate D2E/DX2                !
 ! A41   A(15,13,16)           106.8188         estimate D2E/DX2                !
 ! A42   A(3,17,12)            111.2778         estimate D2E/DX2                !
 ! A43   A(3,17,18)            108.0517         estimate D2E/DX2                !
 ! A44   A(3,17,19)            113.9206         estimate D2E/DX2                !
 ! A45   A(12,17,18)           105.7546         estimate D2E/DX2                !
 ! A46   A(12,17,19)           109.9464         estimate D2E/DX2                !
 ! A47   A(18,17,19)           107.4708         estimate D2E/DX2                !
 ! A48   A(4,20,11)            111.2779         estimate D2E/DX2                !
 ! A49   A(4,20,21)            108.0516         estimate D2E/DX2                !
 ! A50   A(4,20,22)            113.9206         estimate D2E/DX2                !
 ! A51   A(11,20,21)           105.7546         estimate D2E/DX2                !
 ! A52   A(11,20,22)           109.9466         estimate D2E/DX2                !
 ! A53   A(21,20,22)           107.4707         estimate D2E/DX2                !
 ! A54   A(11,23,24)           118.0303         estimate D2E/DX2                !
 ! A55   A(11,23,25)           106.1393         estimate D2E/DX2                !
 ! A56   A(11,23,26)           105.5062         estimate D2E/DX2                !
 ! A57   A(24,23,25)           110.9559         estimate D2E/DX2                !
 ! A58   A(24,23,26)           108.9639         estimate D2E/DX2                !
 ! A59   A(25,23,26)           106.5664         estimate D2E/DX2                !
 ! A60   A(23,24,27)           107.9732         estimate D2E/DX2                !
 ! A61   A(23,24,28)           113.6181         estimate D2E/DX2                !
 ! A62   A(23,24,29)           112.1584         estimate D2E/DX2                !
 ! A63   A(27,24,28)           107.6022         estimate D2E/DX2                !
 ! A64   A(27,24,29)           107.0469         estimate D2E/DX2                !
 ! A65   A(28,24,29)           108.1478         estimate D2E/DX2                !
 ! A66   A(11,30,31)           117.4164         estimate D2E/DX2                !
 ! A67   A(11,30,32)           105.2297         estimate D2E/DX2                !
 ! A68   A(11,30,33)           106.5027         estimate D2E/DX2                !
 ! A69   A(31,30,32)           110.2021         estimate D2E/DX2                !
 ! A70   A(31,30,33)           109.8495         estimate D2E/DX2                !
 ! A71   A(32,30,33)           107.0864         estimate D2E/DX2                !
 ! A72   A(30,31,34)           108.4079         estimate D2E/DX2                !
 ! A73   A(30,31,35)           112.8311         estimate D2E/DX2                !
 ! A74   A(30,31,36)           111.8473         estimate D2E/DX2                !
 ! A75   A(34,31,35)           107.4103         estimate D2E/DX2                !
 ! A76   A(34,31,36)           107.422          estimate D2E/DX2                !
 ! A77   A(35,31,36)           108.6877         estimate D2E/DX2                !
 ! A78   A(12,37,38)           117.4159         estimate D2E/DX2                !
 ! A79   A(12,37,39)           106.5029         estimate D2E/DX2                !
 ! A80   A(12,37,40)           105.2298         estimate D2E/DX2                !
 ! A81   A(38,37,39)           109.8501         estimate D2E/DX2                !
 ! A82   A(38,37,40)           110.2017         estimate D2E/DX2                !
 ! A83   A(39,37,40)           107.0864         estimate D2E/DX2                !
 ! A84   A(37,38,41)           108.4079         estimate D2E/DX2                !
 ! A85   A(37,38,42)           111.8472         estimate D2E/DX2                !
 ! A86   A(37,38,43)           112.8308         estimate D2E/DX2                !
 ! A87   A(41,38,42)           107.4222         estimate D2E/DX2                !
 ! A88   A(41,38,43)           107.4103         estimate D2E/DX2                !
 ! A89   A(42,38,43)           108.6877         estimate D2E/DX2                !
 ! A90   A(12,44,45)           118.0305         estimate D2E/DX2                !
 ! A91   A(12,44,46)           105.5061         estimate D2E/DX2                !
 ! A92   A(12,44,47)           106.1393         estimate D2E/DX2                !
 ! A93   A(45,44,46)           108.9639         estimate D2E/DX2                !
 ! A94   A(45,44,47)           110.9557         estimate D2E/DX2                !
 ! A95   A(46,44,47)           106.5663         estimate D2E/DX2                !
 ! A96   A(44,45,48)           107.9731         estimate D2E/DX2                !
 ! A97   A(44,45,49)           112.1584         estimate D2E/DX2                !
 ! A98   A(44,45,50)           113.6182         estimate D2E/DX2                !
 ! A99   A(48,45,49)           107.0469         estimate D2E/DX2                !
 ! A100  A(48,45,50)           107.6022         estimate D2E/DX2                !
 ! A101  A(49,45,50)           108.1479         estimate D2E/DX2                !
 ! A102  L(2,1,13,11,-1)       179.8297         estimate D2E/DX2                !
 ! A103  L(2,1,13,11,-2)       182.5376         estimate D2E/DX2                !
 ! D1    D(11,1,2,3)           173.8329         estimate D2E/DX2                !
 ! D2    D(11,1,2,4)            -1.2184         estimate D2E/DX2                !
 ! D3    D(12,1,2,3)             1.2187         estimate D2E/DX2                !
 ! D4    D(12,1,2,4)          -173.8326         estimate D2E/DX2                !
 ! D5    D(2,1,11,20)           16.6858         estimate D2E/DX2                !
 ! D6    D(2,1,11,23)          138.1374         estimate D2E/DX2                !
 ! D7    D(2,1,11,30)         -100.0596         estimate D2E/DX2                !
 ! D8    D(12,1,11,20)          39.6027         estimate D2E/DX2                !
 ! D9    D(12,1,11,23)         161.0543         estimate D2E/DX2                !
 ! D10   D(12,1,11,30)         -77.1427         estimate D2E/DX2                !
 ! D11   D(13,1,11,20)        -165.8518         estimate D2E/DX2                !
 ! D12   D(13,1,11,23)         -44.4002         estimate D2E/DX2                !
 ! D13   D(13,1,11,30)          77.4028         estimate D2E/DX2                !
 ! D14   D(2,1,12,17)          -16.6862         estimate D2E/DX2                !
 ! D15   D(2,1,12,37)          100.0587         estimate D2E/DX2                !
 ! D16   D(2,1,12,44)         -138.1378         estimate D2E/DX2                !
 ! D17   D(11,1,12,17)         -39.6031         estimate D2E/DX2                !
 ! D18   D(11,1,12,37)          77.1418         estimate D2E/DX2                !
 ! D19   D(11,1,12,44)        -161.0547         estimate D2E/DX2                !
 ! D20   D(13,1,12,17)         165.8515         estimate D2E/DX2                !
 ! D21   D(13,1,12,37)         -77.4037         estimate D2E/DX2                !
 ! D22   D(13,1,12,44)          44.3998         estimate D2E/DX2                !
 ! D23   D(11,1,13,14)         -25.3192         estimate D2E/DX2                !
 ! D24   D(11,1,13,15)          94.0771         estimate D2E/DX2                !
 ! D25   D(11,1,13,16)        -146.5267         estimate D2E/DX2                !
 ! D26   D(12,1,13,14)         146.5275         estimate D2E/DX2                !
 ! D27   D(12,1,13,15)         -94.0762         estimate D2E/DX2                !
 ! D28   D(12,1,13,16)          25.32           estimate D2E/DX2                !
 ! D29   D(1,2,3,5)           -171.1651         estimate D2E/DX2                !
 ! D30   D(1,2,3,17)            15.2795         estimate D2E/DX2                !
 ! D31   D(4,2,3,5)              3.7718         estimate D2E/DX2                !
 ! D32   D(4,2,3,17)          -169.7836         estimate D2E/DX2                !
 ! D33   D(1,2,4,6)            171.1651         estimate D2E/DX2                !
 ! D34   D(1,2,4,20)           -15.2797         estimate D2E/DX2                !
 ! D35   D(3,2,4,6)             -3.7718         estimate D2E/DX2                !
 ! D36   D(3,2,4,20)           169.7834         estimate D2E/DX2                !
 ! D37   D(2,3,5,7)             -0.8814         estimate D2E/DX2                !
 ! D38   D(2,3,5,8)            179.7313         estimate D2E/DX2                !
 ! D39   D(17,3,5,7)           171.6422         estimate D2E/DX2                !
 ! D40   D(17,3,5,8)            -7.7451         estimate D2E/DX2                !
 ! D41   D(2,3,17,12)          -29.3904         estimate D2E/DX2                !
 ! D42   D(2,3,17,18)           86.2925         estimate D2E/DX2                !
 ! D43   D(2,3,17,19)         -154.3669         estimate D2E/DX2                !
 ! D44   D(5,3,17,12)          157.6639         estimate D2E/DX2                !
 ! D45   D(5,3,17,18)          -86.6531         estimate D2E/DX2                !
 ! D46   D(5,3,17,19)           32.6875         estimate D2E/DX2                !
 ! D47   D(2,4,6,7)              0.8814         estimate D2E/DX2                !
 ! D48   D(2,4,6,9)           -179.7312         estimate D2E/DX2                !
 ! D49   D(20,4,6,7)          -171.6421         estimate D2E/DX2                !
 ! D50   D(20,4,6,9)             7.7453         estimate D2E/DX2                !
 ! D51   D(2,4,20,11)           29.3903         estimate D2E/DX2                !
 ! D52   D(2,4,20,21)          -86.2926         estimate D2E/DX2                !
 ! D53   D(2,4,20,22)          154.367          estimate D2E/DX2                !
 ! D54   D(6,4,20,11)         -157.6643         estimate D2E/DX2                !
 ! D55   D(6,4,20,21)           86.6529         estimate D2E/DX2                !
 ! D56   D(6,4,20,22)          -32.6875         estimate D2E/DX2                !
 ! D57   D(3,5,7,6)             -1.9613         estimate D2E/DX2                !
 ! D58   D(3,5,7,10)           179.2678         estimate D2E/DX2                !
 ! D59   D(8,5,7,6)            177.437          estimate D2E/DX2                !
 ! D60   D(8,5,7,10)            -1.334          estimate D2E/DX2                !
 ! D61   D(4,6,7,5)              1.9613         estimate D2E/DX2                !
 ! D62   D(4,6,7,10)          -179.2678         estimate D2E/DX2                !
 ! D63   D(9,6,7,5)           -177.437          estimate D2E/DX2                !
 ! D64   D(9,6,7,10)             1.334          estimate D2E/DX2                !
 ! D65   D(1,11,20,4)          -28.784          estimate D2E/DX2                !
 ! D66   D(1,11,20,21)          88.3059         estimate D2E/DX2                !
 ! D67   D(1,11,20,22)        -155.9579         estimate D2E/DX2                !
 ! D68   D(23,11,20,4)        -149.0338         estimate D2E/DX2                !
 ! D69   D(23,11,20,21)        -31.9438         estimate D2E/DX2                !
 ! D70   D(23,11,20,22)         83.7924         estimate D2E/DX2                !
 ! D71   D(30,11,20,4)          83.3189         estimate D2E/DX2                !
 ! D72   D(30,11,20,21)       -159.5911         estimate D2E/DX2                !
 ! D73   D(30,11,20,22)        -43.855          estimate D2E/DX2                !
 ! D74   D(1,11,23,24)        -164.4738         estimate D2E/DX2                !
 ! D75   D(1,11,23,25)          70.3662         estimate D2E/DX2                !
 ! D76   D(1,11,23,26)         -42.4839         estimate D2E/DX2                !
 ! D77   D(20,11,23,24)        -45.3545         estimate D2E/DX2                !
 ! D78   D(20,11,23,25)       -170.5145         estimate D2E/DX2                !
 ! D79   D(20,11,23,26)         76.6355         estimate D2E/DX2                !
 ! D80   D(30,11,23,24)         80.3122         estimate D2E/DX2                !
 ! D81   D(30,11,23,25)        -44.8478         estimate D2E/DX2                !
 ! D82   D(30,11,23,26)       -157.6979         estimate D2E/DX2                !
 ! D83   D(1,11,30,31)        -174.0786         estimate D2E/DX2                !
 ! D84   D(1,11,30,32)          62.9373         estimate D2E/DX2                !
 ! D85   D(1,11,30,33)         -50.5314         estimate D2E/DX2                !
 ! D86   D(20,11,30,31)         71.0504         estimate D2E/DX2                !
 ! D87   D(20,11,30,32)        -51.9337         estimate D2E/DX2                !
 ! D88   D(20,11,30,33)       -165.4024         estimate D2E/DX2                !
 ! D89   D(23,11,30,31)        -55.244          estimate D2E/DX2                !
 ! D90   D(23,11,30,32)       -178.2281         estimate D2E/DX2                !
 ! D91   D(23,11,30,33)         68.3032         estimate D2E/DX2                !
 ! D92   D(1,12,17,3)           28.7844         estimate D2E/DX2                !
 ! D93   D(1,12,17,18)         -88.3057         estimate D2E/DX2                !
 ! D94   D(1,12,17,19)         155.9581         estimate D2E/DX2                !
 ! D95   D(37,12,17,3)         -83.3187         estimate D2E/DX2                !
 ! D96   D(37,12,17,18)        159.5912         estimate D2E/DX2                !
 ! D97   D(37,12,17,19)         43.855          estimate D2E/DX2                !
 ! D98   D(44,12,17,3)         149.0345         estimate D2E/DX2                !
 ! D99   D(44,12,17,18)         31.9443         estimate D2E/DX2                !
 ! D100  D(44,12,17,19)        -83.7919         estimate D2E/DX2                !
 ! D101  D(1,12,37,38)         174.0939         estimate D2E/DX2                !
 ! D102  D(1,12,37,39)          50.5462         estimate D2E/DX2                !
 ! D103  D(1,12,37,40)         -62.9227         estimate D2E/DX2                !
 ! D104  D(17,12,37,38)        -71.0351         estimate D2E/DX2                !
 ! D105  D(17,12,37,39)        165.4171         estimate D2E/DX2                !
 ! D106  D(17,12,37,40)         51.9482         estimate D2E/DX2                !
 ! D107  D(44,12,37,38)         55.2587         estimate D2E/DX2                !
 ! D108  D(44,12,37,39)        -68.2891         estimate D2E/DX2                !
 ! D109  D(44,12,37,40)        178.2421         estimate D2E/DX2                !
 ! D110  D(1,12,44,45)         164.4751         estimate D2E/DX2                !
 ! D111  D(1,12,44,46)          42.485          estimate D2E/DX2                !
 ! D112  D(1,12,44,47)         -70.365          estimate D2E/DX2                !
 ! D113  D(17,12,44,45)         45.3556         estimate D2E/DX2                !
 ! D114  D(17,12,44,46)        -76.6345         estimate D2E/DX2                !
 ! D115  D(17,12,44,47)        170.5155         estimate D2E/DX2                !
 ! D116  D(37,12,44,45)        -80.3102         estimate D2E/DX2                !
 ! D117  D(37,12,44,46)        157.6997         estimate D2E/DX2                !
 ! D118  D(37,12,44,47)         44.8497         estimate D2E/DX2                !
 ! D119  D(11,23,24,27)        178.0247         estimate D2E/DX2                !
 ! D120  D(11,23,24,28)        -62.7112         estimate D2E/DX2                !
 ! D121  D(11,23,24,29)         60.3222         estimate D2E/DX2                !
 ! D122  D(25,23,24,27)        -59.2159         estimate D2E/DX2                !
 ! D123  D(25,23,24,28)         60.0482         estimate D2E/DX2                !
 ! D124  D(25,23,24,29)       -176.9184         estimate D2E/DX2                !
 ! D125  D(26,23,24,27)         57.8133         estimate D2E/DX2                !
 ! D126  D(26,23,24,28)        177.0773         estimate D2E/DX2                !
 ! D127  D(26,23,24,29)        -59.8893         estimate D2E/DX2                !
 ! D128  D(11,30,31,34)       -169.6715         estimate D2E/DX2                !
 ! D129  D(11,30,31,35)        -50.8379         estimate D2E/DX2                !
 ! D130  D(11,30,31,36)         72.0732         estimate D2E/DX2                !
 ! D131  D(32,30,31,34)        -49.2607         estimate D2E/DX2                !
 ! D132  D(32,30,31,35)         69.5729         estimate D2E/DX2                !
 ! D133  D(32,30,31,36)       -167.516          estimate D2E/DX2                !
 ! D134  D(33,30,31,34)         68.4939         estimate D2E/DX2                !
 ! D135  D(33,30,31,35)       -172.6726         estimate D2E/DX2                !
 ! D136  D(33,30,31,36)        -49.7615         estimate D2E/DX2                !
 ! D137  D(12,37,38,41)        169.6782         estimate D2E/DX2                !
 ! D138  D(12,37,38,42)        -72.0663         estimate D2E/DX2                !
 ! D139  D(12,37,38,43)         50.8447         estimate D2E/DX2                !
 ! D140  D(39,37,38,41)        -68.4868         estimate D2E/DX2                !
 ! D141  D(39,37,38,42)         49.7687         estimate D2E/DX2                !
 ! D142  D(39,37,38,43)        172.6797         estimate D2E/DX2                !
 ! D143  D(40,37,38,41)         49.2679         estimate D2E/DX2                !
 ! D144  D(40,37,38,42)        167.5235         estimate D2E/DX2                !
 ! D145  D(40,37,38,43)        -69.5656         estimate D2E/DX2                !
 ! D146  D(12,44,45,48)       -178.024          estimate D2E/DX2                !
 ! D147  D(12,44,45,49)        -60.3215         estimate D2E/DX2                !
 ! D148  D(12,44,45,50)         62.712          estimate D2E/DX2                !
 ! D149  D(46,44,45,48)        -57.8125         estimate D2E/DX2                !
 ! D150  D(46,44,45,49)         59.89           estimate D2E/DX2                !
 ! D151  D(46,44,45,50)       -177.0765         estimate D2E/DX2                !
 ! D152  D(47,44,45,48)         59.2165         estimate D2E/DX2                !
 ! D153  D(47,44,45,49)        176.919          estimate D2E/DX2                !
 ! D154  D(47,44,45,50)        -60.0475         estimate D2E/DX2                !
 --------------------------------------------------------------------------------
 Trust Radius=3.00D-01 FncErr=1.00D-07 GrdErr=1.00D-06 EigMax=2.50D+02 EigMin=1.00D-04
 Number of steps in this run=    300 maximum allowed number of steps=    300.
 GradGradGradGradGradGradGradGradGradGradGradGradGradGradGradGradGradGrad

                          Input orientation:                          
 ---------------------------------------------------------------------
 Center     Atomic      Atomic             Coordinates (Angstroms)
 Number     Number       Type             X           Y           Z
 ---------------------------------------------------------------------
      1         78           0       -0.000018   -0.611969   -0.123496
      2          6           0        0.000037    1.369083   -0.234590
      3          6           0        1.222033    2.054290   -0.220134
      4          6           0       -1.221919    2.054358   -0.220124
      5          6           0        1.229138    3.452419   -0.110333
      6          6           0       -1.228945    3.452488   -0.110323
      7          6           0        0.000116    4.140970   -0.035481
      8          1           0        2.162453    4.014504   -0.091861
      9          1           0       -2.162228    4.014626   -0.091843
     10          1           0        0.000147    5.223548    0.061772
     11          7           0       -2.131821   -0.274720   -0.004593
     12          7           0        2.131804   -0.274836   -0.004600
     13          6           0       -0.000077   -2.770717    0.092886
     14          1           0       -0.882997   -3.162872    0.632100
     15          1           0       -0.000084   -3.243176   -0.907621
     16          1           0        0.882817   -3.162918    0.632110
     17          6           0        2.403960    1.149721   -0.486522
     18          1           0        2.538019    1.076048   -1.575243
     19          1           0        3.350655    1.515544   -0.061074
     20          6           0       -2.403899    1.149857   -0.486506
     21          1           0       -2.537968    1.076197   -1.575225
     22          1           0       -3.350570    1.515735   -0.061053
     23          6           0       -2.853470   -1.293311   -0.853382
     24          6           0       -4.321776   -1.027069   -1.206063
     25          1           0       -2.742230   -2.253927   -0.337107
     26          1           0       -2.271948   -1.367337   -1.780498
     27          1           0       -4.668543   -1.843915   -1.849824
     28          1           0       -4.981438   -0.989620   -0.335345
     29          1           0       -4.448978   -0.097025   -1.770750
     30          6           0       -2.422121   -0.392868    1.476009
     31          6           0       -3.888014   -0.343639    1.912806
     32          1           0       -1.859309    0.422755    1.945927
     33          1           0       -1.966274   -1.331753    1.808515
     34          1           0       -3.920981   -0.254241    3.004422
     35          1           0       -4.427392    0.515860    1.496729
     36          1           0       -4.424640   -1.258862    1.642505
     37          6           0        2.422108   -0.392975    1.476001
     38          6           0        3.887988   -0.343456    1.912807
     39          1           0        1.966444   -1.331960    1.808474
     40          1           0        1.859132    0.422523    1.945940
     41          1           0        3.920933   -0.254209    3.004437
     42          1           0        4.424836   -1.258510    1.642369
     43          1           0        4.427155    0.516236    1.496855
     44          6           0        2.853401   -1.293470   -0.853381
     45          6           0        4.321728   -1.027324   -1.206041
     46          1           0        2.271887   -1.367457   -1.780505
     47          1           0        2.742093   -2.254082   -0.337111
     48          1           0        4.668445   -1.844185   -1.849810
     49          1           0        4.449000   -0.097280   -1.770714
     50          1           0        4.981384   -0.989934   -0.335316
 ---------------------------------------------------------------------
                    Distance matrix (angstroms):
                    1          2          3          4          5
     1  Pt   0.000000
     2  C    1.984165   0.000000
     3  C    2.934567   1.401068   0.000000
     4  C    2.934566   1.401067   2.443952   0.000000
     5  C    4.246204   2.422069   1.402452   2.823882   0.000000
     6  C    4.246204   2.422068   2.823882   1.402453   2.458083
     7  C    4.753754   2.779029   2.425162   2.425162   1.410745
     8  H    5.107008   3.419747   2.177908   3.913131   1.089659
     9  H    5.107008   3.419746   3.913132   2.177909   3.437700
    10  H    5.838457   3.865842   3.408324   3.408325   2.162623
    11  N    2.161587   2.701815   4.088897   2.509777   5.019840
    12  N    2.161587   2.701813   2.509774   4.088894   3.836459
    13  C    2.169565   4.152732   4.987206   4.987206   6.346628
    14  H    2.803156   4.697820   5.690012   5.297230   6.983867
    15  H    2.745560   4.661105   5.479905   5.479909   6.854024
    16  H    2.803155   4.697819   5.297230   5.690007   6.665872
    17  C    3.002407   2.427022   1.512005   3.746510   2.612306
    18  H    3.376182   2.885234   2.127228   4.114678   3.083224
    19  H    3.969536   3.358303   2.201495   4.606957   2.873107
    20  C    3.002408   2.427021   3.746510   1.512005   4.317668
    21  H    3.376183   2.885230   4.114674   2.127224   4.688649
    22  H    3.969537   3.358302   4.606956   2.201493   4.972615
    23  C    3.023103   3.951423   5.311983   3.777547   6.304107
    24  C    4.474578   5.036206   6.418773   4.480668   7.216584
    25  H    3.203339   4.544969   5.855749   4.570159   6.955974
    26  H    2.911684   3.878111   5.133242   3.904526   6.186849
    27  H    5.127672   5.893045   7.249191   5.452676   8.115394
    28  H    5.000205   5.512597   6.910985   4.838704   7.638952
    29  H    4.771987   4.929807   6.260426   4.176937   6.899024
    30  C    2.910843   3.449271   4.705884   3.210338   5.534836
    31  C    4.397163   4.760427   6.034242   4.172271   6.684938
    32  H    2.968186   3.017840   4.104680   2.785708   4.790154
    33  H    2.849021   3.916015   5.074052   4.016863   6.064729
    34  H    5.028498   5.338610   6.494434   4.797110   7.068575
    35  H    4.847553   4.829864   6.101671   3.948369   6.572850
    36  H    4.807755   5.477896   6.806711   4.970336   7.565303
    37  C    2.910849   3.449260   3.210321   4.705870   4.327434
    38  C    4.397183   4.760280   4.172043   6.034075   5.056802
    39  H    2.849187   3.916184   4.016975   5.074250   5.207276
    40  H    2.968026   3.017768   2.785756   4.104582   3.715565
    41  H    5.028500   5.338520   4.796987   6.494321   5.539553
    42  H    4.807871   5.477779   4.970061   6.806601   5.956283
    43  H    4.847499   4.829557   3.947970   6.101301   4.629421
    44  C    3.023107   3.951427   3.777547   5.311986   5.070879
    45  C    4.474585   5.036218   4.480677   6.418786   5.552728
    46  H    2.911699   3.878119   3.904523   5.133253   5.206535
    47  H    3.203333   4.544965   4.570157   5.855744   5.908013
    48  H    5.127676   5.893052   5.452679   7.249200   6.550468
    49  H    4.772001   4.929824   4.176945   6.260447   5.071956
    50  H    5.000209   5.512615   4.838728   6.911002   5.819318
                    6          7          8          9         10
     6  C    0.000000
     7  C    1.410744   0.000000
     8  H    3.437700   2.166766   0.000000
     9  H    1.089659   2.166765   4.324681   0.000000
    10  H    2.162623   1.086938   2.482128   2.482127   0.000000
    11  N    3.836462   4.903512   6.070078   4.290341   5.897512
    12  N    5.019836   4.903508   4.290337   6.070075   5.897507
    13  C    6.346628   6.912879   7.123896   7.123897   7.994326
    14  H    6.665873   7.387263   7.830301   7.326459   8.452056
    15  H    6.854028   7.435472   7.616820   7.616827   8.522038
    16  H    6.983863   7.387261   7.326458   7.830297   8.452053
    17  C    4.317668   3.863868   2.901907   5.404954   4.761828
    18  H    4.688654   4.266798   3.313004   5.738296   5.130533
    19  H    4.972616   4.256716   2.767232   6.052953   4.999029
    20  C    2.612306   3.863867   5.404953   2.901907   4.761828
    21  H    3.083219   4.266792   5.738290   3.313000   5.130527
    22  H    2.873105   4.256713   6.052951   2.767230   4.999027
    23  C    5.070880   6.192199   7.342499   5.406658   7.172872
    24  C    5.552718   6.837956   8.288795   5.596769   7.704326
    25  H    5.908014   6.964635   7.962995   6.300104   7.974482
    26  H    5.206539   6.208768   7.174930   5.641730   7.210835
    27  H    6.550464   7.804298   9.169188   6.610190   8.683312
    28  H    5.819292   7.157426   8.725578   5.748888   7.973540
    29  H    5.071950   6.384841   7.964569   4.995361   7.173656
    30  C    4.327457   5.357940   6.549921   4.685265   6.277864
    31  C    5.057102   6.247007   7.721415   5.098179   7.038302
    32  H    3.715482   4.605275   5.764357   4.140749   5.482265
    33  H    5.207164   6.100632   7.017142   5.677458   7.063278
    34  H    5.539723   6.628265   8.050921   5.559073   7.351232
    35  H    4.629953   5.923843   7.628249   4.460481   6.620010
    36  H    5.956651   7.179992   8.614303   5.994677   8.006191
    37  C    5.534817   5.357918   4.685241   6.549902   6.277840
    38  C    6.684703   6.246715   5.097841   7.721180   7.037981
    39  H    6.064918   6.100785   5.677532   7.017344   7.063425
    40  H    4.790107   4.605303   4.140889   5.764295   5.482313
    41  H    7.068421   6.628085   5.558887   8.050761   7.351031
    42  H    7.565096   7.179674   5.994214   8.614109   8.005825
    43  H    6.572371   5.923295   4.459907   7.627756   6.619415
    44  C    6.304110   6.192199   5.406654   7.342503   7.172872
    45  C    7.216598   6.837968   5.596775   8.288811   7.704337
    46  H    6.186857   6.208770   5.641719   7.174941   7.210834
    47  H    6.955970   6.964633   6.300103   7.962991   7.974480
    48  H    8.115403   7.804304   6.610190   9.169199   8.683317
    49  H    6.899044   6.384854   4.995359   7.964591   7.173668
    50  H    7.638974   7.157451   5.748917   8.725600   7.973566
                   11         12         13         14         15
    11  N    0.000000
    12  N    4.263625   0.000000
    13  C    3.283875   3.283876   0.000000
    14  H    3.210352   4.223170   1.106384   0.000000
    15  H    3.764504   3.764497   1.106450   1.776717   0.000000
    16  H    4.223165   3.210356   1.106384   1.765814   1.776718
    17  C    4.778556   1.528293   4.635185   5.536593   5.025365
    18  H    5.108710   2.111118   4.901243   5.877428   5.054046
    19  H    5.767649   2.166621   5.442715   6.347588   5.881285
    20  C    1.528295   4.778555   4.635187   4.707871   5.025376
    21  H    2.111117   5.108711   4.901248   5.057758   5.054061
    22  H    2.166625   5.767647   5.442717   5.334673   5.881298
    23  C    1.509552   5.158554   3.349627   3.095913   3.456404
    24  C    2.608728   6.607425   4.837836   4.445863   4.865924
    25  H    2.097719   5.271012   2.823361   2.285233   2.970432
    26  H    2.089805   4.872413   3.261969   3.312667   3.072792
    27  H    3.507450   7.218835   5.140784   4.714865   4.963888
    28  H    2.956484   7.156712   5.307508   4.738797   5.497263
    29  H    2.918921   6.815981   5.514933   5.281035   5.516876
    30  C    1.513412   4.790028   3.665173   3.279330   4.435337
    31  C    2.601035   6.318179   4.931417   4.314906   5.610537
    32  H    2.089321   4.496685   4.133856   3.941579   5.003849
    33  H    2.105252   4.604205   2.979921   2.431139   3.859642
    34  H    3.500812   6.759500   5.493922   4.828809   6.293747
    35  H    2.854581   6.775119   5.689770   5.181061   6.285882
    36  H    2.989730   6.831414   4.925828   4.146011   5.478808
    37  C    4.790033   1.513411   3.665194   4.394112   4.435348
    38  C    6.318168   2.601027   4.931608   5.687848   5.610730
    39  H    4.604427   2.105254   2.980012   3.585444   3.859683
    40  H    4.496491   2.089322   4.133673   4.701117   5.003683
    41  H    6.759476   3.500816   5.494020   6.096396   6.293846
    42  H    6.831550   2.989668   4.926208   5.728903   5.479166
    43  H    6.774963   2.854610   5.689954   6.517772   6.286106
    44  C    5.158559   1.509552   3.349629   4.434184   3.456396
    45  C    6.607434   2.608729   4.837833   5.918487   4.865913
    46  H    4.872431   2.089804   3.261986   4.358609   3.072800
    47  H    5.271004   2.097720   2.823350   3.860900   2.970408
    48  H    7.218841   3.507450   5.140781   6.222324   4.963875
    49  H    6.816001   2.918918   5.514939   6.603148   5.516878
    50  H    7.156717   2.956492   5.307495   6.328390   5.497241
                   16         17         18         19         20
    16  H    0.000000
    17  C    4.707873   0.000000
    18  H    5.057760   1.099415   0.000000
    19  H    5.334673   1.100483   1.773765   0.000000
    20  C    5.536590   4.807859   5.060963   5.781835   0.000000
    21  H    5.877431   5.060962   5.075987   6.096028   1.099413
    22  H    6.347585   5.781834   6.096030   6.701225   1.100483
    23  C    4.434181   5.808921   5.933220   6.856281   2.511132
    24  C    5.918490   7.105750   7.184440   8.163460   2.989151
    25  H    3.860908   6.171743   6.364177   7.169962   3.423819
    26  H    4.358593   5.465718   5.398893   6.548365   2.833389
    27  H    6.222328   7.800048   7.780496   8.876549   3.993735
    28  H    6.328403   7.690497   7.895984   8.704875   3.353195
    29  H    6.603141   7.082823   7.087485   8.146020   2.717783
    30  C    4.394082   5.433430   6.005901   6.271332   2.496357
    31  C    5.687648   6.897524   7.448214   7.729883   3.192151
    32  H    4.701321   4.961930   5.671148   5.689109   2.596533
    33  H    3.585305   5.524840   6.126661   6.314444   3.408376
    34  H    6.096289   7.359530   8.028803   8.087403   4.057044
    35  H    6.517614   7.141599   7.633333   7.995257   2.903394
    36  H    5.728475   7.547437   8.017751   8.429396   3.797105
    37  C    3.279353   2.496345   3.388444   2.620543   5.433425
    38  C    4.315160   3.191974   4.000488   2.764202   6.897429
    39  H    2.431149   3.408397   4.192224   3.676891   5.525056
    40  H    3.941412   2.596637   3.645094   2.729000   4.961778
    41  H    4.828941   4.056972   4.965431   3.585331   7.359455
    42  H    4.146479   3.796800   4.400371   3.427967   7.547447
    43  H    5.181341   2.903172   3.649659   2.141171   7.141323
    44  C    3.095920   2.511128   2.497031   2.960671   5.808928
    45  C    4.445860   2.989158   2.782463   2.952983   7.105766
    46  H    3.312689   2.833376   2.466511   3.525887   5.465737
    47  H    2.285231   3.423818   3.558705   3.828397   6.171738
    48  H    4.714866   3.993735   3.625171   4.027893   7.800060
    49  H    5.281038   2.717784   2.250946   2.594308   7.082850
    50  H    4.738779   3.353223   3.431579   3.001984   7.690512
                   21         22         23         24         25
    21  H    0.000000
    22  H    1.773762   0.000000
    23  C    2.497032   2.960681   0.000000
    24  C    2.782441   2.952989   1.533359   0.000000
    25  H    3.558706   3.828398   1.096220   2.180649   0.000000
    26  H    2.466528   3.525907   1.096901   2.155818   1.758006
    27  H    3.625163   4.027903   2.142557   1.096318   2.483366
    28  H    3.431537   3.001961   2.211072   1.093026   2.571484
    29  H    2.250920   2.594332   2.195065   1.095460   3.101701
    30  C    3.388451   2.620561   2.534348   3.347299   2.617900
    31  C    4.000615   2.764460   3.102250   3.222200   3.166091
    32  H    3.645007   2.728815   3.430651   4.254500   3.627178
    33  H    4.192225   3.676921   2.806117   3.837825   2.460936
    34  H    4.965477   3.585432   4.135444   4.299545   4.068662
    35  H    3.649767   2.141490   3.357581   3.113980   3.724842
    36  H    4.400661   3.428429   2.949443   2.859834   2.782000
    37  C    6.005897   6.271325   5.836810   7.285294   5.781080
    38  C    7.448133   7.729776   7.348556   8.808797   7.257534
    39  H    6.126856   6.314676   5.506228   6.980122   5.255963
    40  H    5.671012   5.688948   5.743597   7.088023   5.792083
    41  H    8.028741   8.087316   7.864797   9.288050   7.717676
    42  H    8.017756   8.429414   7.694396   9.201649   7.501734
    43  H    7.633097   7.994941   7.861652   9.286084   7.901728
    44  C    5.933232   6.856287   5.706871   7.188777   5.700886
    45  C    7.184464   8.163474   7.188782   8.643504   7.222126
    46  H    5.398916   6.548384   5.209063   6.627386   5.292504
    47  H    6.364175   7.169956   5.700872   7.222111   5.484323
    48  H    7.780515   8.876560   7.607597   9.050202   7.574580
    49  H    7.087523   8.146045   7.456410   8.837978   7.643307
    50  H    7.896007   8.704887   7.857822   9.343895   7.826359
                   26         27         28         29         30
    26  H    0.000000
    27  H    2.444504   0.000000
    28  H    3.093941   1.766740   0.000000
    29  H    2.520565   1.762409   1.772181   0.000000
    30  C    3.402496   4.267683   3.191742   3.838895   0.000000
    31  C    4.159341   4.125220   2.582063   3.734178   1.530378
    32  H    4.154629   5.238064   4.116636   4.559632   1.096732
    33  H    3.602182   4.576900   3.715428   4.527638   1.095382
    34  H    5.182061   5.162327   3.580418   4.806846   2.145191
    35  H    4.351159   4.101964   2.435145   3.324532   2.201665
    36  H    4.045096   3.549386   2.072295   3.605658   2.188093
    37  C    5.795544   7.965154   7.645224   7.605314   4.844229
    38  C    7.254905   9.466942   9.172700   9.117803   6.325402
    39  H    5.553912   7.593964   7.279163   7.449399   4.500214
    40  H    5.844293   7.883851   7.347912   7.340025   4.383472
    41  H    7.904836   9.993504   9.536623   9.637558   6.526075
    42  H    7.521621   9.758466   9.615698   9.578257   6.903465
    43  H    7.692000   9.975084   9.702896   9.478347   6.909377
    44  C    5.209050   7.607597   7.857823   7.456392   5.836803
    45  C    6.627381   9.050207   9.343898   8.837966   7.285288
    46  H    4.543835   6.957110   7.405537   6.839892   5.795552
    47  H    5.292475   7.574567   7.826353   7.643279   5.781058
    48  H    6.957100   9.336988   9.805311   9.283653   7.965144
    49  H    6.839904   9.283673   9.580695   8.897978   7.605320
    50  H    7.405526   9.805310   9.962822   9.580683   7.645212
                   31         32         33         34         35
    31  C    0.000000
    32  H    2.168894   0.000000
    33  H    2.163407   1.763128   0.000000
    34  H    1.095767   2.414379   2.532213   0.000000
    35  H    1.096717   2.608735   3.093216   1.767101   0.000000
    36  H    1.094835   3.082341   2.465043   1.765716   1.780701
    37  C    6.325415   4.383694   4.499974   6.526109   6.909563
    38  C    7.776002   5.798241   5.938012   7.885403   8.370011
    39  H    5.938210   4.211212   3.932718   6.103568   6.662789
    40  H    5.798085   3.718441   4.210713   5.915074   6.303244
    41  H    7.885386   5.915228   6.103322   7.841914   8.518258
    42  H    8.367413   6.512241   6.393689   8.515657   9.029482
    43  H    8.369853   6.303176   6.662442   8.518085   8.854547
    44  C    7.348513   5.743796   5.506035   7.864788   7.861720
    45  C    8.808774   7.088219   6.979914   9.288052   9.286199
    46  H    7.254869   5.844479   5.553769   7.904833   7.692040
    47  H    7.257426   5.792290   5.255770   7.717627   7.901713
    48  H    9.466885   7.884048   7.593775   9.993484   9.975138
    49  H    9.117829   7.340206   7.449198   9.637590   9.478526
    50  H    9.172675   7.348118   7.278929   9.536624   9.703034
                   36         37         38         39         40
    36  H    0.000000
    37  C    6.903292   0.000000
    38  C    8.367247   1.530378   0.000000
    39  H    6.393657   1.095382   2.163413   0.000000
    40  H    6.511906   1.096732   2.168889   1.763129   0.000000
    41  H    8.515443   2.145192   1.095768   2.532173   2.414416
    42  H    8.849476   2.188092   1.094836   2.465092   3.082347
    43  H    9.029200   2.201661   1.096717   3.093224   2.608678
    44  C    7.694188   2.534349   3.102369   2.806002   3.430656
    45  C    9.201455   3.347283   3.222269   3.837638   4.254576
    46  H    7.521454   3.402501   4.159437   3.602128   4.154610
    47  H    7.501427   2.617916   3.166338   2.460788   3.627142
    48  H    9.758230   4.267676   4.125359   4.576705   5.238122
    49  H    9.578143   3.838865   3.734122   4.527483   4.559729
    50  H    9.615476   3.191727   2.582151   3.715196   4.116749
                   41         42         43         44         45
    41  H    0.000000
    42  H    1.765720   0.000000
    43  H    1.767102   1.780703   0.000000
    44  C    4.135511   2.949474   3.357878   0.000000
    45  C    4.299589   2.859636   3.114376   1.533358   0.000000
    46  H    5.182118   4.045136   4.351387   1.096901   2.155817
    47  H    4.068796   2.782288   3.725255   1.096221   2.180647
    48  H    5.162413   3.549320   4.102435   2.142555   1.096318
    49  H    4.806823   3.605298   3.324739   2.195064   1.095461
    50  H    3.580475   2.071984   2.435686   2.211071   1.093026
                   46         47         48         49         50
    46  H    0.000000
    47  H    1.758006   0.000000
    48  H    2.444496   2.483366   0.000000
    49  H    2.520569   3.101700   1.762410   0.000000
    50  H    3.093941   2.571478   1.766739   1.772183   0.000000
 Stoichiometry    C17H30N2Pt
 Framework group  C1[X(C17H30N2Pt)]
 Deg. of freedom   144
 Full point group                 C1      NOp   1
 Largest Abelian subgroup         C1      NOp   1
 Largest concise Abelian subgroup C1      NOp   1
                         Standard orientation:                         
 ---------------------------------------------------------------------
 Center     Atomic      Atomic             Coordinates (Angstroms)
 Number     Number       Type             X           Y           Z
 ---------------------------------------------------------------------
      1         78           0       -0.000018   -0.611969   -0.123496
      2          6           0        0.000037    1.369083   -0.234590
      3          6           0        1.222033    2.054290   -0.220134
      4          6           0       -1.221919    2.054358   -0.220124
      5          6           0        1.229138    3.452419   -0.110333
      6          6           0       -1.228945    3.452488   -0.110323
      7          6           0        0.000116    4.140970   -0.035481
      8          1           0        2.162453    4.014504   -0.091861
      9          1           0       -2.162228    4.014626   -0.091843
     10          1           0        0.000147    5.223548    0.061772
     11          7           0       -2.131821   -0.274720   -0.004593
     12          7           0        2.131804   -0.274836   -0.004600
     13          6           0       -0.000077   -2.770717    0.092886
     14          1           0       -0.882997   -3.162872    0.632100
     15          1           0       -0.000084   -3.243176   -0.907621
     16          1           0        0.882817   -3.162918    0.632110
     17          6           0        2.403960    1.149721   -0.486522
     18          1           0        2.538019    1.076048   -1.575243
     19          1           0        3.350655    1.515544   -0.061074
     20          6           0       -2.403899    1.149857   -0.486506
     21          1           0       -2.537968    1.076197   -1.575225
     22          1           0       -3.350570    1.515735   -0.061053
     23          6           0       -2.853470   -1.293311   -0.853382
     24          6           0       -4.321776   -1.027069   -1.206063
     25          1           0       -2.742230   -2.253927   -0.337107
     26          1           0       -2.271948   -1.367337   -1.780498
     27          1           0       -4.668543   -1.843915   -1.849824
     28          1           0       -4.981438   -0.989620   -0.335345
     29          1           0       -4.448978   -0.097025   -1.770750
     30          6           0       -2.422121   -0.392868    1.476009
     31          6           0       -3.888014   -0.343639    1.912806
     32          1           0       -1.859309    0.422755    1.945927
     33          1           0       -1.966274   -1.331753    1.808515
     34          1           0       -3.920981   -0.254241    3.004422
     35          1           0       -4.427392    0.515860    1.496729
     36          1           0       -4.424640   -1.258862    1.642505
     37          6           0        2.422108   -0.392975    1.476001
     38          6           0        3.887988   -0.343456    1.912807
     39          1           0        1.966444   -1.331960    1.808474
     40          1           0        1.859132    0.422523    1.945940
     41          1           0        3.920933   -0.254209    3.004437
     42          1           0        4.424836   -1.258510    1.642369
     43          1           0        4.427155    0.516236    1.496855
     44          6           0        2.853401   -1.293470   -0.853381
     45          6           0        4.321728   -1.027324   -1.206041
     46          1           0        2.271887   -1.367457   -1.780505
     47          1           0        2.742093   -2.254082   -0.337111
     48          1           0        4.668445   -1.844185   -1.849810
     49          1           0        4.449000   -0.097280   -1.770714
     50          1           0        4.981384   -0.989934   -0.335316
 ---------------------------------------------------------------------
 Rotational constants (GHZ):           0.3927692           0.2419997           0.1785483
 General basis read from cards:  (5D, 7F)
 ======================================================================================================
                                       Pseudopotential Parameters
 ======================================================================================================
  Center     Atomic      Valence      Angular      Power
  Number     Number     Electrons     Momentum     of R      Exponent        Coefficient   SO-Coeffient
 ======================================================================================================
    1         78           18
                                      G and up 
                                                     1      728.9394056       -0.16192680    0.00000000
                                                     2      320.6567800    -1320.28738520    0.00000000
                                                     2       52.8680174     -298.31781350    0.00000000
                                                     2       12.0280128      -87.58370650    0.00000000
                                                     2        3.5238913       -8.14932740    0.00000000
                                      S - G
                                                     0      409.4437358        2.73342180    0.00000000
                                                     1      274.5419231       59.70243290    0.00000000
                                                     2      127.5658570      891.45895500    0.00000000
                                                     2       32.9036631      368.44676560    0.00000000
                                                     2        5.0593880      238.02630900    0.00000000
                                                     2        4.1506556     -107.05564540    0.00000000
                                      P - G
                                                     0      466.1728892        1.88785680    0.00000000
                                                     1      120.7888259       76.01386290    0.00000000
                                                     2       36.4118791      343.55111160    0.00000000
                                                     2        5.6985408      119.49117860    0.00000000
                                      D - G
                                                     0      249.5650763        2.93436780    0.00000000
                                                     1      126.6678585       59.33065710    0.00000000
                                                     2       63.1430586      452.44451940    0.00000000
                                                     2       17.9059470      210.47694790    0.00000000
                                                     2        4.2239373       58.62541120    0.00000000
                                      F - G
                                                     0      121.8158799        3.95342530    0.00000000
                                                     1       60.8757030       53.85551820    0.00000000
                                                     2       31.4767147      247.43051330    0.00000000
                                                     2        9.8811751      127.81879760    0.00000000
                                                     2        2.7319874       15.37720460    0.00000000
    2          6
                                   No pseudopotential on this center.
    3          6
                                   No pseudopotential on this center.
    4          6
                                   No pseudopotential on this center.
    5          6
                                   No pseudopotential on this center.
    6          6
                                   No pseudopotential on this center.
    7          6
                                   No pseudopotential on this center.
    8          1
                                   No pseudopotential on this center.
    9          1
                                   No pseudopotential on this center.
   10          1
                                   No pseudopotential on this center.
   11          7
                                   No pseudopotential on this center.
   12          7
                                   No pseudopotential on this center.
   13          6
                                   No pseudopotential on this center.
   14          1
                                   No pseudopotential on this center.
   15          1
                                   No pseudopotential on this center.
   16          1
                                   No pseudopotential on this center.
   17          6
                                   No pseudopotential on this center.
   18          1
                                   No pseudopotential on this center.
   19          1
                                   No pseudopotential on this center.
   20          6
                                   No pseudopotential on this center.
   21          1
                                   No pseudopotential on this center.
   22          1
                                   No pseudopotential on this center.
   23          6
                                   No pseudopotential on this center.
   24          6
                                   No pseudopotential on this center.
   25          1
                                   No pseudopotential on this center.
   26          1
                                   No pseudopotential on this center.
   27          1
                                   No pseudopotential on this center.
   28          1
                                   No pseudopotential on this center.
   29          1
                                   No pseudopotential on this center.
   30          6
                                   No pseudopotential on this center.
   31          6
                                   No pseudopotential on this center.
   32          1
                                   No pseudopotential on this center.
   33          1
                                   No pseudopotential on this center.
   34          1
                                   No pseudopotential on this center.
   35          1
                                   No pseudopotential on this center.
   36          1
                                   No pseudopotential on this center.
   37          6
                                   No pseudopotential on this center.
   38          6
                                   No pseudopotential on this center.
   39          1
                                   No pseudopotential on this center.
   40          1
                                   No pseudopotential on this center.
   41          1
                                   No pseudopotential on this center.
   42          1
                                   No pseudopotential on this center.
   43          1
                                   No pseudopotential on this center.
   44          6
                                   No pseudopotential on this center.
   45          6
                                   No pseudopotential on this center.
   46          1
                                   No pseudopotential on this center.
   47          1
                                   No pseudopotential on this center.
   48          1
                                   No pseudopotential on this center.
   49          1
                                   No pseudopotential on this center.
   50          1
                                   No pseudopotential on this center.
 ======================================================================================================
 There are   703 symmetry adapted cartesian basis functions of A   symmetry.
 There are   659 symmetry adapted basis functions of A   symmetry.
   659 basis functions,  1010 primitive gaussians,   703 cartesian basis functions
    82 alpha electrons       82 beta electrons
       nuclear repulsion energy      1939.5106481485 Hartrees.
 NAtoms=   50 NActive=   50 NUniq=   50 SFac= 1.00D+00 NAtFMM=   60 NAOKFM=F Big=F
 Integral buffers will be    131072 words long.
 Raffenetti 2 integral format.
 Two-electron integral symmetry is turned on.
 Nuclear repulsion after empirical dispersion term =     1939.4990765679 Hartrees.
 ------------------------------------------------------------------------------
 Polarizable Continuum Model (PCM)
 =================================
 Model                : PCM.
 Atomic radii         : UFF (Universal Force Field).
 Polarization charges : Total charges.
 Charge compensation  : None.
 Solution method      : On-the-fly selection.
 Cavity type          : Scaled VdW (van der Waals Surface) (Alpha=1.100).
 Cavity algorithm     : GePol (No added spheres)
                        Default sphere list used, NSphG=   50.
                        Lebedev-Laikov grids with approx.  5.0 points / Ang**2.
                        Smoothing algorithm: York/Karplus (Gamma=1.0000).
                        Polarization charges: spherical gaussians, with
                                              point-specific exponents (IZeta= 3).
                        Self-potential: point-specific (ISelfS= 7).
                        Self-field    : sphere-specific E.n sum rule (ISelfD= 2).
 1st derivatives      : Analytical E(r).r(x)/FMM algorithm (CHGder, D1EAlg=3).
                        Cavity 1st derivative terms included.
 Solvent              : TetraHydroFuran, Eps=   7.425700 Eps(inf)=   1.974025
 ------------------------------------------------------------------------------
 One-electron integrals computed using PRISM.
 PrsmSu:  requested number of processors reduced to:   3 ShMem   1 Linda.
 PrsmSu:  requested number of processors reduced to:  11 ShMem   1 Linda.
   1 Symmetry operations used in ECPInt.
 ECPInt:  NShTT=   30876 NPrTT=   97893 LenC2=   27028 LenP2D=   58480.
 LDataN:  DoStor=T MaxTD1= 7 Len=  274
 Number of processors reduced to   6 by ecpmxn.
 NBasis=   659 RedAO= T EigKep=  5.27D-05  NBF=   659
 NBsUse=   659 1.00D-06 EigRej= -1.00D+00 NBFU=   659
 Defaulting to unpruned grid for atomic number  78.
 ExpMin= 2.90D-02 ExpMax= 6.29D+03 ExpMxC= 9.49D+02 IAcc=3 IRadAn=         5 AccDes= 0.00D+00
 Harris functional with IExCor= 1009 and IRadAn=       5 diagonalized for initial guess.
 HarFok:  IExCor= 1009 AccDes= 0.00D+00 IRadAn=         5 IDoV= 1 UseB2=F ITyADJ=14
 ICtDFT=  3500011 ScaDFX=  1.000000  1.000000  1.000000  1.000000
 Defaulting to unpruned grid for atomic number  78.
 FoFCou: FMM=F IPFlag=           0 FMFlag=      100000 FMFlg1=           0
         NFxFlg=           0 DoJE=T BraDBF=F KetDBF=T FulRan=T
         wScrn=  0.000000 ICntrl=       500 IOpCl=  0 I1Cent=   200000004 NGrid=           0
         NMat0=    1 NMatS0=      1 NMatT0=    0 NMatD0=    1 NMtDS0=    0 NMtDT0=    0
 Petite list used in FoFCou.
 CoulSu:  requested number of processors reduced to:  10 ShMem   1 Linda.
 CoulSu:  requested number of processors reduced to:  10 ShMem   1 Linda.
 Requested convergence on RMS density matrix=1.00D-08 within 128 cycles.
 Requested convergence on MAX density matrix=1.00D-06.
 Requested convergence on             energy=1.00D-06.
 No special actions if energy rises.
 CoulSu:  requested number of processors reduced to:  11 ShMem   1 Linda.
 Defaulting to unpruned grid for atomic number  78.
 Defaulting to unpruned grid for atomic number  78.
 Defaulting to unpruned grid for atomic number  78.
 Defaulting to unpruned grid for atomic number  78.
 Defaulting to unpruned grid for atomic number  78.
 Defaulting to unpruned grid for atomic number  78.
 Defaulting to unpruned grid for atomic number  78.
 Defaulting to unpruned grid for atomic number  78.
 Defaulting to unpruned grid for atomic number  78.
 Defaulting to unpruned grid for atomic number  78.
 Defaulting to unpruned grid for atomic number  78.
 Defaulting to unpruned grid for atomic number  78.
 CoulSu:  requested number of processors reduced to:   1 ShMem   1 Linda.
 CoulSu:  requested number of processors reduced to:   1 ShMem   1 Linda.
 Inv3:  Mode=2 IEnd=    18960482.
 Iteration    1 A*A^-1 deviation from unit magnitude is 3.11D-15 for   2289.
 Iteration    1 A*A^-1 deviation from orthogonality  is 1.92D-15 for   1939   1905.
 Iteration    1 A^-1*A deviation from unit magnitude is 3.11D-15 for   1528.
 Iteration    1 A^-1*A deviation from orthogonality  is 1.78D-15 for   2722    892.
 CoulSu:  requested number of processors reduced to:   1 ShMem   1 Linda.
 CoulSu:  requested number of processors reduced to:   1 ShMem   1 Linda.
 CoulSu:  requested number of processors reduced to:  11 ShMem   1 Linda.
 CoulSu:  requested number of processors reduced to:  11 ShMem   1 Linda.
 CoulSu:  requested number of processors reduced to:  11 ShMem   1 Linda.
 CoulSu:  requested number of processors reduced to:  11 ShMem   1 Linda.
 CoulSu:  requested number of processors reduced to:  11 ShMem   1 Linda.
 CoulSu:  requested number of processors reduced to:  11 ShMem   1 Linda.
 CoulSu:  requested number of processors reduced to:  11 ShMem   1 Linda.
 CoulSu:  requested number of processors reduced to:  11 ShMem   1 Linda.
 CoulSu:  requested number of processors reduced to:  11 ShMem   1 Linda.
 CoulSu:  requested number of processors reduced to:  11 ShMem   1 Linda.
 CoulSu:  requested number of processors reduced to:  11 ShMem   1 Linda.
 CoulSu:  requested number of processors reduced to:  11 ShMem   1 Linda.
 CoulSu:  requested number of processors reduced to:  11 ShMem   1 Linda.
 CoulSu:  requested number of processors reduced to:  11 ShMem   1 Linda.
 CoulSu:  requested number of processors reduced to:  11 ShMem   1 Linda.
 CoulSu:  requested number of processors reduced to:  11 ShMem   1 Linda.
 CoulSu:  requested number of processors reduced to:  11 ShMem   1 Linda.
 CoulSu:  requested number of processors reduced to:  11 ShMem   1 Linda.
 CoulSu:  requested number of processors reduced to:  11 ShMem   1 Linda.
 CoulSu:  requested number of processors reduced to:  11 ShMem   1 Linda.
 CoulSu:  requested number of processors reduced to:  11 ShMem   1 Linda.
 CoulSu:  requested number of processors reduced to:  11 ShMem   1 Linda.
 CoulSu:  requested number of processors reduced to:  11 ShMem   1 Linda.
 CoulSu:  requested number of processors reduced to:  11 ShMem   1 Linda.
 CoulSu:  requested number of processors reduced to:  11 ShMem   1 Linda.
 CoulSu:  requested number of processors reduced to:  11 ShMem   1 Linda.
 CoulSu:  requested number of processors reduced to:  11 ShMem   1 Linda.
 CoulSu:  requested number of processors reduced to:  11 ShMem   1 Linda.
 CoulSu:  requested number of processors reduced to:   6 ShMem   1 Linda.
 CoulSu:  requested number of processors reduced to:   5 ShMem   1 Linda.
 CoulSu:  requested number of processors reduced to:  11 ShMem   1 Linda.
 Error on total polarization charges =  0.01702
 SCF Done:  E(RM06) =  -894.118869064     A.U. after   15 cycles
            NFock= 15  Conv=0.30D-08     -V/T= 2.1056

 **********************************************************************

            Population analysis using the SCF Density.

 **********************************************************************

 Orbital symmetries:
       Occupied  (A) (A) (A) (A) (A) (A) (A) (A) (A) (A) (A) (A)
                 (A) (A) (A) (A) (A) (A) (A) (A) (A) (A) (A) (A)
                 (A) (A) (A) (A) (A) (A) (A) (A) (A) (A) (A) (A)
                 (A) (A) (A) (A) (A) (A) (A) (A) (A) (A) (A) (A)
                 (A) (A) (A) (A) (A) (A) (A) (A) (A) (A) (A) (A)
                 (A) (A) (A) (A) (A) (A) (A) (A) (A) (A) (A) (A)
                 (A) (A) (A) (A) (A) (A) (A) (A) (A) (A)
       Virtual   (A) (A) (A) (A) (A) (A) (A) (A) (A) (A) (A) (A)
                 (A) (A) (A) (A) (A) (A) (A) (A) (A) (A) (A) (A)
                 (A) (A) (A) (A) (A) (A) (A) (A) (A) (A) (A) (A)
                 (A) (A) (A) (A) (A) (A) (A) (A) (A) (A) (A) (A)
                 (A) (A) (A) (A) (A) (A) (A) (A) (A) (A) (A) (A)
                 (A) (A) (A) (A) (A) (A) (A) (A) (A) (A) (A) (A)
                 (A) (A) (A) (A) (A) (A) (A) (A) (A) (A) (A) (A)
                 (A) (A) (A) (A) (A) (A) (A) (A) (A) (A) (A) (A)
                 (A) (A) (A) (A) (A) (A) (A) (A) (A) (A) (A) (A)
                 (A) (A) (A) (A) (A) (A) (A) (A) (A) (A) (A) (A)
                 (A) (A) (A) (A) (A) (A) (A) (A) (A) (A) (A) (A)
                 (A) (A) (A) (A) (A) (A) (A) (A) (A) (A) (A) (A)
                 (A) (A) (A) (A) (A) (A) (A) (A) (A) (A) (A) (A)
                 (A) (A) (A) (A) (A) (A) (A) (A) (A) (A) (A) (A)
                 (A) (A) (A) (A) (A) (A) (A) (A) (A) (A) (A) (A)
                 (A) (A) (A) (A) (A) (A) (A) (A) (A) (A) (A) (A)
                 (A) (A) (A) (A) (A) (A) (A) (A) (A) (A) (A) (A)
                 (A) (A) (A) (A) (A) (A) (A) (A) (A) (A) (A) (A)
                 (A) (A) (A) (A) (A) (A) (A) (A) (A) (A) (A) (A)
                 (A) (A) (A) (A) (A) (A) (A) (A) (A) (A) (A) (A)
                 (A) (A) (A) (A) (A) (A) (A) (A) (A) (A) (A) (A)
                 (A) (A) (A) (A) (A) (A) (A) (A) (A) (A) (A) (A)
                 (A) (A) (A) (A) (A) (A) (A) (A) (A) (A) (A) (A)
                 (A) (A) (A) (A) (A) (A) (A) (A) (A) (A) (A) (A)
                 (A) (A) (A) (A) (A) (A) (A) (A) (A) (A) (A) (A)
                 (A) (A) (A) (A) (A) (A) (A) (A) (A) (A) (A) (A)
                 (A) (A) (A) (A) (A) (A) (A) (A) (A) (A) (A) (A)
                 (A) (A) (A) (A) (A) (A) (A) (A) (A) (A) (A) (A)
                 (A) (A) (A) (A) (A) (A) (A) (A) (A) (A) (A) (A)
                 (A) (A) (A) (A) (A) (A) (A) (A) (A) (A) (A) (A)
                 (A) (A) (A) (A) (A) (A) (A) (A) (A) (A) (A) (A)
                 (A) (A) (A) (A) (A) (A) (A) (A) (A) (A) (A) (A)
                 (A) (A) (A) (A) (A) (A) (A) (A) (A) (A) (A) (A)
                 (A) (A) (A) (A) (A) (A) (A) (A) (A) (A) (A) (A)
                 (A) (A) (A) (A) (A) (A) (A) (A) (A) (A) (A) (A)
                 (A) (A) (A) (A) (A) (A) (A) (A) (A) (A) (A) (A)
                 (A) (A) (A) (A) (A) (A) (A) (A) (A) (A) (A) (A)
                 (A) (A) (A) (A) (A) (A) (A) (A) (A) (A) (A) (A)
                 (A) (A) (A) (A) (A) (A) (A) (A) (A) (A) (A) (A)
                 (A) (A) (A) (A) (A) (A) (A) (A) (A) (A) (A) (A)
                 (A) (A) (A) (A) (A) (A) (A) (A) (A) (A) (A) (A)
                 (A) (A) (A) (A) (A) (A) (A) (A) (A) (A) (A) (A)
                 (A) (A) (A) (A) (A) (A) (A) (A) (A) (A) (A) (A)
                 (A) (A) (A) (A) (A) (A) (A) (A) (A) (A) (A) (A)
                 (A) (A) (A) (A) (A) (A) (A) (A) (A) (A) (A) (A)
                 (A) (A) (A) (A) (A) (A) (A) (A) (A) (A) (A) (A)
                 (A) (A) (A) (A) (A) (A) (A) (A) (A) (A) (A) (A)
                 (A) (A) (A) (A) (A) (A) (A) (A) (A) (A) (A) (A)
                 (A)
 The electronic state is 1-A.
 Alpha  occ. eigenvalues --  -14.44678 -14.44677 -10.27577 -10.27577 -10.27288
 Alpha  occ. eigenvalues --  -10.27288 -10.27207 -10.27207 -10.23300 -10.23300
 Alpha  occ. eigenvalues --  -10.23177 -10.23176 -10.23100 -10.23100 -10.23082
 Alpha  occ. eigenvalues --  -10.23081 -10.22720 -10.20249 -10.16737  -3.86606
 Alpha  occ. eigenvalues --   -2.10560  -2.09996  -2.07643  -0.95645  -0.95242
 Alpha  occ. eigenvalues --   -0.85486  -0.78934  -0.77932  -0.77927  -0.77037
 Alpha  occ. eigenvalues --   -0.74374  -0.73771  -0.69020  -0.68973  -0.64949
 Alpha  occ. eigenvalues --   -0.64914  -0.63633  -0.60542  -0.60251  -0.57454
 Alpha  occ. eigenvalues --   -0.57088  -0.51585  -0.51516  -0.50708  -0.50030
 Alpha  occ. eigenvalues --   -0.49874  -0.47484  -0.47457  -0.45609  -0.44326
 Alpha  occ. eigenvalues --   -0.43291  -0.43265  -0.42802  -0.42657  -0.42185
 Alpha  occ. eigenvalues --   -0.41226  -0.41216  -0.40979  -0.40784  -0.40616
 Alpha  occ. eigenvalues --   -0.40414  -0.39054  -0.37676  -0.37598  -0.36752
 Alpha  occ. eigenvalues --   -0.36454  -0.35844  -0.35400  -0.34941  -0.34784
 Alpha  occ. eigenvalues --   -0.34734  -0.34168  -0.33719  -0.33208  -0.29974
 Alpha  occ. eigenvalues --   -0.27102  -0.24967  -0.23377  -0.22468  -0.21548
 Alpha  occ. eigenvalues --   -0.20902  -0.20009
 Alpha virt. eigenvalues --   -0.01678  -0.00213   0.00072   0.00510   0.00770
[...]
 ,0.00000420,-0.00000043,0.00000960,-0.00000749,0.00000902,-0.00000028,
 -0.00000703,-0.00000326,0.00000045,0.00000327,0.00000364,0.00000220,0.
 00000184,-0.00030052,0.00021318,0.00194913,-0.00023167,-0.00004045,-0.
 00024422,0.00023606,0.00047030,-0.00049295,0.00013590,0.00044170,0.000
 09672,-0.00006726,0.00009790,0.00000408,-0.00026098,-0.00010701,-0.000
 21037,0.00007789,0.00010234,0.00005454,-0.01650771,-0.24204638,0.10862
 727,-0.00131375,-0.00359363,0.00320897,-0.00002521,0.00321182,-0.00119
 189,0.01569711,0.26861525,-0.00046562,0.00026539,-0.00004296,-0.000088
 67,-0.00002970,0.00003741,-0.00050309,-0.00090853,0.00042758,-0.000002
 93,0.00001243,-0.00001290,0.00028254,-0.00006397,-0.00001509,0.0000150
 5,-0.00001517,-0.00000273,-0.00001360,-0.00006975,-0.00006382,-0.00001
 204,-0.00000161,0.00001452,0.00000779,-0.00000389,0.00000781,0.0000257
 2,-0.00002300,-0.00000085,0.00000470,-0.00002969,0.00001165,0.00143882
 ,-0.02155811,0.00626644,0.00093465,0.00001479,-0.00032241,0.00017303,0
 .00012514,-0.00007394,-0.00028013,-0.00011993,-0.00008053,0.00038612,0
 .00028161,0.00003656,0.00231809,-0.00190443,-0.00204199,0.00004087,-0.
 00011159,0.00026016,-0.00011054,-0.00010056,0.00015607,0.00000271,-0.0
 0001151,-0.00000267,0.00000784,0.00000725,-0.00000005,0.00000504,0.000
 00199,-0.00000095,0.00000005,0.00001017,-0.00000177,-0.00000095,-0.000
 00273,0.00000311,-0.00000856,0.00000461,-0.00000064,0.00000022,0.00000
 191,-0.00000055,-0.00000085,0.00000065,-0.00000137,0.,0.00000031,-0.00
 000007,0.00000114,-0.00000125,-0.00000003,-0.00001408,0.00000074,0.000
 00685,-0.00000035,0.00000078,0.00000132,0.00000232,-0.00000533,0.00000
 313,-0.00000456,0.00000813,0.00000562,0.00000010,0.00000047,-0.0000005
 8,-0.00000101,0.,0.00000043,-0.00000107,-0.00000012,-0.00000039,-0.000
 49563,-0.00165458,0.00108668,0.00003825,-0.00017839,-0.00006545,0.0003
 9868,0.00003803,-0.00021847,-0.00002848,0.00003832,0.00022216,-0.00002
 797,0.00003383,0.00002612,-0.00027031,-0.00000430,-0.00026686,0.000096
 07,-0.00001852,-0.00002766,0.00694127,0.11716244,-0.11071217,0.0010173
 9,0.00470342,-0.00281329,0.00223270,0.02195287,-0.01102836,-0.01584138
 ,-0.11717031,0.11804990,0.00077574,0.00071913,0.00037250,-0.00001881,-
 0.00019981,0.00002767,0.00015639,0.00018146,-0.00001949,0.00002141,0.0
 0003054,-0.00000914,-0.00004146,-0.00003817,-0.00001574,-0.00000410,0.
 00002187,0.00000283,-0.00003208,0.00004571,0.00000952,0.00001093,0.000
 01170,0.00000178,-0.00001163,0.00001157,0.00000089,-0.00000650,0.00001
 548,0.00000310,-0.00055694,-0.00005313,-0.00009975,-0.00674738,-0.0012
 2187,0.00174053,0.00012946,0.00000338,-0.00001037,-0.00001469,-0.00001
 368,0.00000332,-0.00001498,-0.00004626,-0.00002850,0.00000802,-0.00005
 393,0.00001811,-0.00035853,-0.00140169,0.00012072,0.00002604,0.0000180
 4,0.00002643,0.00025042,-0.00002624,0.00004990,-0.00000059,-0.00011940
 ,0.00005408,-0.00000508,-0.00000052,-0.00001071,-0.00001686,0.00003394
 ,-0.00000439,-0.00003408,0.00013524,0.00009439,-0.00001443,-0.00005298
 ,-0.00002737,-0.00000197,-0.00001114,0.00000085,0.00000371,-0.00000105
 ,-0.00001322,-0.00002468,-0.00000344,-0.00001150,-0.00000321,0.0000033
 5,0.00000438,0.00000241,0.00000657,0.00000157,-0.00000813,0.00001385,-
 0.00015080,0.00000580,0.00000160,0.00003911,0.00000526,-0.00000066,0.0
 0000432,0.00000820,-0.00000626,0.00000837,-0.00001485,0.00000014,0.000
 01223,-0.00000175,0.00000213,-0.00000575,-0.00000486,-0.00000315,-0.00
 000363,-0.00068358,0.00021702,-0.00093710,0.00003704,-0.00010879,-0.00
 035300,0.00003161,-0.00001284,0.00009380,0.00010313,-0.00000425,0.0002
 6530,0.00017247,0.00000411,-0.00009745,0.00011068,-0.00017711,-0.00001
 542,0.00005846,0.00019246,-0.00001129,-0.00970271,0.02467797,0.0181022
 6,-0.07034322,0.06266372,0.04764923,0.00111581,0.00044001,-0.00083341,
 0.00132605,-0.00026870,0.00013371,0.07797516,-0.00002657,-0.00001530,-
 0.00003034,0.00014576,-0.00012684,-0.00003142,-0.00001405,0.00033658,-
 0.00010149,-0.00000751,0.00005892,0.00001475,0.00001979,0.00004903,-0.
 00000389,0.00000604,-0.00005531,-0.00000427,0.00004864,-0.00000549,0.0
 0001374,-0.00001448,0.00000541,-0.00000628,0.00000840,-0.00000540,-0.0
 0000255,0.00000750,-0.00001322,-0.00000019,-0.00002346,0.00000132,0.00
 001544,-0.00200714,0.00045798,0.00105523,0.00001152,0.00002983,-0.0000
 3751,0.00002450,0.00001061,0.00000058,-0.00000159,0.00001072,0.0000040
 4,0.00000704,-0.00001807,0.00001702,0.00022996,-0.00044882,-0.00007213
 ,-0.00019517,-0.00001047,-0.00037105,0.00014053,0.00013343,0.00025166,
 -0.00000340,-0.00001454,-0.00000249,0.00000606,0.00000640,0.00000231,0
 .00000868,0.00000132,-0.00000134,-0.00000217,-0.00001167,-0.00001588,0
 .00000120,0.00000443,0.00000351,-0.00000147,0.00000192,0.00000065,-0.0
 0000081,-0.00000074,-0.00000087,0.00000344,0.00000161,0.00000099,0.000
 00071,-0.00000069,-0.00000062,-0.00000034,-0.00000147,-0.00000123,-0.0
 0000355,-0.00000081,0.00001272,0.00000056,0.00000007,-0.00000276,0.000
 00042,0.00000141,0.00000390,-0.00000182,0.00000038,0.00000074,0.000001
 42,0.00000018,-0.00000141,0.00000032,-0.00000042,0.00000083,0.00000228
 ,0.00000150,0.00000020,-0.00010765,0.00004596,-0.00005383,-0.00000866,
 -0.00004184,-0.00001649,-0.00000040,0.00001306,-0.00000782,0.00002447,
 -0.00000036,0.00004855,0.00004061,0.00002409,-0.00000206,0.00001392,-0
 .00006761,0.00004603,0.00002802,0.00007600,0.00006776,-0.00286726,0.00
 442474,0.00446114,0.06395761,-0.19477157,-0.11621965,0.00038599,0.0002
 2774,-0.00012587,0.00063761,0.00031333,-0.00002934,-0.06840586,0.20838
 501,-0.00037808,-0.00036335,-0.00010533,-0.00001211,0.00014199,-0.0000
 0412,-0.00008950,-0.00015175,0.00012883,-0.00000046,-0.00003351,-0.000
 01484,0.00001911,0.00000323,0.00000317,0.00000080,0.00001149,0.0000020
 1,-0.00000370,-0.00002442,-0.00000955,-0.00000252,-0.00000368,0.000003
 24,0.00000554,-0.00000563,0.00000018,0.00000152,-0.00000563,-0.0000012
 2,0.00023374,0.00004218,0.00002718,0.00183261,0.00118969,0.00086717,-0
 .00002854,-0.00000152,-0.00000136,0.00001140,0.00001533,-0.00000693,0.
 00000713,0.00001107,0.00001533,-0.00001607,0.00001166,-0.00001381,-0.0
 0030133,0.00061685,-0.00005654,0.00012695,0.00000666,0.00019981,-0.000
 07710,0.00009525,-0.00012549,-0.00000373,0.00005815,-0.00002290,0.0000
 0092,0.00000131,0.00000462,0.00000810,-0.00001807,0.00000132,0.0000135
 7,-0.00006521,-0.00004111,0.00000684,0.00002512,0.00001219,0.00000081,
 0.00000504,-0.00000137,-0.00000207,-0.00000022,0.00000484,0.00001150,0
 .00000099,0.00000601,0.00000251,-0.00000193,-0.00000272,-0.00000122,-0
 .00000268,-0.00000039,0.00000924,-0.00000856,0.00007255,-0.00000239,-0
 .00000100,-0.00002037,-0.00000253,0.00000119,-0.00000201,-0.00000388,0
 .00000234,-0.00000352,0.00000773,-0.00000052,-0.00000646,0.00000141,-0
 .00000106,0.00000288,0.00000306,0.00000179,0.00000230,-0.00028217,-0.0
 0000698,0.00031992,-0.00023821,0.00013123,-0.00073451,0.00003196,0.000
 01217,0.00000549,0.00003204,-0.00003177,-0.00003073,0.00027457,-0.0000
 7986,-0.00016554,0.00009333,-0.00042967,-0.00012228,-0.00001167,0.0002
 8730,0.00001876,0.00199683,-0.00638425,-0.00602374,0.04824982,-0.11621
 277,-0.13207170,0.00010437,0.00016928,0.00038391,-0.00034565,0.0000634
 9,0.00001394,-0.05444312,0.12630039,0.13991604,-0.00003419,-0.00018302
 ,-0.00016718,0.00011730,-0.00009848,-0.00003321,-0.00014350,0.00003549
 ,-0.00020040,-0.00004687,0.00007981,0.00000384,0.00005324,0.00008703,-
 0.00002398,-0.00000772,-0.00009325,-0.00000870,0.00008164,0.00000248,0
 .00003158,-0.00000605,0.00000245,-0.00001013,0.00000474,-0.00000047,-0
 .00000207,0.00000933,-0.00001214,0.00000343,0.00005044,-0.00001281,0.0
 0003647,0.00195885,0.00022881,-0.00079851,-0.00016712,0.00000616,0.000
 20679,-0.00011713,-0.00002156,-0.00002914,0.00002336,0.00003269,-0.000
 01479,-0.00002015,0.00017956,-0.00010888,-0.00048903,0.00047666,0.0014
 5868,-0.00101881,0.00101120,-0.00026135,-0.00009201,0.00035095,-0.0001
 1758,-0.00000061,-0.00000841,0.00000284,0.00000337,0.00000201,0.000000
 07,0.00000308,0.00000134,-0.00000078,-0.00000090,-0.00001773,-0.000005
 90,0.00000194,0.00000940,0.00000130,0.00000816,0.00000509,-0.00000114,
 0.00000144,-0.00000155,0.00000223,0.00000241,0.00000034,0.00000122,-0.
 00000028,-0.00000032,-0.00000044,-0.00000330,0.00000103,-0.00000162,-0
 .00000496,-0.00000375,0.00001701,0.00000027,0.00000179,-0.00000233,-0.
 00000061,0.00000140,0.00000151,0.00000153,0.00000064,-0.00000562,0.000
 00070,0.00000004,-0.00000093,-0.00000178,0.00000075,0.00000054,0.00000
 121,0.00000037,0.00000029,-0.00008512,0.00008086,-0.00002101,-0.000041
 89,0.00014648,-0.00017460,0.00001251,0.00001389,-0.00015990,0.00004473
 ,0.00005419,0.00005863,0.00005716,-0.00006814,-0.00005302,0.00002950,-
 0.00012147,0.00009871,0.00001090,0.00000791,0.00003677,-0.00196886,-0.
 02939107,0.01695357,-0.04781326,-0.01874059,0.01023034,0.00148116,0.00
 057520,-0.00046119,-0.00570629,-0.00042111,0.00136235,-0.00008989,0.00
 803528,-0.00601772,0.05256869,0.00022996,0.00003177,0.00005255,0.00009
 218,-0.00017833,-0.00001373,0.00029981,0.00046201,-0.00031336,0.000008
 40,0.00006463,0.00004228,-0.00006564,0.00002592,0.00001565,-0.00000647
 ,-0.00002230,-0.00000436,0.00001611,0.00003295,0.00001557,-0.00000285,
 0.00000344,-0.00000913,-0.00000391,0.00000501,-0.00000198,-0.00000290,
 0.00000410,0.00000199,-0.00012274,-0.00000969,-0.00001296,-0.00051502,
 0.00000327,0.00003052,-0.00004866,0.00001109,0.00008662,-0.00005663,-0
 .00003025,-0.00000868,0.00000653,0.00000646,-0.00001671,-0.00001194,0.
 00007579,-0.00004194,0.00152767,-0.00099471,-0.00067096,0.00067843,-0.
 00054923,-0.00042447,0.00042644,-0.00026037,0.00009157,0.00000633,-0.0
 0004479,0.00001573,-0.00000299,-0.00000145,-0.00000446,-0.00000340,0.0
 0001343,-0.00000194,-0.00000556,0.00003282,0.00002816,-0.00000363,-0.0
 0001206,-0.00000677,0.00000449,-0.00000129,-0.00000125,0.00000189,-0.0
 0000140,-0.00000197,-0.00000657,-0.00000147,-0.00000268,-0.00000148,0.
 00000095,0.00000118,-0.00000103,0.00000381,-0.00000033,-0.00000428,0.0
 0000202,-0.00003664,0.00000132,0.00000071,0.00000944,0.00000179,-0.000
 00164,0.00000056,0.00000384,0.,-0.00000120,-0.00000396,-0.00000026,0.0
 0000327,-0.00000251,0.00000206,-0.00000193,-0.00000179,-0.00000122,-0.
 00000064,-0.00014410,0.00001381,-0.00018541,0.00002264,-0.00000169,0.0
 0002505,0.00003282,0.00001078,0.00000805,0.00000964,0.00001696,0.00006
 491,-0.00001089,-0.00002765,0.00000760,0.00000402,0.00000506,-0.000004
 60,-0.00001397,-0.00003428,0.00004629,-0.00067469,-0.00500283,0.001897
 19,-0.02015372,-0.23169625,0.12019134,-0.00013142,0.00011849,-0.000056
 78,-0.00103070,0.00122128,-0.00010170,-0.00212291,-0.01829337,0.012933
 06,0.02124294,0.25215768,0.00006538,-0.00003237,0.00005945,-0.00018861
 ,0.00017152,0.00002961,0.00004412,-0.00039152,0.00013027,0.00001720,-0
 .00009341,-0.00001622,-0.00002978,-0.00003999,0.00000222,-0.00000634,0
 .00007986,0.00000643,-0.00006236,-0.00000952,-0.00001435,0.00001314,-0
 .00001163,0.00000735,-0.00000757,0.00000246,0.00000077,-0.00000864,0.0
 0001331,-0.00000037,-0.00000307,0.00001565,-0.00001421,-0.00057462,0.0
 0083746,0.00020992,0.00004174,-0.00002885,-0.00005859,0.00002598,0.000
 00483,0.00000813,-0.00000484,-0.00002245,0.00000694,0.00000201,-0.0000
 6398,0.00003020,-0.00027253,0.00033808,-0.00003845,0.00021450,0.000095
 10,0.00062431,0.00014150,-0.00041339,-0.00056837,-0.00000223,0.0000301
 8,-0.00000232,-0.00000614,-0.00000571,-0.00000070,-0.00000751,-0.00000
 471,0.00000087,0.00000470,0.00000808,0.00001094,-0.00000083,-0.0000032
 1,-0.00000234,-0.00000326,-0.00000377,-0.00000003,0.00000004,0.0000009
 2,-0.00000183,-0.00000157,-0.00000123,-0.00000039,0.00000063,0.0000003
 4,0.00000007,0.00000162,-0.00000033,0.00000196,0.00000488,0.00000215,-
 0.00000831,-0.00000023,-0.00000108,0.00000156,-0.00000101,0.00000129,-
 0.00000329,-0.00000087,-0.00000326,0.00000238,-0.00000051,0.00000017,0
 .00000063,0.00000210,-0.00000077,-0.00000013,-0.00000101,-0.00000084,-
 0.00000021,-0.00004126,-0.00005318,-0.00019644,-0.00004571,0.00050848,
 -0.00037096,-0.00001524,-0.00004888,0.00004403,0.00003769,-0.00004305,
 0.00000460,0.00010763,-0.00022421,-0.00009399,0.00021317,-0.00031141,0
 .00006832,-0.00006531,-0.00009656,-0.00004463,0.00093821,0.00607301,-0
 .00495476,0.01059331,0.11998043,-0.12115085,0.00019329,-0.00068456,0.0
 0042844,0.00138880,0.00006320,0.00091088,-0.00213489,-0.01572971,0.010
 31568,-0.01362680,-0.13118665,0.12636929,-0.00018416,0.00006634,0.0003
 2043,0.00004932,-0.00010763,0.00000346,0.00004397,0.00013323,0.0000793
 8,-0.00000208,0.00004133,-0.00000522,-0.00001570,-0.00000707,0.0000006
 9,-0.00000463,-0.00001769,-0.00000077,0.00000392,0.00003219,0.00000278
 ,0.00000586,0.00001014,0.00000131,-0.00000399,0.00000597,-0.00000023,-
 0.00000111,0.00000500,-0.00000044,0.00000246,-0.00000761,-0.00001611,0
 .00166104,0.00055222,0.00039512,-0.00007770,-0.00000994,0.00010765,-0.
 00003028,-0.00004189,0.00002388,0.00002483,0.00006274,-0.00001246,0.00
 000681,0.00000873,-0.00001690,-0.00018219,0.00010937,-0.00003066,-0.00
 004368,-0.00008794,0.00007931,-0.00001406,0.00027110,-0.00002199,0.000
 00896,-0.00001778,0.00000478,0.00000188,-0.00000206,-0.00000184,-0.000
 00604,0.00000575,0.00000085,0.00000275,0.00001577,0.00000570,-0.000003
 85,-0.00000530,-0.00000176,0.00000457,-0.00000046,0.,-0.00000011,0.000
 00020,0.00000484,-0.00000321,-0.00000071,-0.00000251,-0.00000341,0.000
 00104,0.00000177,-0.00000028,0.00000148,-0.00000063,0.00000485,0.00000
 221,-0.00002963,-0.00000372,0.00000004,0.00000002,-0.00000365,-0.00000
 393,-0.00000566,0.00000261,0.00000269,-0.00000620,-0.00000263,-0.00000
 015,0.00000437,-0.00000348,0.00000072,-0.00000110,-0.00000361,-0.00000
 047,-0.00000054,-0.00054670,0.00023107,0.00002182,-0.00041064,0.000560
 08,-0.00060416,0.00003207,0.00003615,0.00000865,0.00014632,-0.00005408
 ,0.00012432,0.00061394,-0.00025979,-0.00035955,0.00059014,-0.00080703,
 0.00046166,-0.00001414,0.00044021,0.00012443,-0.01720376,-0.00267970,-
 0.02773519,-0.14439605,-0.00932470,-0.12938424,-0.00499712,-0.00144310
 ,0.00238216,0.00142138,0.00023183,0.00030462,0.00642280,-0.00010491,0.
 00917638,0.00133266,0.00053907,0.00306109,0.15577886,0.00012615,0.0000
 5398,0.00000351,-0.00001600,-0.00005098,0.00002609,-0.00000216,-0.0000
 9688,-0.00014025,-0.00002968,0.00002303,0.00000224,-0.00000516,0.00001
 974,-0.00000072,-0.00000973,-0.00002862,-0.00000199,0.00002637,0.00000
 878,0.00000813,0.00000323,-0.00000159,-0.00000365,-0.00000361,0.000002
 67,-0.00000022,-0.00000077,0.00000301,0.00000188,-0.00005076,0.0000014
 4,0.00000305,-0.00001883,0.00046303,0.00069963,-0.00002797,-0.00000344
 ,0.00001159,-0.00000765,-0.00001586,0.00001078,0.00000481,0.00000690,-
 0.00000172,0.00001325,-0.00000235,0.00000855,0.00012571,-0.00009650,0.
 00052542,-0.00001386,0.00004737,-0.00016745,0.00003666,-0.00008600,-0.
 00008954,-0.00000003,-0.00001307,0.00000664,-0.00000116,-0.00000247,-0
 .00000208,-0.00000406,0.00000508,-0.00000041,0.00000271,0.00001969,0.0
 0001324,-0.00000257,-0.00000670,-0.00000341,0.00000026,-0.00000190,0.0
 0000031,0.00000160,-0.00000007,-0.00000058,-0.00000335,-0.00000069,-0.
 00000193,-0.00000104,0.00000088,0.00000101,0.00000032,0.00000095,0.000
 00034,-0.00000502,0.00000491,-0.00002087,-0.00000042,-0.00000054,0.000
 00524,-0.00000044,-0.00000218,-0.00000090,0.00000196,-0.00000014,0.000
 00005,-0.00000241,0.00000036,0.00000248,-0.00000084,0.00000047,-0.0000
 0086,-0.00000217,-0.00000096,-0.00000078,0.00001334,0.00002048,0.00013
 232,0.00003665,0.00057099,-0.00043815,-0.00008239,-0.00000182,-0.00004
 720,0.00000220,-0.00001324,0.00012122,-0.00002702,-0.00009303,0.000009
 43,-0.00000062,0.00018981,0.00035306,0.00024894,-0.00050980,-0.0006727
 1,-0.00235028,-0.00185969,-0.00598979,-0.00996172,-0.04638787,-0.01024
 223,-0.00134442,0.00097557,0.00066745,0.00029029,0.00006100,-0.0005472
 7,-0.01509720,-0.00071896,-0.01830421,0.01652161,0.00284025,0.02128370
 ,0.01161726,0.04467495,0.00009191,0.00011831,0.00000195,0.00000915,-0.
 00005271,0.00000846,0.00006883,0.00004907,0.00007276,0.00000651,0.0000
 0696,-0.00000882,-0.00002517,-0.00001659,-0.00000080,-0.00000425,0.000
 00873,0.00000265,-0.00000920,0.00001263,-0.00000171,0.00000388,0.00000
 510,0.00000118,-0.00000437,0.00000384,0.00000124,-0.00000336,0.0000067
 6,-0.00000047,-0.00010075,-0.00000712,-0.00000085,-0.00114266,-0.00031
 046,0.00056625,0.00001509,0.00000876,-0.00001301,-0.00001912,-0.000005
 68,-0.00000348,-0.00000176,-0.00001693,-0.00000977,0.00000259,0.000015
 84,-0.00000610,-0.00022340,-0.00022255,-0.00021673,0.00003016,-0.00001
 042,0.00008458,0.00016549,-0.00001524,0.00008317,0.00000219,-0.0000220
 9,0.00001135,0.00000054,-0.00000118,-0.00000240,-0.00000597,0.00000746
 ,0.00000020,0.00000097,0.00002603,0.00001894,-0.00000314,-0.00000912,-
 0.00000505,0.00000045,-0.00000214,-0.00000007,0.00000167,-0.00000019,-
 0.00000137,-0.00000438,-0.00000062,-0.00000272,-0.00000177,0.00000101,
 0.00000181,0.00000044,0.00000118,0.00000007,-0.00000197,0.00000232,-0.
 00003384,0.00000019,0.00000113,0.00001035,0.00000168,-0.00000002,0.000
 00169,0.00000172,-0.00000127,0.00000191,-0.00000358,0.00000004,0.00000
 362,-0.00000081,0.00000058,-0.00000180,-0.00000126,-0.00000103,-0.0000
 0127,0.00003632,0.00036017,0.00071341,0.00063719,-0.00055146,-0.004044
 29,-0.00005211,-0.00002334,-0.00005311,-0.00009244,-0.00003030,-0.0000
 3783,0.00030191,-0.00016332,-0.00043619,0.00111676,-0.00018017,-0.0029
 8968,0.00005604,0.00003285,-0.00048466,0.00578964,0.00052338,0.0094189
 3,-0.13199652,-0.01091561,-0.21766813,0.00238213,0.00065484,0.00083981
 ,-0.00075760,-0.00016394,0.00025021,-0.00960488,0.00055031,-0.01273883
 ,-0.00819927,-0.00245538,-0.01173349,0.14153630,0.01278158,0.23840195\
 \0.00000066,-0.00001151,0.00000237,0.00000034,0.00000429,0.00000367,0.
 00000242,0.00000016,0.00000622,-0.00000248,0.00000004,0.00000637,-0.00
 000142,0.00000163,0.00000600,0.00000178,0.00000218,0.00000619,-0.00000
 022,-0.00000349,0.00000839,-0.00000104,0.00000123,0.00000925,0.0000010
 3,0.00000121,0.00000924,-0.00000002,0.00000023,0.00001244,-0.00000390,
 0.00000015,0.00000187,0.00000365,0.00000115,0.00000278,-0.00000032,0.0
 0003002,-0.00001462,-0.00000071,-0.00000828,-0.00000431,0.00000008,-0.
 00000529,-0.00000703,0.00000080,-0.00000824,-0.00000434,-0.00000477,0.
 00000179,0.00000069,0.00000057,0.00000503,0.00000256,0.00000034,0.0000
 0113,0.00000267,0.00000427,0.00000051,0.00000159,-0.00000079,0.0000047
 4,0.00000237,-0.00000211,0.00000063,0.00000482,0.00000296,0.00000102,-
 0.00000211,0.00000150,0.00000215,-0.00000139,-0.00000079,0.00000204,-0
 .00000551,0.00000046,0.00000534,-0.00000236,-0.00000023,0.00000491,-0.
 00000485,0.00000015,0.00000126,-0.00000206,-0.00000174,0.00000421,-0.0
 0000051,0.00000617,-0.00000539,-0.00000372,-0.00000114,-0.00000252,0.0
 0000240,-0.00000145,-0.00000405,-0.00000105,-0.00000064,-0.00000422,-0
 .00000247,0.00000097,-0.00000698,-0.00000125,-0.00000032,-0.00000281,-
 0.00000120,-0.00000039,-0.00000349,-0.00000441,-0.00000579,-0.00000484
 ,-0.00000405,0.00000210,-0.00000502,0.00000316,-0.00000043,-0.00000434
 ,-0.00000328,0.00000192,-0.00000409,-0.00000087,-0.00000076,-0.0000067
 5,-0.00000135,0.00000006,-0.00000297,-0.00000318,0.00000078,-0.0000041
 9,-0.00000060,-0.00000241,0.00000119,-0.00000153,-0.00000147,0.0000019
 1,-0.00000175,-0.00000060,0.00000562,-0.00000245,0.00000102,0.00000219
 ,-0.00000537,0.00000029,0.00000497,-0.00000481,0.00000184,0.00000414,-
 0.00000040,-0.00000021,0.00000145,-0.00000220\\\@
 The archive entry for this job was punched.


 WE LEARN WISDOM FROM FAILURE MUCH MORE THAN FROM SUCCESS.
 WE DISCOVER WHAT WILL DO BY FINDING OUT WHAT WILL NOT DO...
 AND HE WHO NEVER MADE A MISTAKE NEVER MADE A DISCOVERY
 Job cpu time:       2 days  6 hours 31 minutes 46.0 seconds.
 Elapsed time:       0 days  5 hours 18 minutes 50.7 seconds.
 File lengths (MBytes):  RWF=   1831 Int=      0 D2E=      0 Chk=     50 Scr=      1
 Normal termination of Gaussian 16 at Mon May 16 16:59:41 2022.
