 Entering Gaussian System, Link 0=g16
 Input=Ph-NCNPtMe.com
 Output=Ph-NCNPtMe.log
 Initial command:
 /usr/local/g16/l1.exe "/hdd/Gau-882119.inp" -scrdir="/hdd/"
 Entering Link 1 = /usr/local/g16/l1.exe PID=    882121.
  
 Copyright (c) 1988-2019, Gaussian, Inc.  All Rights Reserved.
  
 This is part of the Gaussian(R) 16 program.  It is based on
 the Gaussian(R) 09 system (copyright 2009, Gaussian, Inc.),
 the Gaussian(R) 03 system (copyright 2003, Gaussian, Inc.),
 the Gaussian(R) 98 system (copyright 1998, Gaussian, Inc.),
 the Gaussian(R) 94 system (copyright 1995, Gaussian, Inc.),
 the Gaussian 92(TM) system (copyright 1992, Gaussian, Inc.),
 the Gaussian 90(TM) system (copyright 1990, Gaussian, Inc.),
 the Gaussian 88(TM) system (copyright 1988, Gaussian, Inc.),
 the Gaussian 86(TM) system (copyright 1986, Carnegie Mellon
 University), and the Gaussian 82(TM) system (copyright 1983,
 Carnegie Mellon University). Gaussian is a federally registered
 trademark of Gaussian, Inc.
  
 This software contains proprietary and confidential information,
 including trade secrets, belonging to Gaussian, Inc.
  
 This software is provided under written license and may be
 used, copied, transmitted, or stored only in accord with that
 written license.
  
 The following legend is applicable only to US Government
 contracts under FAR:
  
                    RESTRICTED RIGHTS LEGEND
  
 Use, reproduction and disclosure by the US Government is
 subject to restrictions as set forth in subparagraphs (a)
 and (c) of the Commercial Computer Software - Restricted
 Rights clause in FAR 52.227-19.
  
 Gaussian, Inc.
 340 Quinnipiac St., Bldg. 40, Wallingford CT 06492
  
  
 ---------------------------------------------------------------
 Warning -- This program may not be used in any manner that
 competes with the business of Gaussian, Inc. or will provide
 assistance to any competitor of Gaussian, Inc.  The licensee
 of this program is prohibited from giving any competitor of
 Gaussian, Inc. access to this program.  By using this program,
 the user acknowledges that Gaussian, Inc. is engaged in the
 business of creating and licensing software in the field of
 computational chemistry and represents and warrants to the
 licensee that it is not a competitor of Gaussian, Inc. and that
 it will not use this program in any manner prohibited above.
 ---------------------------------------------------------------
  

 Cite this work as:
 Gaussian 16, Revision C.01,
 M. J. Frisch, G. W. Trucks, H. B. Schlegel, G. E. Scuseria, 
 M. A. Robb, J. R. Cheeseman, G. Scalmani, V. Barone, 
 G. A. Petersson, H. Nakatsuji, X. Li, M. Caricato, A. V. Marenich, 
 J. Bloino, B. G. Janesko, R. Gomperts, B. Mennucci, H. P. Hratchian, 
 J. V. Ortiz, A. F. Izmaylov, J. L. Sonnenberg, D. Williams-Young, 
 F. Ding, F. Lipparini, F. Egidi, J. Goings, B. Peng, A. Petrone, 
 T. Henderson, D. Ranasinghe, V. G. Zakrzewski, J. Gao, N. Rega, 
 G. Zheng, W. Liang, M. Hada, M. Ehara, K. Toyota, R. Fukuda, 
 J. Hasegawa, M. Ishida, T. Nakajima, Y. Honda, O. Kitao, H. Nakai, 
 T. Vreven, K. Throssell, J. A. Montgomery, Jr., J. E. Peralta, 
 F. Ogliaro, M. J. Bearpark, J. J. Heyd, E. N. Brothers, K. N. Kudin, 
 V. N. Staroverov, T. A. Keith, R. Kobayashi, J. Normand, 
 K. Raghavachari, A. P. Rendell, J. C. Burant, S. S. Iyengar, 
 J. Tomasi, M. Cossi, J. M. Millam, M. Klene, C. Adamo, R. Cammi, 
 J. W. Ochterski, R. L. Martin, K. Morokuma, O. Farkas, 
 J. B. Foresman, and D. J. Fox, Gaussian, Inc., Wallingford CT, 2019.
 
 ******************************************
 Gaussian 16:  ES64L-G16RevC.01  3-Jul-2019
                21-May-2022 
 ******************************************
 %nprocshared=12
 Will use up to   12 processors via shared memory.
 %mem=128MW
 %chk=Ph-NCNPtMe.chk
 ----------------------------------------------------------------------
 # opt freq gen scrf=(iefpcm,solvent=thf) m06 EmpiricalDispersion=GD3 P
 seudo=Read
 ----------------------------------------------------------------------
 1/18=20,19=15,26=3,38=1/1,3;
 2/9=110,12=2,17=6,18=5,40=1/2;
 3/5=7,11=2,16=1,17=8,25=1,30=1,70=2201,71=1,72=20,74=-54,124=31/1,2,3;
 4//1;
 5/5=2,38=5,53=20/2;
 6/7=2,8=2,9=2,10=2,28=1/1;
 7//1,2,3,16;
 1/18=20,19=15,26=3/3(2);
 2/9=110/2;
 99//99;
 2/9=110/2;
 3/5=7,6=1,11=2,16=1,17=8,25=1,30=1,70=2205,71=1,72=20,74=-54,82=7,124=31/1,2,3;
 4/5=5,16=3,69=1/1;
 5/5=2,38=5,53=20/2;
 7//1,2,3,16;
 1/18=20,19=15,26=3/3(-5);
 2/9=110/2;
 6/7=2,8=2,9=2,10=2,19=2,28=1/1;
 99/9=1/99;
 ---------------------------------------------------------
 M06 Ph-(NCN)PtMe; Custom Lanl2tz(f)+6-311g(d,p) basis set
 ---------------------------------------------------------
 Symbolic Z-matrix:
 Charge =  1 Multiplicity = 1
 Pt                    0.14344  -0.72911  -0.4337 
 C                    -0.16627   0.93606   1.19075 
 C                     1.11315   0.55171   1.70873 
 C                    -1.2889    0.18229   1.673 
 C                     1.20232  -0.22432   2.87449 
 C                    -1.18348  -0.60673   2.82441 
 C                     0.04799  -0.73132   3.48579 
 H                     2.18447  -0.44371   3.28866 
 H                    -2.05888  -1.13553   3.19378 
 H                     0.11959  -1.29326   4.41069 
 N                    -2.01955  -0.90848  -0.36918 
 N                     2.27029  -0.3268   -0.22464 
 C                     2.30778   0.79075   0.82383 
 H                     2.22057   1.74688   0.29884 
 H                     3.26221   0.76876   1.36095 
 C                    -2.45563   0.07478   0.72298 
 H                    -2.65501   1.03361   0.23308 
 H                    -3.37657  -0.2689    1.20211 
 C                    -2.58995  -0.48923  -1.70845 
 C                    -4.11272  -0.49198  -1.82878 
 H                    -2.1496   -1.15265  -2.45961 
 H                    -2.19596   0.51817  -1.89469 
 H                    -4.39005   0.0075   -2.7626 
 H                    -4.52515  -1.50459  -1.87087 
 H                    -4.59801   0.05412  -1.01168 
 C                    -2.33267  -2.35594  -0.01555 
 C                    -3.67484  -2.65221   0.65731 
 H                    -1.52125  -2.70699   0.63253 
 H                    -2.25083  -2.91169  -0.95693 
 H                    -3.81731  -3.73785   0.66519 
 H                    -3.70092  -2.32436   1.70203 
 H                    -4.53026  -2.21242   0.13859 
 C                     2.88319  -1.60824   0.30825 
 C                     4.38627  -1.60477   0.58231 
 H                     2.64022  -2.38935  -0.42024 
 H                     2.33383  -1.85338   1.22476 
 H                     4.64229  -2.53828   1.09408 
 H                     4.97841  -1.57007  -0.33666 
 H                     4.7022   -0.78298   1.23584 
 C                     2.89623   0.11159  -1.53654 
 C                     4.16135   0.96788  -1.44593 
 H                     2.1269    0.66852  -2.0836 
 H                     3.09073  -0.80406  -2.1067 
 H                     4.53069   1.14085  -2.46208 
 H                     3.96501   1.95137  -1.00706 
 H                     4.96641   0.4936   -0.87949 
 C                     0.34867  -1.82563  -2.16827 
 H                    -0.39721  -2.63007  -2.21188 
 H                     0.20678  -1.14761  -3.02289 
 H                     1.3463   -2.27815  -2.23196 
 C                    -0.39856   2.23823   0.4744 
 C                    -1.02235   3.24103   1.24702 
 C                    -0.03905   2.54009  -0.85173 
 C                    -1.27492   4.50846   0.70968 
 H                    -1.29694   3.02253   2.2771 
 C                    -0.29031   3.80898  -1.39017 
 H                     0.40728   1.76991  -1.47915 
 C                    -0.9074    4.79786  -0.61226 
 H                    -1.75186   5.26806   1.32086 
 H                    -0.00973   4.02305  -2.41684 
 H                    -1.10085   5.78026  -1.03053 
 

 GradGradGradGradGradGradGradGradGradGradGradGradGradGradGradGradGradGrad
 Berny optimization.
 Initialization pass.
                           ----------------------------
                           !    Initial Parameters    !
                           ! (Angstroms and Degrees)  !
 --------------------------                            --------------------------
 ! Name  Definition              Value          Derivative Info.                !
 --------------------------------------------------------------------------------
 ! R1    R(1,2)                  2.3468         estimate D2E/DX2                !
 ! R2    R(1,11)                 2.1714         estimate D2E/DX2                !
 ! R3    R(1,12)                 2.1746         estimate D2E/DX2                !
 ! R4    R(1,47)                 2.0623         estimate D2E/DX2                !
 ! R5    R(2,3)                  1.4328         estimate D2E/DX2                !
 ! R6    R(2,4)                  1.4356         estimate D2E/DX2                !
 ! R7    R(2,51)                 1.5043         estimate D2E/DX2                !
 ! R8    R(3,5)                  1.4033         estimate D2E/DX2                !
 ! R9    R(3,13)                 1.5058         estimate D2E/DX2                !
 ! R10   R(4,6)                  1.3998         estimate D2E/DX2                !
 ! R11   R(4,16)                 1.5084         estimate D2E/DX2                !
 ! R12   R(5,7)                  1.4012         estimate D2E/DX2                !
 ! R13   R(5,8)                  1.0883         estimate D2E/DX2                !
 ! R14   R(6,7)                  1.4034         estimate D2E/DX2                !
 ! R15   R(6,9)                  1.0874         estimate D2E/DX2                !
 ! R16   R(7,10)                 1.0846         estimate D2E/DX2                !
 ! R17   R(11,16)                1.5329         estimate D2E/DX2                !
 ! R18   R(11,19)                1.5148         estimate D2E/DX2                !
 ! R19   R(11,26)                1.5226         estimate D2E/DX2                !
 ! R20   R(12,13)                1.5328         estimate D2E/DX2                !
 ! R21   R(12,33)                1.5171         estimate D2E/DX2                !
 ! R22   R(12,40)                1.5182         estimate D2E/DX2                !
 ! R23   R(13,14)                1.0943         estimate D2E/DX2                !
 ! R24   R(13,15)                1.0954         estimate D2E/DX2                !
 ! R25   R(16,17)                1.095          estimate D2E/DX2                !
 ! R26   R(16,18)                1.0935         estimate D2E/DX2                !
 ! R27   R(19,20)                1.5275         estimate D2E/DX2                !
 ! R28   R(19,21)                1.0947         estimate D2E/DX2                !
 ! R29   R(19,22)                1.0976         estimate D2E/DX2                !
 ! R30   R(20,23)                1.0947         estimate D2E/DX2                !
 ! R31   R(20,24)                1.0942         estimate D2E/DX2                !
 ! R32   R(20,25)                1.0961         estimate D2E/DX2                !
 ! R33   R(26,27)                1.5303         estimate D2E/DX2                !
 ! R34   R(26,28)                1.0962         estimate D2E/DX2                !
 ! R35   R(26,29)                1.0962         estimate D2E/DX2                !
 ! R36   R(27,30)                1.095          estimate D2E/DX2                !
 ! R37   R(27,31)                1.0953         estimate D2E/DX2                !
 ! R38   R(27,32)                1.0928         estimate D2E/DX2                !
 ! R39   R(33,34)                1.5279         estimate D2E/DX2                !
 ! R40   R(33,35)                1.0954         estimate D2E/DX2                !
 ! R41   R(33,36)                1.0963         estimate D2E/DX2                !
 ! R42   R(34,37)                1.0949         estimate D2E/DX2                !
 ! R43   R(34,38)                1.0938         estimate D2E/DX2                !
 ! R44   R(34,39)                1.0965         estimate D2E/DX2                !
 ! R45   R(40,41)                1.5304         estimate D2E/DX2                !
 ! R46   R(40,42)                1.096          estimate D2E/DX2                !
 ! R47   R(40,43)                1.096          estimate D2E/DX2                !
 ! R48   R(41,44)                1.0949         estimate D2E/DX2                !
 ! R49   R(41,45)                1.0947         estimate D2E/DX2                !
 ! R50   R(41,46)                1.0927         estimate D2E/DX2                !
 ! R51   R(47,48)                1.0979         estimate D2E/DX2                !
 ! R52   R(47,49)                1.1001         estimate D2E/DX2                !
 ! R53   R(47,50)                1.0973         estimate D2E/DX2                !
 ! R54   R(51,52)                1.4113         estimate D2E/DX2                !
 ! R55   R(51,53)                1.4068         estimate D2E/DX2                !
 ! R56   R(52,54)                1.3996         estimate D2E/DX2                !
 ! R57   R(52,55)                1.0882         estimate D2E/DX2                !
 ! R58   R(53,56)                1.4011         estimate D2E/DX2                !
 ! R59   R(53,57)                1.0891         estimate D2E/DX2                !
 ! R60   R(54,58)                1.4023         estimate D2E/DX2                !
 ! R61   R(54,59)                1.0854         estimate D2E/DX2                !
 ! R62   R(56,58)                1.4014         estimate D2E/DX2                !
 ! R63   R(56,60)                1.0856         estimate D2E/DX2                !
 ! R64   R(58,61)                1.0851         estimate D2E/DX2                !
 ! A1    A(2,1,11)              84.6399         estimate D2E/DX2                !
 ! A2    A(2,1,12)              86.0582         estimate D2E/DX2                !
 ! A3    A(11,1,47)             94.6001         estimate D2E/DX2                !
 ! A4    A(12,1,47)             94.6975         estimate D2E/DX2                !
 ! A5    A(1,2,3)               86.6785         estimate D2E/DX2                !
 ! A6    A(1,2,4)               87.8893         estimate D2E/DX2                !
 ! A7    A(1,2,51)             107.7562         estimate D2E/DX2                !
 ! A8    A(3,2,4)              115.8476         estimate D2E/DX2                !
 ! A9    A(3,2,51)             122.8382         estimate D2E/DX2                !
 ! A10   A(4,2,51)             119.5856         estimate D2E/DX2                !
 ! A11   A(2,3,5)              120.3592         estimate D2E/DX2                !
 ! A12   A(2,3,13)             116.9615         estimate D2E/DX2                !
 ! A13   A(5,3,13)             121.7077         estimate D2E/DX2                !
 ! A14   A(2,4,6)              120.8884         estimate D2E/DX2                !
 ! A15   A(2,4,16)             115.5122         estimate D2E/DX2                !
 ! A16   A(6,4,16)             122.4207         estimate D2E/DX2                !
 ! A17   A(3,5,7)              120.6766         estimate D2E/DX2                !
 ! A18   A(3,5,8)              119.0126         estimate D2E/DX2                !
 ! A19   A(7,5,8)              120.301          estimate D2E/DX2                !
 ! A20   A(4,6,7)              120.2508         estimate D2E/DX2                !
 ! A21   A(4,6,9)              119.5313         estimate D2E/DX2                !
 ! A22   A(7,6,9)              120.2105         estimate D2E/DX2                !
 ! A23   A(5,7,6)              119.0251         estimate D2E/DX2                !
 ! A24   A(5,7,10)             120.3401         estimate D2E/DX2                !
 ! A25   A(6,7,10)             120.3858         estimate D2E/DX2                !
 ! A26   A(1,11,16)            104.57           estimate D2E/DX2                !
 ! A27   A(1,11,19)            109.0232         estimate D2E/DX2                !
 ! A28   A(1,11,26)            106.8751         estimate D2E/DX2                !
 ! A29   A(16,11,19)           110.198          estimate D2E/DX2                !
 ! A30   A(16,11,26)           112.6941         estimate D2E/DX2                !
 ! A31   A(19,11,26)           113.0171         estimate D2E/DX2                !
 ! A32   A(1,12,13)            102.9767         estimate D2E/DX2                !
 ! A33   A(1,12,33)            105.8198         estimate D2E/DX2                !
 ! A34   A(1,12,40)            111.9357         estimate D2E/DX2                !
 ! A35   A(13,12,33)           111.4491         estimate D2E/DX2                !
 ! A36   A(13,12,40)           111.7427         estimate D2E/DX2                !
 ! A37   A(33,12,40)           112.3858         estimate D2E/DX2                !
 ! A38   A(3,13,12)            105.4754         estimate D2E/DX2                !
 ! A39   A(3,13,14)            110.9429         estimate D2E/DX2                !
 ! A40   A(3,13,15)            113.5731         estimate D2E/DX2                !
 ! A41   A(12,13,14)           107.8743         estimate D2E/DX2                !
 ! A42   A(12,13,15)           110.0024         estimate D2E/DX2                !
 ! A43   A(14,13,15)           108.7977         estimate D2E/DX2                !
 ! A44   A(4,16,11)            105.9267         estimate D2E/DX2                !
 ! A45   A(4,16,17)            111.1115         estimate D2E/DX2                !
 ! A46   A(4,16,18)            113.444          estimate D2E/DX2                !
 ! A47   A(11,16,17)           107.1394         estimate D2E/DX2                !
 ! A48   A(11,16,18)           110.4971         estimate D2E/DX2                !
 ! A49   A(17,16,18)           108.5341         estimate D2E/DX2                !
 ! A50   A(11,19,20)           116.3921         estimate D2E/DX2                !
 ! A51   A(11,19,21)           106.7068         estimate D2E/DX2                !
 ! A52   A(11,19,22)           105.5963         estimate D2E/DX2                !
 ! A53   A(20,19,21)           110.2353         estimate D2E/DX2                !
 ! A54   A(20,19,22)           110.2503         estimate D2E/DX2                !
 ! A55   A(21,19,22)           107.1819         estimate D2E/DX2                !
 ! A56   A(19,20,23)           108.598          estimate D2E/DX2                !
 ! A57   A(19,20,24)           112.3616         estimate D2E/DX2                !
 ! A58   A(19,20,25)           112.4427         estimate D2E/DX2                !
 ! A59   A(23,20,24)           107.0934         estimate D2E/DX2                !
 ! A60   A(23,20,25)           107.2428         estimate D2E/DX2                !
 ! A61   A(24,20,25)           108.8371         estimate D2E/DX2                !
 ! A62   A(11,26,27)           117.8091         estimate D2E/DX2                !
 ! A63   A(11,26,28)           106.8296         estimate D2E/DX2                !
 ! A64   A(11,26,29)           105.4945         estimate D2E/DX2                !
 ! A65   A(27,26,28)           109.1027         estimate D2E/DX2                !
 ! A66   A(27,26,29)           110.1758         estimate D2E/DX2                !
 ! A67   A(28,26,29)           106.8628         estimate D2E/DX2                !
 ! A68   A(26,27,30)           108.0127         estimate D2E/DX2                !
 ! A69   A(26,27,31)           112.4778         estimate D2E/DX2                !
 ! A70   A(26,27,32)           113.5728         estimate D2E/DX2                !
 ! A71   A(30,27,31)           106.6678         estimate D2E/DX2                !
 ! A72   A(30,27,32)           107.4918         estimate D2E/DX2                !
 ! A73   A(31,27,32)           108.2795         estimate D2E/DX2                !
 ! A74   A(12,33,34)           117.291          estimate D2E/DX2                !
 ! A75   A(12,33,35)           106.2065         estimate D2E/DX2                !
 ! A76   A(12,33,36)           106.2645         estimate D2E/DX2                !
 ! A77   A(34,33,35)           109.8237         estimate D2E/DX2                !
 ! A78   A(34,33,36)           110.0919         estimate D2E/DX2                !
 ! A79   A(35,33,36)           106.5823         estimate D2E/DX2                !
 ! A80   A(33,34,37)           108.1748         estimate D2E/DX2                !
 ! A81   A(33,34,38)           112.4549         estimate D2E/DX2                !
 ! A82   A(33,34,39)           113.0839         estimate D2E/DX2                !
 ! A83   A(37,34,38)           107.0474         estimate D2E/DX2                !
 ! A84   A(37,34,39)           107.0398         estimate D2E/DX2                !
 ! A85   A(38,34,39)           108.7242         estimate D2E/DX2                !
 ! A86   A(12,40,41)           116.8225         estimate D2E/DX2                !
 ! A87   A(12,40,42)           106.7755         estimate D2E/DX2                !
 ! A88   A(12,40,43)           106.3464         estimate D2E/DX2                !
 ! A89   A(41,40,42)           108.9957         estimate D2E/DX2                !
 ! A90   A(41,40,43)           110.5815         estimate D2E/DX2                !
 ! A91   A(42,40,43)           106.8225         estimate D2E/DX2                !
 ! A92   A(40,41,44)           108.1977         estimate D2E/DX2                !
 ! A93   A(40,41,45)           112.2191         estimate D2E/DX2                !
 ! A94   A(40,41,46)           113.3851         estimate D2E/DX2                !
 ! A95   A(44,41,45)           106.8949         estimate D2E/DX2                !
 ! A96   A(44,41,46)           107.5264         estimate D2E/DX2                !
 ! A97   A(45,41,46)           108.3177         estimate D2E/DX2                !
 ! A98   A(1,47,48)            110.8166         estimate D2E/DX2                !
 ! A99   A(1,47,49)            108.2318         estimate D2E/DX2                !
 ! A100  A(1,47,50)            111.011          estimate D2E/DX2                !
 ! A101  A(48,47,49)           109.4579         estimate D2E/DX2                !
 ! A102  A(48,47,50)           108.2519         estimate D2E/DX2                !
 ! A103  A(49,47,50)           109.0464         estimate D2E/DX2                !
 ! A104  A(2,51,52)            115.0023         estimate D2E/DX2                !
 ! A105  A(2,51,53)            126.5276         estimate D2E/DX2                !
 ! A106  A(52,51,53)           118.4617         estimate D2E/DX2                !
 ! A107  A(51,52,54)           120.8669         estimate D2E/DX2                !
 ! A108  A(51,52,55)           119.1491         estimate D2E/DX2                !
 ! A109  A(54,52,55)           119.9799         estimate D2E/DX2                !
 ! A110  A(51,53,56)           120.7149         estimate D2E/DX2                !
 ! A111  A(51,53,57)           119.7404         estimate D2E/DX2                !
 ! A112  A(56,53,57)           119.509          estimate D2E/DX2                !
 ! A113  A(52,54,58)           120.1004         estimate D2E/DX2                !
 ! A114  A(52,54,59)           119.7936         estimate D2E/DX2                !
 ! A115  A(58,54,59)           120.1053         estimate D2E/DX2                !
 ! A116  A(53,56,58)           120.3113         estimate D2E/DX2                !
 ! A117  A(53,56,60)           119.7127         estimate D2E/DX2                !
 ! A118  A(58,56,60)           119.9751         estimate D2E/DX2                !
 ! A119  A(54,58,56)           119.5442         estimate D2E/DX2                !
 ! A120  A(54,58,61)           120.2315         estimate D2E/DX2                !
 ! A121  A(56,58,61)           120.2242         estimate D2E/DX2                !
 ! A122  L(2,1,47,12,-1)       180.7557         estimate D2E/DX2                !
 ! A123  L(11,1,12,47,-1)      189.2976         estimate D2E/DX2                !
 ! A124  L(2,1,47,12,-2)       193.4668         estimate D2E/DX2                !
 ! A125  L(11,1,12,47,-2)      178.8845         estimate D2E/DX2                !
 ! D1    D(11,1,2,3)           148.9102         estimate D2E/DX2                !
 ! D2    D(11,1,2,4)            32.8606         estimate D2E/DX2                !
 ! D3    D(11,1,2,51)          -87.6015         estimate D2E/DX2                !
 ! D4    D(12,1,2,3)           -30.0108         estimate D2E/DX2                !
 ! D5    D(12,1,2,4)          -146.0603         estimate D2E/DX2                !
 ! D6    D(12,1,2,51)           93.4775         estimate D2E/DX2                !
 ! D7    D(2,1,11,16)           -2.9339         estimate D2E/DX2                !
 ! D8    D(2,1,11,19)          114.9034         estimate D2E/DX2                !
 ! D9    D(2,1,11,26)         -122.631          estimate D2E/DX2                !
 ! D10   D(47,1,11,16)        -169.4546         estimate D2E/DX2                !
 ! D11   D(47,1,11,19)         -51.6174         estimate D2E/DX2                !
 ! D12   D(47,1,11,26)          70.8482         estimate D2E/DX2                !
 ! D13   D(2,1,12,13)           -0.589          estimate D2E/DX2                !
 ! D14   D(2,1,12,33)          116.4969         estimate D2E/DX2                !
 ! D15   D(2,1,12,40)         -120.7626         estimate D2E/DX2                !
 ! D16   D(47,1,12,13)         165.9442         estimate D2E/DX2                !
 ! D17   D(47,1,12,33)         -76.9699         estimate D2E/DX2                !
 ! D18   D(47,1,12,40)          45.7707         estimate D2E/DX2                !
 ! D19   D(11,1,47,48)         -34.851          estimate D2E/DX2                !
 ! D20   D(11,1,47,49)          85.1787         estimate D2E/DX2                !
 ! D21   D(11,1,47,50)        -155.1798         estimate D2E/DX2                !
 ! D22   D(12,1,47,48)         146.2645         estimate D2E/DX2                !
 ! D23   D(12,1,47,49)         -93.7058         estimate D2E/DX2                !
 ! D24   D(12,1,47,50)          25.9357         estimate D2E/DX2                !
 ! D25   D(1,2,3,5)           -103.6677         estimate D2E/DX2                !
 ! D26   D(1,2,3,13)            65.2468         estimate D2E/DX2                !
 ! D27   D(4,2,3,5)            -17.6305         estimate D2E/DX2                !
 ! D28   D(4,2,3,13)           151.284          estimate D2E/DX2                !
 ! D29   D(51,2,3,5)           147.2987         estimate D2E/DX2                !
 ! D30   D(51,2,3,13)          -43.7868         estimate D2E/DX2                !
 ! D31   D(1,2,4,6)            102.0061         estimate D2E/DX2                !
 ! D32   D(1,2,4,16)           -65.878          estimate D2E/DX2                !
 ! D33   D(3,2,4,6)             16.7255         estimate D2E/DX2                !
 ! D34   D(3,2,4,16)          -151.1586         estimate D2E/DX2                !
 ! D35   D(51,2,4,6)          -148.7249         estimate D2E/DX2                !
 ! D36   D(51,2,4,16)           43.391          estimate D2E/DX2                !
 ! D37   D(1,2,51,52)          160.294          estimate D2E/DX2                !
 ! D38   D(1,2,51,53)          -20.7796         estimate D2E/DX2                !
 ! D39   D(3,2,51,52)         -101.9899         estimate D2E/DX2                !
 ! D40   D(3,2,51,53)           76.9365         estimate D2E/DX2                !
 ! D41   D(4,2,51,52)           62.4004         estimate D2E/DX2                !
 ! D42   D(4,2,51,53)         -118.6732         estimate D2E/DX2                !
 ! D43   D(2,3,5,7)              5.4892         estimate D2E/DX2                !
 ! D44   D(2,3,5,8)           -175.651          estimate D2E/DX2                !
 ! D45   D(13,3,5,7)          -162.8894         estimate D2E/DX2                !
 ! D46   D(13,3,5,8)            15.9704         estimate D2E/DX2                !
 ! D47   D(2,3,13,12)          -76.9121         estimate D2E/DX2                !
 ! D48   D(2,3,13,14)           39.637          estimate D2E/DX2                !
 ! D49   D(2,3,13,15)          162.5541         estimate D2E/DX2                !
 ! D50   D(5,3,13,12)           91.8422         estimate D2E/DX2                !
 ! D51   D(5,3,13,14)         -151.6087         estimate D2E/DX2                !
 ! D52   D(5,3,13,15)          -28.6916         estimate D2E/DX2                !
 ! D53   D(2,4,6,7)             -3.5431         estimate D2E/DX2                !
 ! D54   D(2,4,6,9)            177.443          estimate D2E/DX2                !
 ! D55   D(16,4,6,7)           163.4892         estimate D2E/DX2                !
 ! D56   D(16,4,6,9)           -15.5246         estimate D2E/DX2                !
 ! D57   D(2,4,16,11)           73.7266         estimate D2E/DX2                !
 ! D58   D(2,4,16,17)          -42.2936         estimate D2E/DX2                !
 ! D59   D(2,4,16,18)         -164.8976         estimate D2E/DX2                !
 ! D60   D(6,4,16,11)          -93.953          estimate D2E/DX2                !
 ! D61   D(6,4,16,17)          150.0269         estimate D2E/DX2                !
 ! D62   D(6,4,16,18)           27.4228         estimate D2E/DX2                !
 ! D63   D(3,5,7,6)              8.4314         estimate D2E/DX2                !
 ! D64   D(3,5,7,10)          -177.2782         estimate D2E/DX2                !
 ! D65   D(8,5,7,6)           -170.4137         estimate D2E/DX2                !
 ! D66   D(8,5,7,10)             3.8767         estimate D2E/DX2                !
 ! D67   D(4,6,7,5)             -9.3898         estimate D2E/DX2                !
 ! D68   D(4,6,7,10)           176.3225         estimate D2E/DX2                !
 ! D69   D(9,6,7,5)            169.6173         estimate D2E/DX2                !
 ! D70   D(9,6,7,10)            -4.6704         estimate D2E/DX2                !
 ! D71   D(1,11,16,4)          -27.3446         estimate D2E/DX2                !
 ! D72   D(1,11,16,17)          91.339          estimate D2E/DX2                !
 ! D73   D(1,11,16,18)        -150.6001         estimate D2E/DX2                !
 ! D74   D(19,11,16,4)        -144.3755         estimate D2E/DX2                !
 ! D75   D(19,11,16,17)        -25.6919         estimate D2E/DX2                !
 ! D76   D(19,11,16,18)         92.369          estimate D2E/DX2                !
 ! D77   D(26,11,16,4)          88.3642         estimate D2E/DX2                !
 ! D78   D(26,11,16,17)       -152.9522         estimate D2E/DX2                !
 ! D79   D(26,11,16,18)        -34.8913         estimate D2E/DX2                !
 ! D80   D(1,11,19,20)        -177.3715         estimate D2E/DX2                !
 ! D81   D(1,11,19,21)          59.1187         estimate D2E/DX2                !
 ! D82   D(1,11,19,22)         -54.7095         estimate D2E/DX2                !
 ! D83   D(16,11,19,20)        -63.1433         estimate D2E/DX2                !
 ! D84   D(16,11,19,21)        173.3469         estimate D2E/DX2                !
 ! D85   D(16,11,19,22)         59.5187         estimate D2E/DX2                !
 ! D86   D(26,11,19,20)         63.9374         estimate D2E/DX2                !
 ! D87   D(26,11,19,21)        -59.5724         estimate D2E/DX2                !
 ! D88   D(26,11,19,22)       -173.4006         estimate D2E/DX2                !
 ! D89   D(1,11,26,27)         155.027          estimate D2E/DX2                !
 ! D90   D(1,11,26,28)          31.9278         estimate D2E/DX2                !
 ! D91   D(1,11,26,29)         -81.5469         estimate D2E/DX2                !
 ! D92   D(16,11,26,27)         40.709          estimate D2E/DX2                !
 ! D93   D(16,11,26,28)        -82.3902         estimate D2E/DX2                !
 ! D94   D(16,11,26,29)        164.1351         estimate D2E/DX2                !
 ! D95   D(19,11,26,27)        -85.0423         estimate D2E/DX2                !
 ! D96   D(19,11,26,28)        151.8584         estimate D2E/DX2                !
 ! D97   D(19,11,26,29)         38.3837         estimate D2E/DX2                !
 ! D98   D(1,12,13,3)           30.5554         estimate D2E/DX2                !
 ! D99   D(1,12,13,14)         -88.0634         estimate D2E/DX2                !
 ! D100  D(1,12,13,15)         153.4015         estimate D2E/DX2                !
 ! D101  D(33,12,13,3)         -82.4682         estimate D2E/DX2                !
 ! D102  D(33,12,13,14)        158.9129         estimate D2E/DX2                !
 ! D103  D(33,12,13,15)         40.3779         estimate D2E/DX2                !
 ! D104  D(40,12,13,3)         150.8616         estimate D2E/DX2                !
 ! D105  D(40,12,13,14)         32.2428         estimate D2E/DX2                !
 ! D106  D(40,12,13,15)        -86.2923         estimate D2E/DX2                !
 ! D107  D(1,12,33,34)        -178.7626         estimate D2E/DX2                !
 ! D108  D(1,12,33,35)          58.0518         estimate D2E/DX2                !
 ! D109  D(1,12,33,36)         -55.1761         estimate D2E/DX2                !
 ! D110  D(13,12,33,34)        -67.5343         estimate D2E/DX2                !
 ! D111  D(13,12,33,35)        169.28           estimate D2E/DX2                !
 ! D112  D(13,12,33,36)         56.0521         estimate D2E/DX2                !
 ! D113  D(40,12,33,34)         58.7835         estimate D2E/DX2                !
 ! D114  D(40,12,33,35)        -64.4021         estimate D2E/DX2                !
 ! D115  D(40,12,33,36)       -177.6301         estimate D2E/DX2                !
 ! D116  D(1,12,40,41)         154.8238         estimate D2E/DX2                !
 ! D117  D(1,12,40,42)          32.59           estimate D2E/DX2                !
 ! D118  D(1,12,40,43)         -81.2022         estimate D2E/DX2                !
 ! D119  D(13,12,40,41)         39.9113         estimate D2E/DX2                !
 ! D120  D(13,12,40,42)        -82.3225         estimate D2E/DX2                !
 ! D121  D(13,12,40,43)        163.8854         estimate D2E/DX2                !
 ! D122  D(33,12,40,41)        -86.2479         estimate D2E/DX2                !
 ! D123  D(33,12,40,42)        151.5183         estimate D2E/DX2                !
 ! D124  D(33,12,40,43)         37.7261         estimate D2E/DX2                !
 ! D125  D(11,19,20,23)        169.2341         estimate D2E/DX2                !
 ! D126  D(11,19,20,24)        -72.4864         estimate D2E/DX2                !
 ! D127  D(11,19,20,25)         50.7204         estimate D2E/DX2                !
 ! D128  D(21,19,20,23)        -69.1004         estimate D2E/DX2                !
 ! D129  D(21,19,20,24)         49.1791         estimate D2E/DX2                !
 ! D130  D(21,19,20,25)        172.3859         estimate D2E/DX2                !
 ! D131  D(22,19,20,23)         49.0363         estimate D2E/DX2                !
 ! D132  D(22,19,20,24)        167.3158         estimate D2E/DX2                !
 ! D133  D(22,19,20,25)        -69.4774         estimate D2E/DX2                !
 ! D134  D(11,26,27,30)        169.372          estimate D2E/DX2                !
 ! D135  D(11,26,27,31)        -73.18           estimate D2E/DX2                !
 ! D136  D(11,26,27,32)         50.2473         estimate D2E/DX2                !
 ! D137  D(28,26,27,30)        -68.6849         estimate D2E/DX2                !
 ! D138  D(28,26,27,31)         48.763          estimate D2E/DX2                !
 ! D139  D(28,26,27,32)        172.1904         estimate D2E/DX2                !
 ! D140  D(29,26,27,30)         48.3358         estimate D2E/DX2                !
 ! D141  D(29,26,27,31)        165.7838         estimate D2E/DX2                !
 ! D142  D(29,26,27,32)        -70.7889         estimate D2E/DX2                !
 ! D143  D(12,33,34,37)        171.8039         estimate D2E/DX2                !
 ! D144  D(12,33,34,38)        -70.1908         estimate D2E/DX2                !
 ! D145  D(12,33,34,39)         53.4323         estimate D2E/DX2                !
 ! D146  D(35,33,34,37)        -66.875          estimate D2E/DX2                !
 ! D147  D(35,33,34,38)         51.1302         estimate D2E/DX2                !
 ! D148  D(35,33,34,39)        174.7534         estimate D2E/DX2                !
 ! D149  D(36,33,34,37)         50.183          estimate D2E/DX2                !
 ! D150  D(36,33,34,38)        168.1882         estimate D2E/DX2                !
 ! D151  D(36,33,34,39)        -68.1887         estimate D2E/DX2                !
 ! D152  D(12,40,41,44)        175.9696         estimate D2E/DX2                !
 ! D153  D(12,40,41,45)        -66.337          estimate D2E/DX2                !
 ! D154  D(12,40,41,46)         56.7915         estimate D2E/DX2                !
 ! D155  D(42,40,41,44)        -62.9589         estimate D2E/DX2                !
 ! D156  D(42,40,41,45)         54.7344         estimate D2E/DX2                !
 ! D157  D(42,40,41,46)        177.8629         estimate D2E/DX2                !
 ! D158  D(43,40,41,44)         54.1839         estimate D2E/DX2                !
 ! D159  D(43,40,41,45)        171.8772         estimate D2E/DX2                !
 ! D160  D(43,40,41,46)        -64.9943         estimate D2E/DX2                !
 ! D161  D(2,51,52,54)         178.8352         estimate D2E/DX2                !
 ! D162  D(2,51,52,55)          -0.4263         estimate D2E/DX2                !
 ! D163  D(53,51,52,54)         -0.1834         estimate D2E/DX2                !
 ! D164  D(53,51,52,55)       -179.4449         estimate D2E/DX2                !
 ! D165  D(2,51,53,56)        -178.6491         estimate D2E/DX2                !
 ! D166  D(2,51,53,57)           3.5333         estimate D2E/DX2                !
 ! D167  D(52,51,53,56)          0.2441         estimate D2E/DX2                !
 ! D168  D(52,51,53,57)       -177.5735         estimate D2E/DX2                !
 ! D169  D(51,52,54,58)         -0.0304         estimate D2E/DX2                !
 ! D170  D(51,52,54,59)       -179.7415         estimate D2E/DX2                !
 ! D171  D(55,52,54,58)        179.2251         estimate D2E/DX2                !
 ! D172  D(55,52,54,59)         -0.4861         estimate D2E/DX2                !
 ! D173  D(51,53,56,58)         -0.092          estimate D2E/DX2                !
 ! D174  D(51,53,56,60)       -179.7522         estimate D2E/DX2                !
 ! D175  D(57,53,56,58)        177.7307         estimate D2E/DX2                !
 ! D176  D(57,53,56,60)         -1.9296         estimate D2E/DX2                !
 ! D177  D(52,54,58,56)          0.1862         estimate D2E/DX2                !
 ! D178  D(52,54,58,61)       -179.9073         estimate D2E/DX2                !
 ! D179  D(59,54,58,56)        179.8965         estimate D2E/DX2                !
 ! D180  D(59,54,58,61)         -0.1971         estimate D2E/DX2                !
 ! D181  D(53,56,58,54)         -0.1259         estimate D2E/DX2                !
 ! D182  D(53,56,58,61)        179.9676         estimate D2E/DX2                !
 ! D183  D(60,56,58,54)        179.5335         estimate D2E/DX2                !
 ! D184  D(60,56,58,61)         -0.373          estimate D2E/DX2                !
 --------------------------------------------------------------------------------
 Trust Radius=3.00D-01 FncErr=1.00D-07 GrdErr=1.00D-06 EigMax=2.50D+02 EigMin=1.00D-04
 Number of steps in this run=    366 maximum allowed number of steps=    366.
 GradGradGradGradGradGradGradGradGradGradGradGradGradGradGradGradGradGrad

 Stoichiometry    C23H35N2Pt(1+)
 Framework group  C1[X(C23H35N2Pt)]
 Deg. of freedom   177
 Full point group                 C1      NOp   1
 Largest Abelian subgroup         C1      NOp   1
 Largest concise Abelian subgroup C1      NOp   1
                         Standard orientation:                         
 ---------------------------------------------------------------------
 Center     Atomic      Atomic             Coordinates (Angstroms)
 Number     Number       Type             X           Y           Z
 ---------------------------------------------------------------------
      1         78           0        0.143436   -0.729107   -0.433700
      2          6           0       -0.166270    0.936060    1.190751
      3          6           0        1.113146    0.551706    1.708734
      4          6           0       -1.288899    0.182288    1.672996
      5          6           0        1.202321   -0.224320    2.874491
      6          6           0       -1.183476   -0.606732    2.824408
      7          6           0        0.047986   -0.731320    3.485790
      8          1           0        2.184475   -0.443707    3.288655
      9          1           0       -2.058877   -1.135530    3.193779
     10          1           0        0.119590   -1.293259    4.410693
     11          7           0       -2.019555   -0.908475   -0.369179
     12          7           0        2.270289   -0.326799   -0.224636
     13          6           0        2.307776    0.790753    0.823827
     14          1           0        2.220571    1.746880    0.298836
     15          1           0        3.262214    0.768760    1.360946
     16          6           0       -2.455628    0.074778    0.722982
     17          1           0       -2.655007    1.033615    0.233083
     18          1           0       -3.376574   -0.268900    1.202111
     19          6           0       -2.589950   -0.489230   -1.708448
     20          6           0       -4.112716   -0.491975   -1.828776
     21          1           0       -2.149602   -1.152645   -2.459607
     22          1           0       -2.195955    0.518166   -1.894685
     23          1           0       -4.390049    0.007497   -2.762596
     24          1           0       -4.525150   -1.504590   -1.870874
     25          1           0       -4.598008    0.054124   -1.011679
     26          6           0       -2.332671   -2.355943   -0.015550
     27          6           0       -3.674839   -2.652212    0.657310
     28          1           0       -1.521247   -2.706986    0.632528
     29          1           0       -2.250829   -2.911686   -0.956926
     30          1           0       -3.817313   -3.737850    0.665190
     31          1           0       -3.700923   -2.324356    1.702032
     32          1           0       -4.530265   -2.212424    0.138589
     33          6           0        2.883186   -1.608243    0.308253
     34          6           0        4.386273   -1.604765    0.582311
     35          1           0        2.640221   -2.389348   -0.420242
     36          1           0        2.333829   -1.853379    1.224758
     37          1           0        4.642285   -2.538280    1.094079
     38          1           0        4.978412   -1.570067   -0.336663
     39          1           0        4.702203   -0.782981    1.235841
     40          6           0        2.896231    0.111585   -1.536537
     41          6           0        4.161354    0.967877   -1.445926
     42          1           0        2.126902    0.668516   -2.083600
     43          1           0        3.090733   -0.804059   -2.106701
     44          1           0        4.530688    1.140853   -2.462076
     45          1           0        3.965005    1.951373   -1.007061
     46          1           0        4.966410    0.493595   -0.879489
     47          6           0        0.348666   -1.825633   -2.168272
     48          1           0       -0.397211   -2.630070   -2.211880
     49          1           0        0.206783   -1.147614   -3.022891
     50          1           0        1.346295   -2.278146   -2.231956
     51          6           0       -0.398564    2.238231    0.474398
     52          6           0       -1.022347    3.241027    1.247015
     53          6           0       -0.039053    2.540094   -0.851733
     54          6           0       -1.274919    4.508460    0.709679
     55          1           0       -1.296938    3.022531    2.277103
     56          6           0       -0.290312    3.808981   -1.390173
     57          1           0        0.407276    1.769910   -1.479149
     58          6           0       -0.907397    4.797855   -0.612259
     59          1           0       -1.751858    5.268061    1.320858
     60          1           0       -0.009731    4.023053   -2.416836
     61          1           0       -1.100846    5.780258   -1.030528
 ---------------------------------------------------------------------
 Rotational constants (GHZ):           0.2084773           0.1845450           0.1473075
 General basis read from cards:  (5D, 7F)
 ======================================================================================================
                                       Pseudopotential Parameters
 ======================================================================================================
  Center     Atomic      Valence      Angular      Power
  Number     Number     Electrons     Momentum     of R      Exponent        Coefficient   SO-Coeffient
 ======================================================================================================
    1         78           18
                                      G and up 
                                                     1      728.9394056       -0.16192680    0.00000000
                                                     2      320.6567800    -1320.28738520    0.00000000
                                                     2       52.8680174     -298.31781350    0.00000000
                                                     2       12.0280128      -87.58370650    0.00000000
                                                     2        3.5238913       -8.14932740    0.00000000
                                      S - G
                                                     0      409.4437358        2.73342180    0.00000000
                                                     1      274.5419231       59.70243290    0.00000000
                                                     2      127.5658570      891.45895500    0.00000000
                                                     2       32.9036631      368.44676560    0.00000000
                                                     2        5.0593880      238.02630900    0.00000000
                                                     2        4.1506556     -107.05564540    0.00000000
                                      P - G
                                                     0      466.1728892        1.88785680    0.00000000
                                                     1      120.7888259       76.01386290    0.00000000
                                                     2       36.4118791      343.55111160    0.00000000
                                                     2        5.6985408      119.49117860    0.00000000
                                      D - G
                                                     0      249.5650763        2.93436780    0.00000000
                                                     1      126.6678585       59.33065710    0.00000000
                                                     2       63.1430586      452.44451940    0.00000000
                                                     2       17.9059470      210.47694790    0.00000000
                                                     2        4.2239373       58.62541120    0.00000000
                                      F - G
                                                     0      121.8158799        3.95342530    0.00000000
                                                     1       60.8757030       53.85551820    0.00000000
                                                     2       31.4767147      247.43051330    0.00000000
                                                     2        9.8811751      127.81879760    0.00000000
                                                     2        2.7319874       15.37720460    0.00000000
    2          6
                                   No pseudopotential on this center.
    3          6
                                   No pseudopotential on this center.
    4          6
                                   No pseudopotential on this center.
    5          6
                                   No pseudopotential on this center.
    6          6
                                   No pseudopotential on this center.
    7          6
                                   No pseudopotential on this center.
    8          1
                                   No pseudopotential on this center.
    9          1
                                   No pseudopotential on this center.
   10          1
                                   No pseudopotential on this center.
   11          7
                                   No pseudopotential on this center.
   12          7
                                   No pseudopotential on this center.
   13          6
                                   No pseudopotential on this center.
   14          1
                                   No pseudopotential on this center.
   15          1
                                   No pseudopotential on this center.
   16          6
                                   No pseudopotential on this center.
   17          1
                                   No pseudopotential on this center.
   18          1
                                   No pseudopotential on this center.
   19          6
                                   No pseudopotential on this center.
   20          6
                                   No pseudopotential on this center.
   21          1
                                   No pseudopotential on this center.
   22          1
                                   No pseudopotential on this center.
   23          1
                                   No pseudopotential on this center.
   24          1
                                   No pseudopotential on this center.
   25          1
                                   No pseudopotential on this center.
   26          6
                                   No pseudopotential on this center.
   27          6
                                   No pseudopotential on this center.
   28          1
                                   No pseudopotential on this center.
   29          1
                                   No pseudopotential on this center.
   30          1
                                   No pseudopotential on this center.
   31          1
                                   No pseudopotential on this center.
   32          1
                                   No pseudopotential on this center.
   33          6
                                   No pseudopotential on this center.
   34          6
                                   No pseudopotential on this center.
   35          1
                                   No pseudopotential on this center.
   36          1
                                   No pseudopotential on this center.
   37          1
                                   No pseudopotential on this center.
   38          1
                                   No pseudopotential on this center.
   39          1
                                   No pseudopotential on this center.
   40          6
                                   No pseudopotential on this center.
   41          6
                                   No pseudopotential on this center.
   42          1
                                   No pseudopotential on this center.
   43          1
                                   No pseudopotential on this center.
   44          1
                                   No pseudopotential on this center.
   45          1
                                   No pseudopotential on this center.
   46          1
                                   No pseudopotential on this center.
   47          6
                                   No pseudopotential on this center.
   48          1
                                   No pseudopotential on this center.
   49          1
                                   No pseudopotential on this center.
   50          1
                                   No pseudopotential on this center.
   51          6
                                   No pseudopotential on this center.
   52          6
                                   No pseudopotential on this center.
   53          6
                                   No pseudopotential on this center.
   54          6
                                   No pseudopotential on this center.
   55          1
                                   No pseudopotential on this center.
   56          6
                                   No pseudopotential on this center.
   57          1
                                   No pseudopotential on this center.
   58          6
                                   No pseudopotential on this center.
   59          1
                                   No pseudopotential on this center.
   60          1
                                   No pseudopotential on this center.
   61          1
                                   No pseudopotential on this center.
 ======================================================================================================
 There are   883 symmetry adapted cartesian basis functions of A   symmetry.
 There are   827 symmetry adapted basis functions of A   symmetry.
   827 basis functions,  1278 primitive gaussians,   883 cartesian basis functions
   102 alpha electrons      102 beta electrons
       nuclear repulsion energy      2881.7204635098 Hartrees.
 NAtoms=   61 NActive=   61 NUniq=   61 SFac= 1.00D+00 NAtFMM=   60 NAOKFM=T Big=T
 Integral buffers will be    131072 words long.
 Raffenetti 2 integral format.
 Two-electron integral symmetry is turned on.
 Nuclear repulsion after empirical dispersion term =     2881.7030307928 Hartrees.
 ------------------------------------------------------------------------------
 Polarizable Continuum Model (PCM)
 =================================
 Model                : PCM.
 Atomic radii         : UFF (Universal Force Field).
 Polarization charges : Total charges.
 Charge compensation  : None.
 Solution method      : On-the-fly selection.
 Cavity type          : Scaled VdW (van der Waals Surface) (Alpha=1.100).
 Cavity algorithm     : GePol (No added spheres)
                        Default sphere list used, NSphG=   61.
                        Lebedev-Laikov grids with approx.  5.0 points / Ang**2.
                        Smoothing algorithm: York/Karplus (Gamma=1.0000).
                        Polarization charges: spherical gaussians, with
                                              point-specific exponents (IZeta= 3).
                        Self-potential: point-specific (ISelfS= 7).
                        Self-field    : sphere-specific E.n sum rule (ISelfD= 2).
 1st derivatives      : Analytical E(r).r(x)/FMM algorithm (CHGder, D1EAlg=3).
                        Cavity 1st derivative terms included.
 Solvent              : TetraHydroFuran, Eps=   7.425700 Eps(inf)=   1.974025
 ------------------------------------------------------------------------------
 One-electron integrals computed using PRISM.
   1 Symmetry operations used in ECPInt.
 ECPInt:  NShTT=   46360 NPrTT=  151530 LenC2=   39984 LenP2D=   86304.
 LDataN:  DoStor=T MaxTD1= 7 Len=  274
 Number of processors reduced to  10 by ecpmxn.
 NBasis=   827 RedAO= T EigKep=  4.67D-05  NBF=   827
 NBsUse=   827 1.00D-06 EigRej= -1.00D+00 NBFU=   827
 Defaulting to unpruned grid for atomic number  78.
 ExpMin= 2.90D-02 ExpMax= 6.29D+03 ExpMxC= 9.49D+02 IAcc=3 IRadAn=         5 AccDes= 0.00D+00
 Harris functional with IExCor= 1009 and IRadAn=       5 diagonalized for initial guess.
 HarFok:  IExCor= 1009 AccDes= 0.00D+00 IRadAn=         5 IDoV= 1 UseB2=F ITyADJ=14
 ICtDFT=  3500011 ScaDFX=  1.000000  1.000000  1.000000  1.000000
 Defaulting to unpruned grid for atomic number  78.
 FoFCou: FMM=F IPFlag=           0 FMFlag=      100000 FMFlg1=        2001
         NFxFlg=           0 DoJE=T BraDBF=F KetDBF=T FulRan=T
         wScrn=  0.000000 ICntrl=       500 IOpCl=  0 I1Cent=   200000004 NGrid=           0
         NMat0=    1 NMatS0=      1 NMatT0=    0 NMatD0=    1 NMtDS0=    0 NMtDT0=    0
 Petite list used in FoFCou.
 Requested convergence on RMS density matrix=1.00D-08 within 128 cycles.
 Requested convergence on MAX density matrix=1.00D-06.
 Requested convergence on             energy=1.00D-06.
 No special actions if energy rises.
 Defaulting to unpruned grid for atomic number  78.
 Defaulting to unpruned grid for atomic number  78.
 Defaulting to unpruned grid for atomic number  78.
 Defaulting to unpruned grid for atomic number  78.
 Defaulting to unpruned grid for atomic number  78.
 Defaulting to unpruned grid for atomic number  78.
 Defaulting to unpruned grid for atomic number  78.
 Defaulting to unpruned grid for atomic number  78.
 Defaulting to unpruned grid for atomic number  78.
 Defaulting to unpruned grid for atomic number  78.
 Defaulting to unpruned grid for atomic number  78.
 Defaulting to unpruned grid for atomic number  78.
 Inv3:  Mode=1 IEnd=    38427723.
 Iteration    1 A*A^-1 deviation from unit magnitude is 4.33D-15 for    383.
 Iteration    1 A*A^-1 deviation from orthogonality  is 2.00D-15 for   2001    572.
 Iteration    1 A^-1*A deviation from unit magnitude is 4.33D-15 for    383.
 Iteration    1 A^-1*A deviation from orthogonality  is 2.44D-15 for   3452   1817.
 Error on total polarization charges =  0.02167
 SCF Done:  E(RM06) =  -1125.50880756     A.U. after   16 cycles
            NFock= 16  Conv=0.34D-08     -V/T= 2.0832

 **********************************************************************

            Population analysis using the SCF Density.

 **********************************************************************

 Orbital symmetries:
       Occupied  (A) (A) (A) (A) (A) (A) (A) (A) (A) (A) (A) (A)
                 (A) (A) (A) (A) (A) (A) (A) (A) (A) (A) (A) (A)
                 (A) (A) (A) (A) (A) (A) (A) (A) (A) (A) (A) (A)
                 (A) (A) (A) (A) (A) (A) (A) (A) (A) (A) (A) (A)
                 (A) (A) (A) (A) (A) (A) (A) (A) (A) (A) (A) (A)
                 (A) (A) (A) (A) (A) (A) (A) (A) (A) (A) (A) (A)
                 (A) (A) (A) (A) (A) (A) (A) (A) (A) (A) (A) (A)
                 (A) (A) (A) (A) (A) (A) (A) (A) (A) (A) (A) (A)
                 (A) (A) (A) (A) (A) (A)
       Virtual   (A) (A) (A) (A) (A) (A) (A) (A) (A) (A) (A) (A)
                 (A) (A) (A) (A) (A) (A) (A) (A) (A) (A) (A) (A)
                 (A) (A) (A) (A) (A) (A) (A) (A) (A) (A) (A) (A)
                 (A) (A) (A) (A) (A) (A) (A) (A) (A) (A) (A) (A)
                 (A) (A) (A) (A) (A) (A) (A) (A) (A) (A) (A) (A)
                 (A) (A) (A) (A) (A) (A) (A) (A) (A) (A) (A) (A)
                 (A) (A) (A) (A) (A) (A) (A) (A) (A) (A) (A) (A)
                 (A) (A) (A) (A) (A) (A) (A) (A) (A) (A) (A) (A)
                 (A) (A) (A) (A) (A) (A) (A) (A) (A) (A) (A) (A)
                 (A) (A) (A) (A) (A) (A) (A) (A) (A) (A) (A) (A)
                 (A) (A) (A) (A) (A) (A) (A) (A) (A) (A) (A) (A)
                 (A) (A) (A) (A) (A) (A) (A) (A) (A) (A) (A) (A)
                 (A) (A) (A) (A) (A) (A) (A) (A) (A) (A) (A) (A)
                 (A) (A) (A) (A) (A) (A) (A) (A) (A) (A) (A) (A)
                 (A) (A) (A) (A) (A) (A) (A) (A) (A) (A) (A) (A)
                 (A) (A) (A) (A) (A) (A) (A) (A) (A) (A) (A) (A)
                 (A) (A) (A) (A) (A) (A) (A) (A) (A) (A) (A) (A)
                 (A) (A) (A) (A) (A) (A) (A) (A) (A) (A) (A) (A)
                 (A) (A) (A) (A) (A) (A) (A) (A) (A) (A) (A) (A)
                 (A) (A) (A) (A) (A) (A) (A) (A) (A) (A) (A) (A)
                 (A) (A) (A) (A) (A) (A) (A) (A) (A) (A) (A) (A)
                 (A) (A) (A) (A) (A) (A) (A) (A) (A) (A) (A) (A)
                 (A) (A) (A) (A) (A) (A) (A) (A) (A) (A) (A) (A)
                 (A) (A) (A) (A) (A) (A) (A) (A) (A) (A) (A) (A)
                 (A) (A) (A) (A) (A) (A) (A) (A) (A) (A) (A) (A)
                 (A) (A) (A) (A) (A) (A) (A) (A) (A) (A) (A) (A)
                 (A) (A) (A) (A) (A) (A) (A) (A) (A) (A) (A) (A)
                 (A) (A) (A) (A) (A) (A) (A) (A) (A) (A) (A) (A)
                 (A) (A) (A) (A) (A) (A) (A) (A) (A) (A) (A) (A)
                 (A) (A) (A) (A) (A) (A) (A) (A) (A) (A) (A) (A)
                 (A) (A) (A) (A) (A) (A) (A) (A) (A) (A) (A) (A)
                 (A) (A) (A) (A) (A) (A) (A) (A) (A) (A) (A) (A)
                 (A) (A) (A) (A) (A) (A) (A) (A) (A) (A) (A) (A)
                 (A) (A) (A) (A) (A) (A) (A) (A) (A) (A) (A) (A)
                 (A) (A) (A) (A) (A) (A) (A) (A) (A) (A) (A) (A)
                 (A) (A) (A) (A) (A) (A) (A) (A) (A) (A) (A) (A)
                 (A) (A) (A) (A) (A) (A) (A) (A) (A) (A) (A) (A)
                 (A) (A) (A) (A) (A) (A) (A) (A) (A) (A) (A) (A)
                 (A) (A) (A) (A) (A) (A) (A) (A) (A) (A) (A) (A)
                 (A) (A) (A) (A) (A) (A) (A) (A) (A) (A) (A) (A)
                 (A) (A) (A) (A) (A) (A) (A) (A) (A) (A) (A) (A)
                 (A) (A) (A) (A) (A) (A) (A) (A) (A) (A) (A) (A)
                 (A) (A) (A) (A) (A) (A) (A) (A) (A) (A) (A) (A)
                 (A) (A) (A) (A) (A) (A) (A) (A) (A) (A) (A) (A)
                 (A) (A) (A) (A) (A) (A) (A) (A) (A) (A) (A) (A)
                 (A) (A) (A) (A) (A) (A) (A) (A) (A) (A) (A) (A)
                 (A) (A) (A) (A) (A) (A) (A) (A) (A) (A) (A) (A)
                 (A) (A) (A) (A) (A) (A) (A) (A) (A) (A) (A) (A)
                 (A) (A) (A) (A) (A) (A) (A) (A) (A) (A) (A) (A)
                 (A) (A) (A) (A) (A) (A) (A) (A) (A) (A) (A) (A)
                 (A) (A) (A) (A) (A) (A) (A) (A) (A) (A) (A) (A)
                 (A) (A) (A) (A) (A) (A) (A) (A) (A) (A) (A) (A)
                 (A) (A) (A) (A) (A) (A) (A) (A) (A) (A) (A) (A)
                 (A) (A) (A) (A) (A) (A) (A) (A) (A) (A) (A) (A)
                 (A) (A) (A) (A) (A) (A) (A) (A) (A) (A) (A) (A)
                 (A) (A) (A) (A) (A) (A) (A) (A) (A) (A) (A) (A)
                 (A) (A) (A) (A) (A) (A) (A) (A) (A) (A) (A) (A)
                 (A) (A) (A) (A) (A) (A) (A) (A) (A) (A) (A) (A)
                 (A) (A) (A) (A) (A) (A) (A) (A) (A) (A) (A) (A)
                 (A) (A) (A) (A) (A) (A) (A) (A) (A) (A) (A) (A)
                 (A) (A) (A) (A) (A)
 The electronic state is 1-A.
 Alpha  occ. eigenvalues --  -14.48198 -14.48079 -10.31139 -10.30965 -10.30208
 Alpha  occ. eigenvalues --  -10.30117 -10.30041 -10.29968 -10.29894 -10.29862
 Alpha  occ. eigenvalues --  -10.29756 -10.28295 -10.27925 -10.27672 -10.27650
 Alpha  occ. eigenvalues --  -10.26628 -10.26484 -10.26289 -10.26234 -10.26154
 Alpha  occ. eigenvalues --  -10.25173 -10.25166 -10.25060 -10.25017 -10.24101
 Alpha  occ. eigenvalues --   -3.91743  -2.15610  -2.15577  -2.12568  -0.98993
 Alpha  occ. eigenvalues --   -0.98405  -0.92183  -0.88846  -0.83676  -0.82728
 Alpha  occ. eigenvalues --   -0.80357  -0.80323  -0.79066  -0.78041  -0.77118
 Alpha  occ. eigenvalues --   -0.76471  -0.73435  -0.72735  -0.69971  -0.67303
 Alpha  occ. eigenvalues --   -0.67071  -0.66357  -0.64636  -0.63736  -0.62736
 Alpha  occ. eigenvalues --   -0.61150  -0.60363  -0.56174  -0.55575  -0.54871
 Alpha  occ. eigenvalues --   -0.53929  -0.53688  -0.52415  -0.51743  -0.50881
 Alpha  occ. eigenvalues --   -0.49723  -0.49356  -0.48942  -0.47835  -0.47420
 Alpha  occ. eigenvalues --   -0.46599  -0.45774  -0.45667  -0.45345  -0.45081
 Alpha  occ. eigenvalues --   -0.44840  -0.44020  -0.43763  -0.43542  -0.43317
 Alpha  occ. eigenvalues --   -0.42913  -0.42694  -0.42476  -0.42174  -0.41807
 Alpha  occ. eigenvalues --   -0.40563  -0.40084  -0.39920  -0.39562  -0.38870
 Alpha  occ. eigenvalues --   -0.38532  -0.38333  -0.38029  -0.37836  -0.37537
 Alpha  occ. eigenvalues --   -0.37062  -0.36824  -0.36088  -0.32549  -0.30842
 Alpha  occ. eigenvalues --   -0.30483  -0.29003  -0.28297  -0.27981  -0.27351
 Alpha  occ. eigenvalues --   -0.27231  -0.25682
 Alpha virt. eigenvalues --   -0.08823  -0.05560  -0.04892  -0.03280  -0.02825
 Alpha virt. eigenvalues --   -0.01956  -0.01646  -0.01042   0.01321   0.02454
 Alpha virt. eigenvalues --    0.03818   0.04046   0.04402   0.04983   0.05275
 Alpha virt. eigenvalues --    0.05632   0.05789   0.06350   0.06871   0.07009
 Alpha virt. eigenvalues --    0.07018   0.07432   0.07790   0.08154   0.08355
 Alpha virt. eigenvalues --    0.08566   0.09033   0.09540   0.09653   0.10041
 Alpha virt. eigenvalues --    0.10489   0.10833   0.11206   0.11722   0.11785
 Alpha virt. eigenvalues --    0.12049   0.12699   0.12928   0.13350   0.13841
 Alpha virt. eigenvalues --    0.13955   0.14742   0.14834   0.15042   0.15141
 Alpha virt. eigenvalues --    0.15462   0.15818   0.16506   0.16684   0.17671
 Alpha virt. eigenvalues --    0.18233   0.18370   0.19539   0.19924   0.20238
 Alpha virt. eigenvalues --    0.20806   0.21484   0.22124   0.22538   0.23221
 Alpha virt. eigenvalues --    0.23741   0.24115   0.24526   0.25387   0.25848
 Alpha virt. eigenvalues --    0.26041   0.26811   0.27192   0.27448   0.27583
 Alpha virt. eigenvalues --    0.27981   0.28168   0.28588   0.28863   0.29235
 Alpha virt. eigenvalues --    0.30029   0.30206   0.30768   0.31218   0.31965
 Alpha virt. eigenvalues --    0.32101   0.32575   0.33351   0.33495   0.34034
 Alpha virt. eigenvalues --    0.34538   0.35100   0.35647   0.35680   0.36262
 Alpha virt. eigenvalues --    0.36414   0.36942   0.37644   0.37768   0.38258
 Alpha virt. eigenvalues --    0.38674   0.38890   0.39428   0.39476   0.39979
 Alpha virt. eigenvalues --    0.40490   0.40825   0.41195   0.41820   0.42086
 Alpha virt. eigenvalues --    0.42675   0.42872   0.43260   0.43769   0.44415
 Alpha virt. eigenvalues --    0.44842   0.44925   0.45605   0.45817   0.46603
 Alpha virt. eigenvalues --    0.47177   0.47699   0.47838   0.48424   0.49045
 Alpha virt. eigenvalues --    0.49185   0.49927   0.50374   0.50449   0.50817
 Alpha virt. eigenvalues --    0.51052   0.51086   0.51520   0.51810   0.51994
 Alpha virt. eigenvalues --    0.52244   0.52977   0.53025   0.53374   0.53632
 Alpha virt. eigenvalues --    0.53791   0.54047   0.54353   0.54593   0.55133
 Alpha virt. eigenvalues --    0.55166   0.55396   0.55504   0.55670   0.56175
 Alpha virt. eigenvalues --    0.56518   0.56747   0.57029   0.57560   0.57768
 Alpha virt. eigenvalues --    0.58127   0.58648   0.59043   0.59391   0.59507
 Alpha virt. eigenvalues --    0.59961   0.60329   0.60445   0.60969   0.61806
 Alpha virt. eigenvalues --    0.62285   0.62366   0.62695   0.63065   0.63418
 Alpha virt. eigenvalues --    0.63472   0.63893   0.64782   0.65182   0.65980
 Alpha virt. eigenvalues --    0.66261   0.66481   0.67117   0.67449   0.67967
 Alpha virt. eigenvalues --    0.68195   0.68753   0.69309   0.69913   0.70524
 Alpha virt. eigenvalues --    0.70910   0.71228   0.71256   0.72100   0.72505
 Alpha virt. eigenvalues --    0.72825   0.73718   0.74256   0.74453   0.74815
 Alpha virt. eigenvalues --    0.75586   0.75869   0.76595   0.76702   0.76971
 Alpha virt. eigenvalues --    0.77821   0.78547   0.79749   0.79767   0.80100
 Alpha virt. eigenvalues --    0.80925   0.81266   0.81611   0.82850   0.83217
 Alpha virt. eigenvalues --    0.84064   0.84665   0.84856   0.85566   0.86181
 Alpha virt. eigenvalues --    0.86831   0.88787   0.89600   0.90027   0.90514
 Alpha virt. eigenvalues --    0.91266   0.91355   0.92046   0.92128   0.93573
 Alpha virt. eigenvalues --    0.93889   0.94313   0.95376   0.95699   0.96117
 Alpha virt. eigenvalues --    0.96709   0.97621   0.98127   0.98655   0.99629
 Alpha virt. eigenvalues --    0.99714   0.99932   1.00878   1.01240   1.02206
 Alpha virt. eigenvalues --    1.03146   1.03682   1.03905   1.04582   1.04997
 Alpha virt. eigenvalues --    1.05941   1.06370   1.06607   1.06948   1.07875
 Alpha virt. eigenvalues --    1.08507   1.08978   1.09317   1.09719   1.10443
 Alpha virt. eigenvalues --    1.10679   1.11223   1.11972   1.12409   1.12761
 Alpha virt. eigenvalues --    1.13560   1.14145   1.14342   1.14708   1.15485
 Alpha virt. eigenvalues --    1.16320   1.16368   1.17515   1.18165   1.18430
 Alpha virt. eigenvalues --    1.19487   1.20334   1.20360   1.20701   1.21373
 Alpha virt. eigenvalues --    1.21860   1.21988   1.22439   1.23501   1.23737
 Alpha virt. eigenvalues --    1.23998   1.24791   1.25047   1.25890   1.25960
 Alpha virt. eigenvalues --    1.26333   1.26981   1.27287   1.28036   1.28737
 Alpha virt. eigenvalues --    1.29480   1.29883   1.30514   1.30862   1.32391
 Alpha virt. eigenvalues --    1.33336   1.33633   1.34341   1.35005   1.35813
 Alpha virt. eigenvalues --    1.36152   1.36313   1.37930   1.38754   1.39143
 Alpha virt. eigenvalues --    1.40005   1.41223   1.42144   1.42664   1.43504
 Alpha virt. eigenvalues --    1.44086   1.44908   1.45087   1.45931   1.46493
 Alpha virt. eigenvalues --    1.46925   1.47476   1.48151   1.49191   1.49566
 Alpha virt. eigenvalues --    1.50206   1.50994   1.51571   1.52241   1.53012
 Alpha virt. eigenvalues --    1.53394   1.54463   1.55280   1.56106   1.56689
 Alpha virt. eigenvalues --    1.58273   1.58791   1.59426   1.60985   1.61492
 Alpha virt. eigenvalues --    1.62125   1.63177   1.64078   1.65121   1.65925
 Alpha virt. eigenvalues --    1.66322   1.67462   1.68034   1.68676   1.68949
 Alpha virt. eigenvalues --    1.69507   1.69946   1.70465   1.71737   1.71943
 Alpha virt. eigenvalues --    1.72536   1.72971   1.73709   1.74416   1.74905
 Alpha virt. eigenvalues --    1.76027   1.76510   1.76911   1.77398   1.78170
 Alpha virt. eigenvalues --    1.79983   1.80141   1.80647   1.80883   1.82011
 Alpha virt. eigenvalues --    1.82670   1.84516   1.84916   1.85726   1.86407
 Alpha virt. eigenvalues --    1.87178   1.88011   1.89313   1.89896   1.92235
 Alpha virt. eigenvalues --    1.92956   1.93721   1.95719   1.95853   1.97647
 Alpha virt. eigenvalues --    1.97758   1.99497   2.00269   2.01098   2.02029
 Alpha virt. eigenvalues --    2.02981   2.04057   2.04866   2.05316   2.06077
 Alpha virt. eigenvalues --    2.06618   2.07329   2.08043   2.08097   2.08715
 Alpha virt. eigenvalues --    2.08896   2.09727   2.10392   2.10668   2.11102
 Alpha virt. eigenvalues --    2.11467   2.11833   2.12802   2.13305   2.14274
 Alpha virt. eigenvalues --    2.14558   2.14808   2.15245   2.16107   2.16654
 Alpha virt. eigenvalues --    2.17104   2.17431   2.18084   2.18785   2.19108
 Alpha virt. eigenvalues --    2.20029   2.20148   2.20767   2.21490   2.21766
 Alpha virt. eigenvalues --    2.23649   2.23997   2.25243   2.25335   2.26022
 Alpha virt. eigenvalues --    2.27248   2.28115   2.28526   2.28893   2.30602
 Alpha virt. eigenvalues --    2.31640   2.32051   2.33235   2.33643   2.34517
 Alpha virt. eigenvalues --    2.35011   2.36078   2.37637   2.37806   2.38456
 Alpha virt. eigenvalues --    2.38914   2.39581   2.40817   2.41881   2.42358
 Alpha virt. eigenvalues --    2.42702   2.42972   2.43682   2.44855   2.46305
 Alpha virt. eigenvalues --    2.46744   2.47394   2.48988   2.49251   2.50304
 Alpha virt. eigenvalues --    2.50896   2.51628   2.51968   2.53045   2.53919
 Alpha virt. eigenvalues --    2.54892   2.55230   2.55926   2.56884   2.57156
 Alpha virt. eigenvalues --    2.57612   2.58001   2.58664   2.59552   2.60617
 Alpha virt. eigenvalues --    2.60635   2.61125   2.61351   2.62871   2.63189
 Alpha virt. eigenvalues --    2.63852   2.64814   2.65886   2.67869   2.68984
 Alpha virt. eigenvalues --    2.70609   2.71313   2.71590   2.72070   2.73247
 Alpha virt. eigenvalues --    2.74441   2.75060   2.75530   2.76572   2.76971
 Alpha virt. eigenvalues --    2.78148   2.78565   2.78736   2.78931   2.79947
 Alpha virt. eigenvalues --    2.81524   2.82571   2.83485   2.84404   2.85223
 Alpha virt. eigenvalues --    2.86709   2.87703   2.88502   2.89087   2.89945
 Alpha virt. eigenvalues --    2.90312   2.96094   2.98459   2.99732   3.01178
 Alpha virt. eigenvalues --    3.01759   3.04019   3.05165   3.05982   3.06725
 Alpha virt. eigenvalues --    3.07199   3.07805   3.08241   3.08876   3.09152
 Alpha virt. eigenvalues --    3.10990   3.12252   3.12520   3.14627   3.15609
 Alpha virt. eigenvalues --    3.15971   3.16752   3.17255   3.17627   3.18334
 Alpha virt. eigenvalues --    3.19105   3.19638   3.19948   3.20599   3.20860
 Alpha virt. eigenvalues --    3.20989   3.22087   3.23165   3.24280   3.25225
 Alpha virt. eigenvalues --    3.25363   3.26035   3.26304   3.27721   3.28385
 Alpha virt. eigenvalues --    3.29079   3.29785   3.29931   3.30651   3.31118
 Alpha virt. eigenvalues --    3.31464   3.31928   3.32115   3.32703   3.34340
 Alpha virt. eigenvalues --    3.35730   3.36168   3.36661   3.37179   3.38256
 Alpha virt. eigenvalues --    3.38504   3.39243   3.40402   3.40750   3.41132
 Alpha virt. eigenvalues --    3.41668   3.42475   3.42948   3.43218   3.44179
 Alpha virt. eigenvalues --    3.44870   3.45143   3.45867   3.45967   3.47204
 Alpha virt. eigenvalues --    3.47801   3.48037   3.48265   3.48877   3.49563
 Alpha virt. eigenvalues --    3.50292   3.50513   3.51054   3.51716   3.51969
 Alpha virt. eigenvalues --    3.52569   3.53042   3.53738   3.54016   3.54190
 Alpha virt. eigenvalues --    3.55254   3.55463   3.55843   3.56193   3.56422
 Alpha virt. eigenvalues --    3.57598   3.58609   3.59324   3.59818   3.60324
 Alpha virt. eigenvalues --    3.60857   3.62312   3.62359   3.63106   3.63436
 Alpha virt. eigenvalues --    3.64093   3.64341   3.65185   3.65589   3.66420
 Alpha virt. eigenvalues --    3.66842   3.67360   3.67994   3.68330   3.69022
 Alpha virt. eigenvalues --    3.70035   3.70867   3.71746   3.72315   3.73292
 Alpha virt. eigenvalues --    3.73989   3.74490   3.75286   3.76694   3.77591
 Alpha virt. eigenvalues --    3.78191   3.79255   3.79635   3.80700   3.83081
 Alpha virt. eigenvalues --    3.83392   3.84205   3.85201   3.86491   3.87522
 Alpha virt. eigenvalues --    3.88101   3.88643   3.89219   3.90717   3.91794
 Alpha virt. eigenvalues --    3.93075   3.94482   3.95464   3.97037   4.00695
 Alpha virt. eigenvalues --    4.04389   4.06969   4.08739   4.09026   4.10079
 Alpha virt. eigenvalues --    4.10431   4.10730   4.10943   4.11492   4.11843
 Alpha virt. eigenvalues --    4.12052   4.12667   4.13547   4.14304   4.15019
 Alpha virt. eigenvalues --    4.16030   4.16938   4.17475   4.18078   4.18437
 Alpha virt. eigenvalues --    4.19577   4.23002   4.24597   4.28473   4.36342
 Alpha virt. eigenvalues --    4.36769   4.37462   4.38569   4.43002   4.44306
 Alpha virt. eigenvalues --    4.46769   4.47896   4.52191   4.54565   4.55931
 Alpha virt. eigenvalues --    4.66094   4.74263   4.74911   4.75185   4.76677
 Alpha virt. eigenvalues --    4.77849   4.79294   4.80024   4.90764   5.16502
 Alpha virt. eigenvalues --    5.22652   5.25616   5.28105   5.28613   5.30284
 Alpha virt. eigenvalues --    5.37230   5.43451   5.48038   5.49586   5.57228
 Alpha virt. eigenvalues --    5.61578  13.32097  13.56347  13.58975  23.57707
 Alpha virt. eigenvalues --   23.65618  23.79066  23.80716  23.86774  23.89471
 Alpha virt. eigenvalues --   23.89855  23.91979  23.92508  23.93311  23.94271
 Alpha virt. eigenvalues --   23.94566  23.96066  23.96927  23.97027  23.99817
 Alpha virt. eigenvalues --   23.99864  24.00832  24.01515  24.05511  24.06724
 Alpha virt. eigenvalues --   24.08334  24.26412  35.48641  35.52341  38.82042
          Condensed to atoms (all electrons):
 Mulliken charges:
               1
     1  Pt   0.774249
     2  C   -0.478202
     3  C    0.189001
     4  C    0.123908
     5  C   -0.140794
     6  C   -0.111150
     7  C   -0.073002
     8  H    0.115562
     9  H    0.111813
    10  H    0.102889
    11  N   -0.645603
    12  N   -0.646561
    13  C   -0.022410
    14  H    0.148664
    15  H    0.152674
    16  C   -0.032672
    17  H    0.153738
    18  H    0.157620
    19  C   -0.080437
    20  C   -0.294199
    21  H    0.150721
    22  H    0.152157
    23  H    0.133769
    24  H    0.120740
    25  H    0.119802
    26  C   -0.063872
    27  C   -0.299105
    28  H    0.173314
    29  H    0.151095
    30  H    0.135602
    31  H    0.113579
    32  H    0.116131
    33  C   -0.074012
    34  C   -0.298826
    35  H    0.159099
    36  H    0.149471
    37  H    0.137155
    38  H    0.123395
    39  H    0.116449
    40  C   -0.069107
    41  C   -0.289559
    42  H    0.152775
    43  H    0.149844
    44  H    0.133707
    45  H    0.119784
    46  H    0.116362
    47  C   -0.687098
    48  H    0.118026
    49  H    0.136508
    50  H    0.107881
    51  C    0.207635
    52  C   -0.122193
    53  C   -0.154122
    54  C   -0.085199
    55  H    0.100367
    56  C   -0.084134
    57  H    0.121391
    58  C   -0.065938
    59  H    0.090369
    60  H    0.090315
    61  H    0.090634
 Sum of Mulliken charges =   1.00000
 Mulliken charges with hydrogens summed into heavy atoms:
               1
     1  Pt   0.774249
     2  C   -0.478202
     3  C    0.189001
     4  C    0.123908
     5  C   -0.025232
     6  C    0.000663
     7  C    0.029887
    11  N   -0.645603
    12  N   -0.646561
    13  C    0.278927
    16  C    0.278685
    19  C    0.222441
    20  C    0.080111
    26  C    0.260537
    27  C    0.066206
    33  C    0.234559
    34  C    0.078173
    40  C    0.233512
    41  C    0.080294
    47  C   -0.324683
    51  C    0.207635
    52  C   -0.021826
    53  C   -0.032730
    54  C    0.005170
    56  C    0.006181
    58  C    0.024696
 Electronic spatial extent (au):  <R**2>=           8924.1016
 Charge=              1.0000 electrons
 Dipole moment (field-independent basis, Debye):
    X=              0.1553    Y=             -1.1026    Z=              1.2702  Tot=              1.6891
 Quadrupole moment (field-independent basis, Debye-Ang):
   XX=           -129.9013   YY=           -153.9774   ZZ=           -155.2943
   XY=              1.6103   XZ=             -0.2625   YZ=             -6.7683
 Traceless Quadrupole moment (field-independent basis, Debye-Ang):
   XX=             16.4897   YY=             -7.5864   ZZ=             -8.9033
   XY=              1.6103   XZ=             -0.2625   YZ=             -6.7683
 Octapole moment (field-independent basis, Debye-Ang**2):
  XXX=             45.7503  YYY=            -51.1299  ZZZ=            -30.4548  XYY=            -26.8801
  XXY=            -71.3834  XXZ=            -24.5168  XZZ=              7.1473  YZZ=            -38.5617
  YYZ=            -22.9111  XYZ=             -9.9782
 Hexadecapole moment (field-independent basis, Debye-Ang**3):
 XXXX=          -4948.5108 YYYY=          -3768.5681 ZZZZ=          -2349.1823 XXXY=             33.8758
 XXXZ=              1.8242 YYYX=           -113.3812 YYYZ=            -20.7236 ZZZX=              2.0093
 ZZZY=            -80.4179 XXYY=          -1507.9209 XXZZ=          -1207.9885 YYZZ=          -1066.8830
 XXYZ=              3.8038 YYXZ=            -28.1815 ZZXY=              1.3683
 N-N= 2.881703030793D+03 E-N=-8.317675159323D+03  KE= 1.039045821072D+03
   1 Symmetry operations used in ECPInt.
 ECPInt:  NShTT=   46360 NPrTT=  151530 LenC2=   39984 LenP2D=   86304.
 LDataN:  DoStor=T MaxTD1= 8 Len=  415
 D1PCM: PCM CHGder 1st derivatives, ID1Alg=3 FixD1E=F DoIter=F DoCFld=F I1PDM=0.
 Calling FoFJK, ICntrl=      2127 FMM=T ISym2X=0 I1Cent= 0 IOpClX= 0 NMat=1 NMatS=1 NMatT=0.
 Defaulting to unpruned grid for atomic number  78.
 Defaulting to unpruned grid for atomic number  78.
 Defaulting to unpruned grid for atomic number  78.
 Defaulting to unpruned grid for atomic number  78.
 Defaulting to unpruned grid for atomic number  78.
 Defaulting to unpruned grid for atomic number  78.
 Defaulting to unpruned grid for atomic number  78.
 Defaulting to unpruned grid for atomic number  78.
 Defaulting to unpruned grid for atomic number  78.
 Defaulting to unpruned grid for atomic number  78.
 Defaulting to unpruned grid for atomic number  78.
[...]
 0.00000190,0.00000673,0.00000616,0.00614676,0.00223051,0.00101946,0.00
 083489,0.00282667,0.00379572,-0.00060287,-0.00054580,-0.00028399,-0.10
 019933,0.09213207,0.07873268,-0.00304748,-0.00131418,-0.00142317,0.005
 54159,0.00074571,0.00337979,-0.00091663,-0.00025589,-0.00031491,-0.000
 29233,0.00659329,0.00396683,0.09552277,0.00004567,-0.00020934,-0.00000
 164,0.00056133,-0.00024039,-0.00054778,-0.00022013,-0.00012711,-0.0000
 1971,0.00014444,0.00004605,-0.00009631,0.00004735,0.00001887,0.0000665
 1,0.00000366,-0.00001365,0.00006806,-0.00000871,-0.00002498,0.00000768
 ,0.00000902,-0.00001044,0.00003348,-0.00001168,-0.00001032,0.00002230,
 0.00000182,-0.00001652,0.00000197,-0.00004751,-0.00000113,-0.00002252,
 0.00003830,-0.00000670,-0.00001175,-0.00004157,-0.00002049,-0.00000586
 ,-0.00002383,-0.00001592,0.00000743,0.00002047,-0.00001379,-0.00000232
 ,0.00003797,-0.00003235,0.00000331,0.00004552,0.00001516,0.00000156,-0
 .00001612,-0.00002508,0.00000053,0.00002521,-0.00002064,0.00003781,-0.
 00000003,0.00000187,-0.00001255,-0.00000106,0.00000028,-0.00000599,0.0
 0000568,0.00000275,0.00000678,-0.00000540,-0.00000033,-0.00000479,-0.0
 0000426,-0.00000131,0.00000143,0.00000033,-0.00000191,0.00000566,0.000
 01033,0.00003331,-0.00001518,-0.00000072,-0.00001048,0.00000151,-0.000
 00031,0.00001266,-0.00000223,-0.00000066,-0.00000633,-0.00000084,-0.00
 000373,-0.00000443,0.00000053,0.00000367,0.00000274,-0.00000011,-0.000
 00381,0.00000118,-0.00000150,-0.00002511,0.00002475,-0.00002009,0.0000
 0186,-0.00000761,0.00000301,0.00000345,-0.00000560,-0.00000181,-0.0000
 0046,0.00000888,0.00000073,0.00000476,-0.00000366,0.00000115,0.0000032
 1,0.00000138,-0.00000220,-0.00000217,0.00000373,-0.00000105,-0.0000176
 0,-0.00002427,0.00002981,0.00000170,0.00000295,-0.00000889,-0.00000420
 ,0.00000307,0.00000467,0.00000415,-0.00000199,-0.00000695,0.00000490,0
 .00000149,-0.00000384,-0.00000240,-0.00000315,0.00000261,0.00000208,-0
 .00000038,0.00000283,-0.00000871,0.00004210,-0.00001187,-0.00000438,-0
 .00001246,-0.00001069,0.00000287,-0.00001122,-0.00002724,0.00000751,-0
 .00000903,-0.00000857,0.00220900,-0.00275884,0.00337450,0.01321528,-0.
 01479425,-0.01769574,-0.00047287,-0.00042401,0.00079520,0.09203755,-0.
 18224320,-0.10440854,-0.00151463,0.00076685,-0.00055505,0.00098494,0.0
 0148410,0.00254537,-0.00028391,-0.00009716,-0.00021430,-0.00393783,0.0
 0856918,0.00558047,-0.10159677,0.18983804,-0.00002974,0.00006255,0.000
 07305,-0.00020930,0.00030592,0.00021731,0.00005040,-0.00001842,0.00001
 140,0.00001242,0.00000629,-0.00004619,0.00002272,-0.00000168,-0.000071
 01,0.00001755,-0.00005577,0.00001217,-0.00005699,0.00000730,-0.0000140
 6,-0.00000106,-0.00000062,-0.00000582,-0.00000026,0.00000808,0.0000052
 9,-0.00000140,0.00000481,0.00000413,-0.00000459,-0.00001617,0.00000925
 ,-0.00000445,-0.00001023,0.00001515,0.00003355,0.00003712,-0.00000535,
 -0.00000974,-0.00000998,0.00000688,-0.00000039,-0.00000285,0.00000084,
 -0.00002220,0.00001960,-0.00000966,0.00001759,-0.00000636,0.00000200,0
 .00000136,-0.00000452,0.00000379,0.00000749,0.00000731,0.00000409,0.00
 000013,-0.00000250,-0.00000189,-0.00000069,0.00000039,0.00000032,0.000
 00661,0.00000369,0.00000111,0.00000079,-0.00000049,-0.00000165,-0.0000
 0250,0.00000042,0.00000079,-0.00000080,-0.00000081,0.00000299,0.000001
 94,0.00000002,-0.00000385,0.00000053,-0.00000090,0.00000078,-0.0000014
 0,0.00000075,-0.00000040,-0.00000055,-0.00000143,-0.00000001,-0.000000
 47,-0.00000044,0.00000008,0.00000044,0.00000025,0.00000017,-0.00000066
 ,-0.00000002,-0.00000054,-0.00000273,0.00000209,-0.00000139,0.00000009
 ,-0.00000156,-0.00000003,0.00000073,-0.00000107,-0.00000079,0.00000111
 ,-0.00000048,0.00000105,0.00000037,-0.00000077,0.00000054,-0.00000044,
 0.00000067,-0.00000022,-0.00000076,0.00000052,-0.00000041,-0.00000590,
 0.00000699,-0.00001460,-0.00000028,0.00000104,0.00000436,0.00000058,0.
 00000375,0.00000815,0.00000360,-0.00000434,0.00000336,-0.00000182,0.00
 000064,-0.00000032,-0.00000236,-0.00000042,-0.00000222,0.00000211,-0.0
 0000129,0.00000074,0.00000213,-0.00000167,-0.00000799,-0.00000113,-0.0
 0000096,-0.00000031,0.00000070,0.00000280,0.00000315,0.00000079,0.0000
 0073,-0.00000113,0.00130368,0.00337091,0.00114843,-0.00561160,0.009015
 16,0.00961345,-0.00035761,0.00075159,-0.00065720,0.07885640,-0.1044128
 4,-0.14466287,-0.00127677,-0.00101215,0.00004555,0.00318979,0.00289543
 ,-0.00359551,-0.00032926,-0.00021769,-0.00008785,0.01317248,-0.0211140
 8,-0.01108385,-0.08768704,0.11175382,0.14895221,0.00000591,-0.00005804
 ,0.00002183,0.00030089,0.00033208,-0.00018362,0.00004612,-0.00014452,0
 .00002531,-0.00005125,0.00020909,-0.00009258,0.00002924,0.00005049,-0.
 00006804,0.00005005,-0.00001255,0.00004776,-0.00007808,-0.00001140,0.0
 0000541,0.00000242,0.00001128,0.00000566,0.00000587,-0.00001089,-0.000
 01455,-0.00000180,-0.00000082,0.00000020,-0.00002228,-0.00000632,-0.00
 001996,-0.00000081,-0.00003041,0.00001472,0.00001555,0.00002363,-0.000
 05537,0.00002870,-0.00002284,0.00002480,-0.00000570,0.00000454,0.00000
 185,-0.00001032,-0.00000184,-0.00002409,0.00000992,-0.00000720,0.00000
 019,0.00000056,-0.00000013,0.00000259,0.00000375,-0.00002954,0.0000271
 2,-0.00000043,0.00000630,-0.00000168,0.00000026,-0.00000083,-0.0000022
 0,0.00001362,-0.00000396,0.00001483,-0.00000742,-0.00000391,-0.0000065
 5,0.00000040,0.00000408,-0.00000104,0.,-0.00000275,0.00000353,-0.00000
 373,-0.00000086,-0.00000514,0.00000042,-0.00000149,-0.00000115,-0.0000
 0328,0.00000717,-0.00000374,0.00000136,-0.00000311,0.00000033,-0.00000
 076,0.00000014,0.00000023,0.00000001,0.00000024,-0.00000068,-0.0000026
 7,-0.00000045,0.00000072,-0.00000297,0.00000443,-0.00000259,0.00000138
 ,-0.00000200,0.00000090,0.00000095,-0.00000017,-0.00000116,0.00000137,
 0.00000216,0.00000041,0.00000014,-0.00000138,0.00000125,-0.00000050,0.
 00000180,0.00000056,-0.00000007,0.00000033,-0.00000161,0.00000880,0.00
 000641,0.00001079,0.00000190,0.00000982,0.00001400,-0.00000318,0.00000
 442,-0.00001334,-0.00000331,-0.00000406,0.00000005,-0.00000492,0.00000
 456,0.00000224,-0.00000144,-0.00000608,-0.00001771,-0.00000020,-0.0000
 1009,0.00000002,0.00000997,-0.00001240,0.00000733,-0.00000019,-0.00000
 451,-0.00000452,0.00000378,0.00000484,-0.00000381,-0.00000231,-0.00000
 277,-0.00000944,0.00556153,0.00270563,0.00147116,-0.00075138,0.0001793
 7,-0.00034464,0.00472719,0.00193408,-0.00595030,0.00447649,0.00406211,
 0.00302145,-0.00084250,-0.00036313,-0.00031935,-0.06264811,-0.01159438
 ,0.07869967,-0.00316269,-0.00134292,-0.00118136,-0.00017638,-0.0040318
 9,0.01341511,-0.00010795,-0.00019341,0.00061916,0.05540606,-0.00001677
 ,0.00007172,0.00003309,-0.00050201,0.00036971,0.00095890,-0.00007367,-
 0.00017145,0.00003129,0.00014550,-0.00013964,0.00015577,0.00005328,-0.
 00002161,-0.00004427,-0.00003999,-0.00008850,-0.00000382,-0.00003001,-
 0.00001663,0.00002608,0.00001059,-0.00000352,0.00002239,-0.00000664,-0
 .00001634,0.00002866,0.00000029,-0.00000098,0.00000713,-0.00001336,0.0
 0000424,-0.00001980,0.00001463,0.00000712,-0.00001583,-0.00001476,0.00
 003420,0.00000389,-0.00001138,-0.00000342,0.00000198,0.00001476,-0.000
 00524,-0.00000658,-0.00000081,0.00003037,0.00001532,0.00001956,-0.0000
 1035,-0.00000331,-0.00001027,-0.00001469,-0.00000606,0.00001275,-0.000
 03896,0.00003489,-0.00000030,0.00000890,-0.00000673,-0.00000113,-0.000
 00568,-0.00000610,0.00000459,0.00000493,0.00002202,-0.00000848,-0.0000
 0139,-0.00000549,0.00000151,0.00000139,-0.00000023,0.00000362,-0.00000
 306,0.00000178,0.00000641,0.00001274,-0.00001473,-0.00000009,-0.000004
 52,0.00000306,-0.00000261,0.00000933,-0.00000118,-0.00000065,-0.000006
 53,-0.00000119,-0.00000122,-0.00000278,-0.00000069,0.00000272,0.000001
 94,-0.00000273,-0.00000242,0.00000061,0.00000025,-0.00000981,0.0000037
 1,-0.00001431,0.00000002,-0.00000041,0.00000254,0.00000138,-0.00000464
 ,-0.00000177,-0.00000076,0.00001051,-0.00000200,0.00000227,-0.00000078
 ,-0.00000034,0.00000382,-0.00000082,-0.00000192,-0.00000167,0.00000051
 ,-0.00000065,-0.00000041,-0.00002884,0.00005691,-0.00000240,0.00000742
 ,-0.00001798,-0.00001708,-0.00000793,0.00000558,-0.00000026,0.00000315
 ,-0.00000984,0.00001095,-0.00000226,-0.00000440,-0.00000266,0.00000294
 ,0.00000935,-0.00000527,0.00000466,-0.00000069,0.00000062,-0.00001343,
 0.00001034,0.00000137,-0.00000778,-0.00002015,-0.00000069,-0.00001111,
 -0.00002830,0.00000244,-0.00001005,-0.00001864,0.00306556,-0.00386710,
 0.00219568,0.00026691,-0.00127054,-0.00034342,-0.00839047,-0.00233095,
 0.02705297,0.00385725,-0.00173143,-0.00187443,-0.00035747,-0.00001229,
 -0.00008707,-0.01115967,-0.06903679,0.05848987,-0.00131225,0.00083874,
 -0.00094882,0.00602902,0.00891592,-0.02059396,0.00034256,0.00025702,-0
 .00098261,0.00976967,0.06779675,0.00000902,-0.00002230,-0.00003078,0.0
 0032423,-0.00029836,-0.00020915,0.00008718,0.00003148,0.00000044,-0.00
 014443,0.00014357,-0.00008687,-0.00002139,0.00004302,-0.00002625,0.000
 04895,0.00003996,0.00001130,-0.00002331,0.00000583,-0.00000843,-0.0000
 0679,0.00001075,-0.00001682,0.00000908,0.00000373,-0.00002732,-0.00000
 131,0.00000265,-0.00000728,0.00000755,-0.00000014,0.00000527,-0.000031
 36,-0.00001866,0.00002064,0.00001661,0.00000452,-0.00005141,0.00006723
 ,-0.00000954,0.00002025,-0.00001777,0.00002298,-0.00000304,-0.00000401
 ,-0.00003297,-0.00002278,-0.00002784,-0.00000927,-0.00001226,0.0000072
 4,0.00001687,0.00000296,-0.00001695,0.00001796,-0.00002861,0.00000161,
 -0.00000351,0.00000406,0.00000092,0.00000395,0.00000527,-0.00000619,-0
 .00001054,-0.00001502,0.00000515,-0.00000017,0.00000454,0.00000190,0.0
 0000218,-0.00000025,-0.00000343,0.00000160,-0.00000197,-0.00000791,-0.
 00002419,0.00001276,0.00000105,0.00000711,-0.00000260,0.00000159,-0.00
 001088,0.00000203,0.00000081,0.00000582,0.00000173,0.00000214,0.000004
 71,0.00000021,-0.00000213,-0.00000312,0.00000249,0.00000247,-0.0000019
 4,-0.00000035,0.00001877,-0.00001914,0.00001225,-0.00000041,0.00000490
 ,-0.00000228,-0.00000218,0.00000437,0.00000146,-0.00000126,-0.00000770
 ,0.00000161,-0.00000442,0.00000198,-0.00000044,-0.00000387,0.00000027,
 0.00000348,0.00000216,-0.00000265,-0.00000046,0.00003803,0.00002804,-0
 .00001453,-0.00000068,0.00001088,0.00001767,-0.00000430,0.00000563,-0.
 00002603,-0.00001334,0.00000244,0.00000055,-0.00001056,0.00000376,0.00
 000742,0.00000388,-0.00000022,-0.00002009,-0.00000268,-0.00001069,-0.0
 0000336,0.00000538,-0.00000580,-0.00001383,0.00000071,0.00001103,0.000
 01655,0.00000059,0.00000433,0.00001805,-0.00000598,0.00000995,0.000012
 11,0.00106297,0.00237584,0.00224868,-0.00028345,-0.00043457,0.00035937
 ,0.00368076,0.00045293,-0.00686953,0.00326123,-0.00224560,0.00062049,-
 0.00031202,-0.00006640,-0.00022063,0.07876368,0.05866246,-0.29501678,-
 0.00146727,-0.00056206,0.00012383,0.00372269,0.00612582,-0.01173191,0.
 00017580,0.00034139,-0.00065165,-0.08742729,-0.06424515,0.31135193,0.0
 0000357,-0.00003683,0.00000634,-0.00079306,-0.00030535,-0.00033661,0.0
 0001141,0.00013415,-0.00010540,0.00003697,-0.00009920,0.00006349,-0.00
 005010,0.00000119,0.00002734,-0.00006280,0.00005507,-0.00003655,0.0000
 5003,0.00001730,0.00001555,-0.00000409,-0.00000477,-0.00001384,0.00000
 383,-0.00001412,0.00000042,0.00000205,-0.00000149,-0.00000265,-0.00001
 117,0.00000787,-0.00001500,-0.00001478,0.00000196,-0.00000826,0.000009
 34,-0.00001970,0.00002539,0.00001904,-0.00000901,0.00000245,-0.0000044
 9,0.00000220,-0.00000280,0.00000948,-0.00000188,0.00000806,0.00000090,
 -0.00000254,0.00000306,0.00000066,-0.00000635,0.00000056,-0.00000031,-
 0.00000923,0.00000326,0.00000027,0.00000313,-0.00000125,-0.00000075,0.
 00000233,-0.00000142,0.00000043,-0.00000298,-0.00000108,-0.00000030,-0
 .00000267,-0.00000240,0.00000079,0.00000285,-0.00000014,-0.00000018,-0
 .00000133,0.00000301,0.00000077,-0.00000430,-0.00000736,0.00000217,0.0
 0000164,0.00000371,0.00000051,-0.00000334,0.00000256,-0.00000026,-0.00
 000062,-0.00000008,0.00000076,0.00000147,-0.00000061,0.00000022,-0.000
 00078,-0.00000056,0.00000092,-0.00000058,-0.00000074,0.00000046,-0.000
 00416,-0.00000633,0.00000007,0.00000328,0.00000166,0.00000101,0.000000
 41,-0.00000088,-0.00000429,0.00000129,0.00000494,-0.00000178,0.0000006
 1,-0.00000048,-0.00000165,-0.00000024,0.00000116,-0.00000058,-0.000001
 33,-0.00000117,0.00001742,0.00000072,0.00000684,-0.00000295,0.00000563
 ,0.00000211,0.00000563,-0.00000397,-0.00001796,-0.00000835,0.00000443,
 -0.00000403,-0.00000176,0.00000029,0.00000181,0.00000423,-0.00000285,-
 0.00000306,-0.00000345,-0.00000240,-0.00000105,0.00000549,0.00000999,-
 0.00001516,-0.00000156,0.00000257,0.00000363,0.00000055,-0.00000324,-0
 .00000329,-0.00000165,0.00000246,0.00000032,-0.00092289,-0.00018107,0.
 00019487,0.00532054,0.00132723,0.00380429,0.00460985,0.00338737,0.0040
 0217,0.00513418,-0.00856868,0.00341792,0.00015066,-0.00037201,0.000203
 44,0.00120347,0.01305424,-0.00615537,-0.00006303,0.00059776,-0.0002775
 2,-0.05025827,0.05021896,-0.01165238,-0.00290619,-0.00103007,-0.001702
 32,-0.00281799,-0.00164660,-0.00147682,0.04133100,0.00000158,-0.000052
 41,0.00004478,-0.00034588,0.00005899,-0.00007672,-0.00003341,0.0000037
 6,-0.00007136,0.00007187,-0.00006169,0.00001741,-0.00001471,-0.0000100
 2,0.00002100,-0.00003010,0.00000401,-0.00000523,0.00001582,0.00000072,
 0.00001340,0.00000510,-0.00000519,0.00000461,-0.00000551,-0.00001020,0
 .00001091,0.00000104,-0.00000524,0.00000396,-0.00002602,-0.00001099,-0
 .00000955,0.00002336,-0.00000206,-0.00001012,0.00000990,0.00002243,0.0
 0000473,-0.00005208,-0.00001077,-0.00002000,0.00000845,-0.00002495,0.0
 0001002,0.00001009,0.00001479,-0.00000066,0.00003100,0.00001192,0.0000
 0908,-0.00000527,-0.00001491,0.00000353,0.00002263,-0.00000872,0.00003
 100,-0.00000144,0.00000032,-0.00000645,-0.00000114,-0.00000245,-0.0000
 0396,0.00001439,0.00000667,0.00001075,-0.00000498,-0.00000120,-0.00000
 660,-0.00000489,-0.00000062,0.00000084,0.00000102,-0.00000203,0.000005
 79,0.00000394,0.00002455,-0.00000744,-0.00000126,-0.00000809,0.0000003
 5,-0.00000224,0.00001251,-0.00000488,0.00000024,-0.00000452,-0.0000010
 7,-0.00000289,-0.00000406,0.00000062,0.00000154,0.00000277,-0.00000086
 ,-0.00000385,0.00000152,0.00000006,-0.00002254,0.00002937,-0.00001298,
 0.00000125,-0.00000824,0.00000340,0.00000248,-0.00000377,-0.00000121,0
 .00000142,0.00000371,0.00000147,0.00000470,-0.00000363,0.00000165,0.00
 000184,0.00000192,-0.00000251,-0.00000192,0.00000344,-0.00000103,-0.00
 004566,-0.00000797,-0.00001314,-0.00000147,-0.00000182,0.00000005,0.00
 000035,0.00000818,0.00003365,0.00001531,-0.00001059,0.00000621,0.00000
 424,0.00000068,-0.00000494,-0.00000796,-0.00000145,0.00000239,0.000006
 76,0.00000169,0.00000350,0.00000045,0.00000058,0.00001330,-0.00000161,
 -0.00001213,-0.00001414,0.00000093,0.00000266,-0.00001172,0.00000442,-
 0.00000864,-0.00001211,-0.00015310,0.00021186,-0.00063557,0.00112406,0
 .00217784,0.00169072,0.00358978,-0.00034073,-0.00239764,0.00199255,-0.
 00257921,0.00035358,0.00013135,-0.00023239,-0.00005743,0.00251507,-0.0
 1461579,0.00988372,0.00011920,-0.00070010,0.00049265,0.05021254,-0.284
 97069,0.09446836,-0.00126038,0.00007208,-0.00038551,-0.00141562,0.0004
 9391,-0.00036915,-0.05650474,0.30056440,0.00000291,-0.00001534,0.00000
 866,-0.00039346,-0.00008245,-0.00004817,0.00005768,0.00006522,-0.00004
 470,-0.00001791,-0.00004486,0.00006082,-0.00003502,-0.00000787,0.00000
 318,-0.00002066,0.00000883,0.00000470,0.00001664,0.00000607,0.00001218
 ,-0.00000409,-0.00000300,-0.00001130,0.00000431,-0.00000848,-0.0000039
 2,-0.00000047,0.00000135,-0.00000245,-0.00000159,0.00000694,-0.0000022
 6,-0.00000647,0.00000257,-0.00000320,0.00002297,0.00000385,-0.00000168
 ,-0.00000313,-0.00001028,-0.00000566,-0.00000554,-0.00000503,0.0000054
 6,-0.00000366,-0.00001151,-0.00000460,-0.00001402,-0.00000897,-0.00001
 697,0.00000050,0.00000353,0.00000204,-0.00000511,0.00000294,-0.0000024
 9,0.00000070,-0.00000077,0.00000039,0.00000059,0.00000041,0.00000198,0
 .00000374,0.00000036,0.00000011,-0.00000052,-0.00000060,0.00000016,0.0
 0000008,0.00000155,-0.00000015,-0.00000166,0.00000010,-0.00000030,-0.0
 0000728,-0.00000576,0.00000953,-0.00000066,0.00000161,-0.00000250,-0.0
 0000016,-0.00000015,-0.00000254,0.00000127,0.00000269,0.00000040,0.000
 00024,0.00000151,0.00000058,-0.00000101,-0.00000115,0.00000099,-0.0000
 0041,-0.00000072,0.00000031,0.00000226,0.00000327,0.00000059,-0.000000
 64,-0.00000038,0.00000082,-0.00000008,0.00000023,0.00000085,-0.0000001
 2,-0.00000329,0.00000124,-0.00000002,0.00000014,0.00000010,-0.00000112
 ,0.00000028,0.00000031,0.00000030,-0.00000031,-0.00000033,-0.00000777,
 0.00000321,-0.00002234,-0.00000183,-0.00000287,0.00000501,-0.00000288,
 0.00000228,0.00001610,0.00000567,-0.00000504,0.00000683,0.00000018,-0.
 00000040,-0.00000033,0.00000045,0.00000020,0.00000028,0.00000228,0.000
 00177,-0.00000005,0.00000007,0.00000082,0.00000383,0.00000007,0.000001
 71,0.00000311,0.00000007,0.00000465,0.00000432,-0.00000123,0.00000289,
 0.00000320,0.00028027,-0.00061008,-0.00106558,0.00391815,0.00126443,-0
 .00379249,0.00370861,-0.00194747,-0.00044714,-0.00599221,0.02705613,-0
 .00560681,-0.00024793,0.00126240,-0.00039943,0.00335759,-0.01685448,0.
 01015144,0.00020291,-0.00078282,0.00028366,-0.01164080,0.09451238,-0.0
 9243455,-0.00151156,-0.00097419,0.00077622,-0.00170369,0.00016546,0.00
 023332,0.01004421,-0.10300351,0.09231925\\-0.00000559,-0.00000327,0.00
 000095,0.00000614,0.00000557,-0.00001789,0.00000452,-0.00000620,0.0000
 1107,-0.00000119,-0.00000134,0.00000602,-0.00000110,0.00000132,-0.0000
 0280,-0.00000395,0.00000046,-0.00000055,-0.00000448,-0.00000097,0.0000
 0200,-0.00000140,-0.00000215,-0.00000075,-0.00000325,0.00000349,-0.000
 00151,-0.00000390,0.00000099,-0.00000033,0.00000143,0.00000196,0.00000
 273,0.00000499,-0.00000641,0.00000497,-0.00000244,-0.00000446,-0.00000
 014,0.00000474,-0.00000052,-0.00000102,0.00000386,-0.00000470,-0.00000
 008,0.00000261,0.00000744,-0.00000238,-0.00000069,0.00000588,0.0000000
 3,-0.00000154,0.00000498,-0.00000195,-0.00000407,0.00000372,-0.0000046
 8,0.00000248,0.00000629,0.00000226,0.00000048,0.00000045,-0.00000391,0
 .00000267,0.00000261,0.00000104,0.00000127,0.00000494,-0.00000437,-0.0
 0000179,0.00000546,-0.00000232,-0.00000072,0.00000671,-0.00000214,-0.0
 0000919,0.00000222,-0.00000293,-0.00000014,0.00000243,-0.00000270,-0.0
 0000359,0.00000067,0.00000149,0.00000012,0.00000195,-0.00000153,-0.000
 00742,0.00000497,-0.00000197,-0.00000316,0.00000637,-0.00000085,-0.000
 00552,0.00000755,-0.00000107,-0.00000100,0.00000359,-0.00000132,-0.000
 00641,-0.00000571,0.00000086,-0.00000534,-0.00000575,0.00000053,-0.000
 00418,-0.00000524,0.00000295,-0.00000402,-0.00000760,0.00000208,-0.000
 00047,-0.00000640,0.00000245,-0.00000076,-0.00000447,0.00000218,0.0000
 0410,-0.00000096,-0.00000190,-0.00000352,-0.00000902,0.00000712,0.0000
 0126,-0.00000242,0.00000070,0.00000029,-0.00000555,0.00000221,0.000001
 90,-0.00000564,0.00000023,0.00000272,-0.00000410,0.00000359,0.00000252
 ,-0.00000783,0.00000323,-0.00000087,0.00000538,-0.00000382,-0.00000632
 ,-0.00000070,0.00000299,-0.00000125,-0.00000089,-0.00000026,-0.0000024
 2,-0.00000364,0.00000165,-0.00000433,0.00000052,0.00001064,0.00000522,
 -0.00000257,-0.00000298,0.00000747,-0.00000333,0.00000034,0.00000570,0
 .00000326,-0.00000243,0.00000306,0.00000237,-0.00000108,0.00000720,-0.
 00000087,-0.00000326,0.00000157,0.00000195,-0.00000109,0.00000525,0.00
 000473,0.00000089,0.00000678,0.00000183,-0.00000110,0.00000678,-0.0000
 0014,0.00000051,0.00000888,0.00000080,-0.00000060\\\@
 The archive entry for this job was punched.


 REVOLUTIONS HAVE NEVER LIGHTENED THE BURDEN OF TYRANNY:
 THEY HAVE MERELY SHIFTED IT TO OTHER SHOULDERS.
                                   -- G. B. SHAW (1903)
 Job cpu time:       2 days 16 hours 25 minutes 42.0 seconds.
 Elapsed time:       0 days  5 hours 22 minutes 30.2 seconds.
 File lengths (MBytes):  RWF=   3347 Int=      0 D2E=      0 Chk=     74 Scr=      1
 Normal termination of Gaussian 16 at Sun May 22 02:37:23 2022.
