 Entering Gaussian System, Link 0=g16
 Input=PhMe.com
 Output=PhMe.log
 Initial command:
 /usr/local/g16/l1.exe "/hdd/Gau-960511.inp" -scrdir="/hdd/"
 Entering Link 1 = /usr/local/g16/l1.exe PID=    960513.
  
 Copyright (c) 1988-2019, Gaussian, Inc.  All Rights Reserved.
  
 This is part of the Gaussian(R) 16 program.  It is based on
 the Gaussian(R) 09 system (copyright 2009, Gaussian, Inc.),
 the Gaussian(R) 03 system (copyright 2003, Gaussian, Inc.),
 the Gaussian(R) 98 system (copyright 1998, Gaussian, Inc.),
 the Gaussian(R) 94 system (copyright 1995, Gaussian, Inc.),
 the Gaussian 92(TM) system (copyright 1992, Gaussian, Inc.),
 the Gaussian 90(TM) system (copyright 1990, Gaussian, Inc.),
 the Gaussian 88(TM) system (copyright 1988, Gaussian, Inc.),
 the Gaussian 86(TM) system (copyright 1986, Carnegie Mellon
 University), and the Gaussian 82(TM) system (copyright 1983,
 Carnegie Mellon University). Gaussian is a federally registered
 trademark of Gaussian, Inc.
  
 This software contains proprietary and confidential information,
 including trade secrets, belonging to Gaussian, Inc.
  
 This software is provided under written license and may be
 used, copied, transmitted, or stored only in accord with that
 written license.
  
 The following legend is applicable only to US Government
 contracts under FAR:
  
                    RESTRICTED RIGHTS LEGEND
  
 Use, reproduction and disclosure by the US Government is
 subject to restrictions as set forth in subparagraphs (a)
 and (c) of the Commercial Computer Software - Restricted
 Rights clause in FAR 52.227-19.
  
 Gaussian, Inc.
 340 Quinnipiac St., Bldg. 40, Wallingford CT 06492
  
  
 ---------------------------------------------------------------
 Warning -- This program may not be used in any manner that
 competes with the business of Gaussian, Inc. or will provide
 assistance to any competitor of Gaussian, Inc.  The licensee
 of this program is prohibited from giving any competitor of
 Gaussian, Inc. access to this program.  By using this program,
 the user acknowledges that Gaussian, Inc. is engaged in the
 business of creating and licensing software in the field of
 computational chemistry and represents and warrants to the
 licensee that it is not a competitor of Gaussian, Inc. and that
 it will not use this program in any manner prohibited above.
 ---------------------------------------------------------------
  

 Cite this work as:
 Gaussian 16, Revision C.01,
 M. J. Frisch, G. W. Trucks, H. B. Schlegel, G. E. Scuseria, 
 M. A. Robb, J. R. Cheeseman, G. Scalmani, V. Barone, 
 G. A. Petersson, H. Nakatsuji, X. Li, M. Caricato, A. V. Marenich, 
 J. Bloino, B. G. Janesko, R. Gomperts, B. Mennucci, H. P. Hratchian, 
 J. V. Ortiz, A. F. Izmaylov, J. L. Sonnenberg, D. Williams-Young, 
 F. Ding, F. Lipparini, F. Egidi, J. Goings, B. Peng, A. Petrone, 
 T. Henderson, D. Ranasinghe, V. G. Zakrzewski, J. Gao, N. Rega, 
 G. Zheng, W. Liang, M. Hada, M. Ehara, K. Toyota, R. Fukuda, 
 J. Hasegawa, M. Ishida, T. Nakajima, Y. Honda, O. Kitao, H. Nakai, 
 T. Vreven, K. Throssell, J. A. Montgomery, Jr., J. E. Peralta, 
 F. Ogliaro, M. J. Bearpark, J. J. Heyd, E. N. Brothers, K. N. Kudin, 
 V. N. Staroverov, T. A. Keith, R. Kobayashi, J. Normand, 
 K. Raghavachari, A. P. Rendell, J. C. Burant, S. S. Iyengar, 
 J. Tomasi, M. Cossi, J. M. Millam, M. Klene, C. Adamo, R. Cammi, 
 J. W. Ochterski, R. L. Martin, K. Morokuma, O. Farkas, 
 J. B. Foresman, and D. J. Fox, Gaussian, Inc., Wallingford CT, 2019.
 
 ******************************************
 Gaussian 16:  ES64L-G16RevC.01  3-Jul-2019
                24-May-2022 
 ******************************************
 %nprocshared=12
 Will use up to   12 processors via shared memory.
 %mem=32MW
 %chk=PhMe.chk
 ----------------------------------------------------------------------
 # opt freq 6-311G(2d,p) scrf=(iefpcm,solvent=thf) m06 EmpiricalDispers
 ion=GD3
 ----------------------------------------------------------------------
 1/18=20,19=15,26=3,38=1/1,3;
 2/9=110,12=2,17=6,18=5,40=1/2;
 3/5=4,6=6,7=102,11=2,25=1,30=1,70=2201,71=1,72=20,74=-54,124=31/1,2,3;
 4//1;
 5/5=2,38=5,53=20/2;
 6/7=2,8=2,9=2,10=2,28=1/1;
 7//1,2,3,16;
 1/18=20,19=15,26=3/3(2);
 2/9=110/2;
 99//99;
 2/9=110/2;
 3/5=4,6=6,7=102,11=2,25=1,30=1,70=2205,71=1,72=20,74=-54,124=31/1,2,3;
 4/5=5,16=3,69=1/1;
 5/5=2,38=5,53=20/2;
 7//1,2,3,16;
 1/18=20,19=15,26=3/3(-5);
 2/9=110/2;
 6/7=2,8=2,9=2,10=2,19=2,28=1/1;
 99/9=1/99;
 -------------------------------
 M06 PhMe; 6-311g(d,p) basis set
 -------------------------------
 Symbolic Z-matrix:
 Charge =  0 Multiplicity = 1
 C                    -0.91725   0.00361  -0.0084 
 C                    -0.19585   1.20983  -0.0069 
 C                     1.20663   1.20978   0.00159 
 C                     1.91031  -0.00271   0.00637 
 C                     1.20063  -1.21308   0.00158 
 C                    -0.2003   -1.20704  -0.00677 
 H                    -0.73837   2.15336  -0.01397 
 H                     1.74767   2.15196   0.00141 
 H                     2.99641  -0.00535   0.01073 
 H                     1.73807  -2.15735   0.00104 
 H                    -0.74782  -2.14797  -0.01404 
 C                    -2.4255    0.00131   0.00705 
 H                    -2.82984   0.96582  -0.31811 
 H                    -2.82998  -0.77628  -0.65096 
 H                    -2.80813  -0.19437   1.01681 
 

 GradGradGradGradGradGradGradGradGradGradGradGradGradGradGradGradGradGrad
 Berny optimization.
 Initialization pass.
                           ----------------------------
                           !    Initial Parameters    !
                           ! (Angstroms and Degrees)  !
 --------------------------                            --------------------------
 ! Name  Definition              Value          Derivative Info.                !
 --------------------------------------------------------------------------------
 ! R1    R(1,2)                  1.4055         estimate D2E/DX2                !
 ! R2    R(1,6)                  1.407          estimate D2E/DX2                !
 ! R3    R(1,12)                 1.5083         estimate D2E/DX2                !
 ! R4    R(2,3)                  1.4025         estimate D2E/DX2                !
 ! R5    R(2,7)                  1.0884         estimate D2E/DX2                !
 ! R6    R(3,4)                  1.4019         estimate D2E/DX2                !
 ! R7    R(3,8)                  1.0865         estimate D2E/DX2                !
 ! R8    R(4,5)                  1.4031         estimate D2E/DX2                !
 ! R9    R(4,9)                  1.0861         estimate D2E/DX2                !
 ! R10   R(5,6)                  1.401          estimate D2E/DX2                !
 ! R11   R(5,10)                 1.0865         estimate D2E/DX2                !
 ! R12   R(6,11)                 1.0887         estimate D2E/DX2                !
 ! R13   R(12,13)                1.0952         estimate D2E/DX2                !
 ! R14   R(12,14)                1.096          estimate D2E/DX2                !
 ! R15   R(12,15)                1.0974         estimate D2E/DX2                !
 ! A1    A(2,1,6)              118.4835         estimate D2E/DX2                !
 ! A2    A(2,1,12)             120.967          estimate D2E/DX2                !
 ! A3    A(6,1,12)             120.5442         estimate D2E/DX2                !
 ! A4    A(1,2,3)              120.88           estimate D2E/DX2                !
 ! A5    A(1,2,7)              119.2183         estimate D2E/DX2                !
 ! A6    A(3,2,7)              119.9017         estimate D2E/DX2                !
 ! A7    A(2,3,4)              120.132          estimate D2E/DX2                !
 ! A8    A(2,3,8)              119.8636         estimate D2E/DX2                !
 ! A9    A(4,3,8)              120.0041         estimate D2E/DX2                !
 ! A10   A(3,4,5)              119.4848         estimate D2E/DX2                !
 ! A11   A(3,4,9)              120.2695         estimate D2E/DX2                !
 ! A12   A(5,4,9)              120.2454         estimate D2E/DX2                !
 ! A13   A(4,5,6)              120.1382         estimate D2E/DX2                !
 ! A14   A(4,5,10)             119.9687         estimate D2E/DX2                !
 ! A15   A(6,5,10)             119.8928         estimate D2E/DX2                !
 ! A16   A(1,6,5)              120.881          estimate D2E/DX2                !
 ! A17   A(1,6,11)             119.1701         estimate D2E/DX2                !
 ! A18   A(5,6,11)             119.9487         estimate D2E/DX2                !
 ! A19   A(1,12,13)            111.3941         estimate D2E/DX2                !
 ! A20   A(1,12,14)            111.3435         estimate D2E/DX2                !
 ! A21   A(1,12,15)            110.9986         estimate D2E/DX2                !
 ! A22   A(13,12,14)           108.0782         estimate D2E/DX2                !
 ! A23   A(13,12,15)           107.5468         estimate D2E/DX2                !
 ! A24   A(14,12,15)           107.2919         estimate D2E/DX2                !
 ! D1    D(6,1,2,3)             -0.2581         estimate D2E/DX2                !
 ! D2    D(6,1,2,7)            179.6483         estimate D2E/DX2                !
 ! D3    D(12,1,2,3)           178.9115         estimate D2E/DX2                !
 ! D4    D(12,1,2,7)            -1.1821         estimate D2E/DX2                !
 ! D5    D(2,1,6,5)              0.2521         estimate D2E/DX2                !
 ! D6    D(2,1,6,11)          -179.6308         estimate D2E/DX2                !
 ! D7    D(12,1,6,5)          -178.9211         estimate D2E/DX2                !
 ! D8    D(12,1,6,11)            1.196          estimate D2E/DX2                !
 ! D9    D(2,1,12,13)           19.2618         estimate D2E/DX2                !
 ! D10   D(2,1,12,14)          139.9863         estimate D2E/DX2                !
 ! D11   D(2,1,12,15)         -100.5537         estimate D2E/DX2                !
 ! D12   D(6,1,12,13)         -161.5857         estimate D2E/DX2                !
 ! D13   D(6,1,12,14)          -40.8613         estimate D2E/DX2                !
 ! D14   D(6,1,12,15)           78.5988         estimate D2E/DX2                !
 ! D15   D(1,2,3,4)              0.1107         estimate D2E/DX2                !
 ! D16   D(1,2,3,8)            179.9259         estimate D2E/DX2                !
 ! D17   D(7,2,3,4)           -179.7951         estimate D2E/DX2                !
 ! D18   D(7,2,3,8)              0.0202         estimate D2E/DX2                !
 ! D19   D(2,3,4,5)              0.0482         estimate D2E/DX2                !
 ! D20   D(2,3,4,9)            179.8647         estimate D2E/DX2                !
 ! D21   D(8,3,4,5)           -179.7667         estimate D2E/DX2                !
 ! D22   D(8,3,4,9)              0.0498         estimate D2E/DX2                !
 ! D23   D(3,4,5,6)             -0.0541         estimate D2E/DX2                !
 ! D24   D(3,4,5,10)           179.745          estimate D2E/DX2                !
 ! D25   D(9,4,5,6)           -179.8707         estimate D2E/DX2                !
 ! D26   D(9,4,5,10)            -0.0716         estimate D2E/DX2                !
 ! D27   D(4,5,6,1)             -0.0986         estimate D2E/DX2                !
 ! D28   D(4,5,6,11)           179.7834         estimate D2E/DX2                !
 ! D29   D(10,5,6,1)          -179.8979         estimate D2E/DX2                !
 ! D30   D(10,5,6,11)           -0.0159         estimate D2E/DX2                !
 --------------------------------------------------------------------------------
 Trust Radius=3.00D-01 FncErr=1.00D-07 GrdErr=1.00D-06 EigMax=2.50D+02 EigMin=1.00D-04
 Number of steps in this run=     79 maximum allowed number of steps=    100.
 GradGradGradGradGradGradGradGradGradGradGradGradGradGradGradGradGradGrad

                          Input orientation:                          
 ---------------------------------------------------------------------
 Center     Atomic      Atomic             Coordinates (Angstroms)
 Number     Number       Type             X           Y           Z
 ---------------------------------------------------------------------
      1          6           0       -0.917247    0.003606   -0.008403
      2          6           0       -0.195849    1.209826   -0.006897
      3          6           0        1.206627    1.209777    0.001585
      4          6           0        1.910311   -0.002706    0.006370
      5          6           0        1.200628   -1.213075    0.001578
      6          6           0       -0.200301   -1.207035   -0.006770
      7          1           0       -0.738370    2.153361   -0.013965
      8          1           0        1.747666    2.151955    0.001407
      9          1           0        2.996414   -0.005353    0.010725
     10          1           0        1.738065   -2.157347    0.001043
     11          1           0       -0.747818   -2.147973   -0.014037
     12          6           0       -2.425504    0.001306    0.007051
     13          1           0       -2.829842    0.965818   -0.318107
     14          1           0       -2.829979   -0.776277   -0.650957
     15          1           0       -2.808133   -0.194374    1.016811
 ---------------------------------------------------------------------
                    Distance matrix (angstroms):
                    1          2          3          4          5
     1  C    0.000000
     2  C    1.405484   0.000000
     3  C    2.442496   1.402502   0.000000
     4  C    2.827604   2.430292   1.401895   0.000000
     5  C    2.442500   2.796546   2.422859   1.403092   0.000000
     6  C    1.407006   2.416865   2.796515   2.430075   1.400967
     7  H    2.157191   1.088410   2.161852   3.415340   3.884951
     8  H    3.423048   2.159844   1.086473   2.160797   3.409205
     9  H    3.913718   3.415774   2.163322   1.086115   2.164145
    10  H    3.423520   3.883032   3.408805   2.161521   1.086503
    11  H    2.158247   3.402872   3.885175   3.415880   2.161185
    12  C    1.508338   2.536154   3.827899   4.335817   3.824080
    13  H    2.163282   2.663515   4.056452   4.848956   4.592871
    14  H    2.163247   3.361259   4.545812   4.847767   4.106384
    15  H    2.160025   3.137480   4.372713   4.829228   4.258945
                    6          7          8          9         10
     6  C    0.000000
     7  H    3.403209   0.000000
     8  H    3.882970   2.486084   0.000000
     9  H    3.415162   4.313846   2.492677   0.000000
    10  H    2.158800   4.971434   4.309313   2.492913   0.000000
    11  H    1.088665   4.301344   4.971625   4.314013   2.485946
    12  C    2.532155   2.734630   4.694749   5.421923   4.689896
    13  H    3.425304   2.424256   4.739471   5.915789   5.542724
    14  H    2.741484   3.655594   5.473112   5.914305   4.816584
    15  H    2.978924   3.295190   5.224137   5.894125   5.054994
                   11         12         13         14         15
    11  H    0.000000
    12  C    2.726623   0.000000
    13  H    3.758055   1.095217   0.000000
    14  H    2.573443   1.095997   1.773608   0.000000
    15  H    3.020612   1.097411   1.768763   1.766505   0.000000
 Stoichiometry    C7H8
 Framework group  C1[X(C7H8)]
 Deg. of freedom    39
 Full point group                 C1      NOp   1
 Largest Abelian subgroup         C1      NOp   1
 Largest concise Abelian subgroup C1      NOp   1
                         Standard orientation:                         
 ---------------------------------------------------------------------
 Center     Atomic      Atomic             Coordinates (Angstroms)
 Number     Number       Type             X           Y           Z
 ---------------------------------------------------------------------
      1          6           0       -0.917247    0.003606   -0.008403
      2          6           0       -0.195849    1.209826   -0.006897
      3          6           0        1.206627    1.209777    0.001585
      4          6           0        1.910311   -0.002706    0.006370
      5          6           0        1.200628   -1.213075    0.001578
      6          6           0       -0.200301   -1.207035   -0.006770
      7          1           0       -0.738370    2.153361   -0.013965
      8          1           0        1.747666    2.151955    0.001407
      9          1           0        2.996414   -0.005354    0.010725
     10          1           0        1.738065   -2.157347    0.001043
     11          1           0       -0.747818   -2.147973   -0.014037
     12          6           0       -2.425504    0.001306    0.007051
     13          1           0       -2.829842    0.965818   -0.318107
     14          1           0       -2.829979   -0.776277   -0.650957
     15          1           0       -2.808133   -0.194374    1.016811
 ---------------------------------------------------------------------
 Rotational constants (GHZ):           5.4866920           2.5016861           1.7368406
 Standard basis: 6-311G(2d,p) (5D, 7F)
 There are   223 symmetry adapted cartesian basis functions of A   symmetry.
 There are   209 symmetry adapted basis functions of A   symmetry.
   209 basis functions,   330 primitive gaussians,   223 cartesian basis functions
    25 alpha electrons       25 beta electrons
       nuclear repulsion energy       267.9502210242 Hartrees.
 NAtoms=   15 NActive=   15 NUniq=   15 SFac= 1.00D+00 NAtFMM=   60 NAOKFM=F Big=F
 Integral buffers will be    131072 words long.
 Raffenetti 2 integral format.
 Two-electron integral symmetry is turned on.
 Nuclear repulsion after empirical dispersion term =      267.9490566795 Hartrees.
 ------------------------------------------------------------------------------
 Polarizable Continuum Model (PCM)
 =================================
 Model                : PCM.
 Atomic radii         : UFF (Universal Force Field).
 Polarization charges : Total charges.
 Charge compensation  : None.
 Solution method      : On-the-fly selection.
 Cavity type          : Scaled VdW (van der Waals Surface) (Alpha=1.100).
 Cavity algorithm     : GePol (No added spheres)
                        Default sphere list used, NSphG=   15.
                        Lebedev-Laikov grids with approx.  5.0 points / Ang**2.
                        Smoothing algorithm: York/Karplus (Gamma=1.0000).
                        Polarization charges: spherical gaussians, with
                                              point-specific exponents (IZeta= 3).
                        Self-potential: point-specific (ISelfS= 7).
                        Self-field    : sphere-specific E.n sum rule (ISelfD= 2).
 1st derivatives      : Analytical E(r).r(x)/FMM algorithm (CHGder, D1EAlg=3).
                        Cavity 1st derivative terms included.
 Solvent              : TetraHydroFuran, Eps=   7.425700 Eps(inf)=   1.974025
 ------------------------------------------------------------------------------
 Spheres list:
 ISph  on   Nord     Re0    Alpha      Xe            Ye            Ze
    1   C      1    1.9255  1.100     -0.917247      0.003606     -0.008403
    2   C      2    1.9255  1.100     -0.195849      1.209826     -0.006897
    3   C      3    1.9255  1.100      1.206627      1.209777      0.001585
    4   C      4    1.9255  1.100      1.910311     -0.002706      0.006370
    5   C      5    1.9255  1.100      1.200628     -1.213075      0.001578
    6   C      6    1.9255  1.100     -0.200301     -1.207035     -0.006770
    7   H      7    1.4430  1.100     -0.738370      2.153361     -0.013965
    8   H      8    1.4430  1.100      1.747666      2.151955      0.001407
    9   H      9    1.4430  1.100      2.996414     -0.005354      0.010725
   10   H     10    1.4430  1.100      1.738065     -2.157347      0.001043
   11   H     11    1.4430  1.100     -0.747818     -2.147973     -0.014037
   12   C     12    1.9255  1.100     -2.425504      0.001306      0.007051
   13   H     13    1.4430  1.100     -2.829842      0.965818     -0.318107
   14   H     14    1.4430  1.100     -2.829979     -0.776277     -0.650957
   15   H     15    1.4430  1.100     -2.808133     -0.194374      1.016811
 ------------------------------------------------------------------------------
 One-electron integrals computed using PRISM.
 PrsmSu:  requested number of processors reduced to:   9 ShMem   1 Linda.
 NBasis=   209 RedAO= T EigKep=  6.62D-05  NBF=   209
 NBsUse=   209 1.00D-06 EigRej= -1.00D+00 NBFU=   209
 ExpMin= 1.03D-01 ExpMax= 4.56D+03 ExpMxC= 6.82D+02 IAcc=3 IRadAn=         5 AccDes= 0.00D+00
 Harris functional with IExCor= 1009 and IRadAn=       5 diagonalized for initial guess.
 HarFok:  IExCor= 1009 AccDes= 0.00D+00 IRadAn=         5 IDoV= 1 UseB2=F ITyADJ=14
 ICtDFT=  3500011 ScaDFX=  1.000000  1.000000  1.000000  1.000000
 FoFCou: FMM=F IPFlag=           0 FMFlag=      100000 FMFlg1=           0
         NFxFlg=           0 DoJE=T BraDBF=F KetDBF=T FulRan=T
         wScrn=  0.000000 ICntrl=       500 IOpCl=  0 I1Cent=   200000004 NGrid=           0
         NMat0=    1 NMatS0=      1 NMatT0=    0 NMatD0=    1 NMtDS0=    0 NMtDT0=    0
 Petite list used in FoFCou.
 Requested convergence on RMS density matrix=1.00D-08 within 128 cycles.
 Requested convergence on MAX density matrix=1.00D-06.
 Requested convergence on             energy=1.00D-06.
 No special actions if energy rises.
 Inv3:  Mode=1 IEnd=     4755243.
 Iteration    1 A*A^-1 deviation from unit magnitude is 3.33D-15 for    754.
 Iteration    1 A*A^-1 deviation from orthogonality  is 2.44D-15 for   1144    415.
 Iteration    1 A^-1*A deviation from unit magnitude is 2.89D-15 for     76.
 Iteration    1 A^-1*A deviation from orthogonality  is 2.41D-15 for    781    488.
 Error on total polarization charges =  0.00921
 SCF Done:  E(RM06) =  -271.411817553     A.U. after   12 cycles
            NFock= 12  Conv=0.38D-08     -V/T= 2.0048

 **********************************************************************

            Population analysis using the SCF Density.

 **********************************************************************

 Orbital symmetries:
       Occupied  (A) (A) (A) (A) (A) (A) (A) (A) (A) (A) (A) (A)
                 (A) (A) (A) (A) (A) (A) (A) (A) (A) (A) (A) (A)
                 (A)
       Virtual   (A) (A) (A) (A) (A) (A) (A) (A) (A) (A) (A) (A)
                 (A) (A) (A) (A) (A) (A) (A) (A) (A) (A) (A) (A)
                 (A) (A) (A) (A) (A) (A) (A) (A) (A) (A) (A) (A)
                 (A) (A) (A) (A) (A) (A) (A) (A) (A) (A) (A) (A)
                 (A) (A) (A) (A) (A) (A) (A) (A) (A) (A) (A) (A)
                 (A) (A) (A) (A) (A) (A) (A) (A) (A) (A) (A) (A)
                 (A) (A) (A) (A) (A) (A) (A) (A) (A) (A) (A) (A)
                 (A) (A) (A) (A) (A) (A) (A) (A) (A) (A) (A) (A)
                 (A) (A) (A) (A) (A) (A) (A) (A) (A) (A) (A) (A)
                 (A) (A) (A) (A) (A) (A) (A) (A) (A) (A) (A) (A)
                 (A) (A) (A) (A) (A) (A) (A) (A) (A) (A) (A) (A)
                 (A) (A) (A) (A) (A) (A) (A) (A) (A) (A) (A) (A)
                 (A) (A) (A) (A) (A) (A) (A) (A) (A) (A) (A) (A)
                 (A) (A) (A) (A) (A) (A) (A) (A) (A) (A) (A) (A)
                 (A) (A) (A) (A) (A) (A) (A) (A) (A) (A) (A) (A)
                 (A) (A) (A) (A)
 The electronic state is 1-A.
 Alpha  occ. eigenvalues --  -10.25102 -10.24096 -10.24080 -10.23842 -10.23774
 Alpha  occ. eigenvalues --  -10.23769 -10.23184  -0.86783  -0.78360  -0.75604
 Alpha  occ. eigenvalues --   -0.69605  -0.61646  -0.59468  -0.52123  -0.47298
 Alpha  occ. eigenvalues --   -0.46469  -0.43120  -0.43028  -0.42020  -0.39543
 Alpha  occ. eigenvalues --   -0.36932  -0.35516  -0.35077  -0.26633  -0.25669
 Alpha virt. eigenvalues --   -0.00885  -0.00504   0.04651   0.06327   0.07315
 Alpha virt. eigenvalues --    0.09518   0.10172   0.10564   0.12155   0.13428
 Alpha virt. eigenvalues --    0.16236   0.20057   0.25960   0.26387   0.26929
 Alpha virt. eigenvalues --    0.28066   0.28784   0.30108   0.31703   0.36678
 Alpha virt. eigenvalues --    0.37195   0.38372   0.38463   0.39802   0.40369
 Alpha virt. eigenvalues --    0.40814   0.42626   0.43555   0.44148   0.46819
 Alpha virt. eigenvalues --    0.47413   0.50759   0.51565   0.52604   0.53103
 Alpha virt. eigenvalues --    0.53536   0.53921   0.54616   0.56352   0.57852
 Alpha virt. eigenvalues --    0.59575   0.60222   0.63052   0.64142   0.67099
 Alpha virt. eigenvalues --    0.67531   0.69753   0.72280   0.72752   0.75119
 Alpha virt. eigenvalues --    0.76350   0.76883   0.78947   0.80249   0.81429
 Alpha virt. eigenvalues --    0.82771   0.83126   0.87862   0.94553   0.95784
 Alpha virt. eigenvalues --    0.97746   1.01006   1.02804   1.03717   1.08115
 Alpha virt. eigenvalues --    1.08940   1.12287   1.14683   1.17418   1.19750
 Alpha virt. eigenvalues --    1.21922   1.24149   1.24500   1.25705   1.27673
 Alpha virt. eigenvalues --    1.28245   1.28896   1.30580   1.31221   1.33733
 Alpha virt. eigenvalues --    1.37600   1.45708   1.50031   1.50400   1.54222
 Alpha virt. eigenvalues --    1.56095   1.59098   1.63537   1.64625   1.67174
 Alpha virt. eigenvalues --    1.74860   1.75336   1.78594   1.86404   1.88750
 Alpha virt. eigenvalues --    1.91778   1.96419   2.06257   2.07155   2.11396
 Alpha virt. eigenvalues --    2.13714   2.14525   2.16221   2.18105   2.24737
 Alpha virt. eigenvalues --    2.30451   2.32298   2.42192   2.44596   2.47572
 Alpha virt. eigenvalues --    2.50263   2.56696   2.57130   2.57755   2.60412
 Alpha virt. eigenvalues --    2.61578   2.62709   2.64863   2.69458   2.78471
 Alpha virt. eigenvalues --    2.79227   2.80128   2.82875   2.85504   2.87294
 Alpha virt. eigenvalues --    2.96684   3.02583   3.05457   3.06818   3.07953
 Alpha virt. eigenvalues --    3.11162   3.11621   3.16361   3.18697   3.19966
 Alpha virt. eigenvalues --    3.23573   3.25031   3.28252   3.28983   3.32101
 Alpha virt. eigenvalues --    3.33950   3.35357   3.36339   3.38266   3.41273
 Alpha virt. eigenvalues --    3.45856   3.46189   3.47004   3.48482   3.53853
 Alpha virt. eigenvalues --    3.55146   3.56989   3.57763   3.59354   3.60054
 Alpha virt. eigenvalues --    3.65533   3.66100   3.67214   3.73092   3.73698
 Alpha virt. eigenvalues --    3.75278   3.77200   3.85389   3.85708   3.88061
 Alpha virt. eigenvalues --    3.91319   3.99437   4.03050   4.11173   4.15030
 Alpha virt. eigenvalues --    4.21663   4.47837   4.52273   4.62476   4.76196
 Alpha virt. eigenvalues --    4.82473   5.24404  23.52540  23.87323  23.94302
 Alpha virt. eigenvalues --   23.99767  24.03043  24.04688  24.13936
          Condensed to atoms (all electrons):
               1          2          3          4          5          6
     1  C    4.781901   0.532555  -0.033016  -0.028043  -0.031092   0.526952
     2  C    0.532555   4.835669   0.516937  -0.032456  -0.024977  -0.030234
     3  C   -0.033016   0.516937   4.810069   0.506655  -0.023484  -0.025004
     4  C   -0.028043  -0.032456   0.506655   4.814382   0.503667  -0.032413
     5  C   -0.031092  -0.024977  -0.023484   0.503667   4.806947   0.522082
     6  C    0.526952  -0.030234  -0.025004  -0.032413   0.522082   4.839217
     7  H   -0.051307   0.414211  -0.032527   0.004252  -0.000260   0.005171
     8  H    0.005000  -0.044649   0.422348  -0.046241   0.005138  -0.000474
     9  H   -0.000273   0.005409  -0.048142   0.425877  -0.047878   0.005281
    10  H    0.005225  -0.000569   0.005236  -0.046650   0.423044  -0.045348
    11  H   -0.053435   0.005261  -0.000340   0.004481  -0.033984   0.416884
    12  C    0.349100  -0.041943   0.001451   0.000785   0.000508  -0.041913
    13  H   -0.038374  -0.004290   0.000812  -0.000077  -0.000057   0.002914
    14  H   -0.037754   0.001893  -0.000138  -0.000020   0.000499  -0.003530
    15  H   -0.029444  -0.000945  -0.000343   0.000120  -0.000257  -0.001796
               7          8          9         10         11         12
     1  C   -0.051307   0.005000  -0.000273   0.005225  -0.053435   0.349100
     2  C    0.414211  -0.044649   0.005409  -0.000569   0.005261  -0.041943
     3  C   -0.032527   0.422348  -0.048142   0.005236  -0.000340   0.001451
     4  C    0.004252  -0.046241   0.425877  -0.046650   0.004481   0.000785
     5  C   -0.000260   0.005138  -0.047878   0.423044  -0.033984   0.000508
     6  C    0.005171  -0.000474   0.005281  -0.045348   0.416884  -0.041913
     7  H    0.586976  -0.006048  -0.000341   0.000082  -0.000351  -0.003579
     8  H   -0.006048   0.594041  -0.006254  -0.000349   0.000084  -0.000221
     9  H   -0.000341  -0.006254   0.596662  -0.006187  -0.000343   0.000044
    10  H    0.000082  -0.000349  -0.006187   0.594378  -0.006267  -0.000223
    11  H   -0.000351   0.000084  -0.000343  -0.006267   0.587133  -0.002272
    12  C   -0.003579  -0.000221   0.000044  -0.000223  -0.002272   4.821985
    13  H    0.003584  -0.000051  -0.000003   0.000022  -0.000196   0.411760
    14  H   -0.000119   0.000021  -0.000002  -0.000033   0.002448   0.406647
    15  H    0.000403   0.000013  -0.000001   0.000000   0.001009   0.389135
              13         14         15
     1  C   -0.038374  -0.037754  -0.029444
     2  C   -0.004290   0.001893  -0.000945
     3  C    0.000812  -0.000138  -0.000343
     4  C   -0.000077  -0.000020   0.000120
     5  C   -0.000057   0.000499  -0.000257
     6  C    0.002914  -0.003530  -0.001796
     7  H    0.003584  -0.000119   0.000403
     8  H   -0.000051   0.000021   0.000013
     9  H   -0.000003  -0.000002  -0.000001
    10  H    0.000022  -0.000033   0.000000
    11  H   -0.000196   0.002448   0.001009
    12  C    0.411760   0.406647   0.389135
    13  H    0.571378  -0.026409  -0.029068
    14  H   -0.026409   0.574112  -0.032139
    15  H   -0.029068  -0.032139   0.583411
 Mulliken charges:
               1
     1  C    0.102005
     2  C   -0.131873
     3  C   -0.100515
     4  C   -0.074319
     5  C   -0.099896
     6  C   -0.137791
     7  H    0.079853
     8  H    0.077642
     9  H    0.076151
    10  H    0.077636
    11  H    0.079888
    12  C   -0.291264
    13  H    0.108055
    14  H    0.114525
    15  H    0.119901
 Sum of Mulliken charges =  -0.00000
 Mulliken charges with hydrogens summed into heavy atoms:
               1
     1  C    0.102005
     2  C   -0.052020
     3  C   -0.022872
     4  C    0.001833
     5  C   -0.022260
     6  C   -0.057903
    12  C    0.051218
 Electronic spatial extent (au):  <R**2>=            722.2487
 Charge=             -0.0000 electrons
 Dipole moment (field-independent basis, Debye):
    X=             -0.4707    Y=             -0.0253    Z=              0.0324  Tot=              0.4725
 Quadrupole moment (field-independent basis, Debye-Ang):
   XX=            -37.4549   YY=            -38.1549   ZZ=            -45.8511
   XY=              0.0362   XZ=             -0.0264   YZ=              0.0014
 Traceless Quadrupole moment (field-independent basis, Debye-Ang):
   XX=              3.0320   YY=              2.3321   ZZ=             -5.3641
   XY=              0.0362   XZ=             -0.0264   YZ=              0.0014
 Octapole moment (field-independent basis, Debye-Ang**2):
  XXX=              3.4922  YYY=              0.2719  ZZZ=              0.6244  XYY=              1.2015
  XXY=             -0.0869  XXZ=              0.1098  XZZ=             -3.7430  YZZ=             -0.3529
  YYZ=             -0.5404  XYZ=             -0.0060
 Hexadecapole moment (field-independent basis, Debye-Ang**3):
 XXXX=           -602.5532 YYYY=           -284.9199 ZZZZ=            -57.5790 XXXY=              0.0276
 XXXZ=              0.1888 YYYX=             -0.8823 YYYZ=              0.0142 ZZZX=             -1.7220
 ZZZY=             -0.0226 XXYY=           -145.3859 XXZZ=           -119.0282 YYZZ=            -67.2178
 XXYZ=              0.0329 YYXZ=              1.5776 ZZXY=              1.0171
 N-N= 2.679490566795D+02 E-N=-1.165416413876D+03  KE= 2.701090691925D+02
 PrsmSu:  requested number of processors reduced to:   9 ShMem   1 Linda.
 D1PCM: PCM CHGder 1st derivatives, ID1Alg=3 FixD1E=F DoIter=F DoCFld=F I1PDM=0.
 CoulSu:  requested number of processors reduced to:   9 ShMem   1 Linda.
 CoulSu:  requested number of processors reduced to:   9 ShMem   1 Linda.
 Calling FoFJK, ICntrl=      2127 FMM=F ISym2X=0 I1Cent= 0 IOpClX= 0 NMat=1 NMatS=1 NMatT=0.
 ***** Axes restored to original set *****
 -------------------------------------------------------------------
 Center     Atomic                   Forces (Hartrees/Bohr)
 Number     Number              X              Y              Z
 -------------------------------------------------------------------
      1        6           0.007038179    0.000258534   -0.000026299
      2        6           0.007404788   -0.011753081    0.000106722
      3        6          -0.006851516   -0.012690959   -0.000014656
      4        6          -0.014675654    0.000295683   -0.000044882
      5        6          -0.007134570    0.012422347   -0.000026210
      6        6           0.007588199    0.011582162    0.000064302
      7        1           0.000458958   -0.000738232   -0.000029554
      8        1          -0.000403005   -0.000496511   -0.000029373
      9        1          -0.000665940    0.000003743   -0.000018632
     10        1          -0.000422273    0.000497593   -0.000012036
     11        1           0.000481143    0.000719768   -0.000031989
     12        6           0.005201486    0.000271898   -0.000461512
     13        1           0.000836154   -0.001204941    0.000620471
     14        1           0.000767372    0.000751994    0.001148046
     15        1           0.000376679    0.000080002   -0.001244398
 -------------------------------------------------------------------
 Cartesian Forces:  Max     0.014675654 RMS     0.004943755

 GradGradGradGradGradGradGradGradGradGradGradGradGradGradGradGradGradGrad
 Berny optimization.
 FormGI is forming the generalized inverse of G from B-inverse, IUseBI=4.
 Internal  Forces:  Max     0.015247240 RMS     0.004476886
 Search for a local minimum.
 Step number   1 out of a maximum of   79
 All quantities printed in internal units (Hartrees-Bohrs-Radians)
 Mixed Optimization -- RFO/linear search
 Second derivative matrix not updated -- first step.
 ITU=  0
     Eigenvalues ---    0.00656   0.01456   0.02012   0.02033   0.02038
     Eigenvalues ---    0.02051   0.02055   0.02059   0.02060   0.02065
     Eigenvalues ---    0.07081   0.07167   0.16000   0.16000   0.16000
     Eigenvalues ---    0.16000   0.16000   0.16000   0.16000   0.16000
     Eigenvalues ---    0.22000   0.22000   0.23472   0.24997   0.31518
     Eigenvalues ---    0.33970   0.34129   0.34217   0.34967   0.34997
     Eigenvalues ---    0.35220   0.35223   0.35265   0.41024   0.41114
     Eigenvalues ---    0.44722   0.44926   0.45222   0.45370
 RFO step:  Lambda=-3.10617175D-03 EMin= 6.55652771D-03
 Linear search not attempted -- first point.
 Iteration  1 RMS(Cart)=  0.01825196 RMS(Int)=  0.00000540
 Iteration  2 RMS(Cart)=  0.00000639 RMS(Int)=  0.00000096
 Iteration  3 RMS(Cart)=  0.00000000 RMS(Int)=  0.00000096
 Variable       Old X    -DE/DX   Delta X   Delta X   Delta X     New X
                                 (Linear)    (Quad)   (Total)
    R1        2.65598  -0.01440   0.00000  -0.03188  -0.03188   2.62410
    R2        2.65886  -0.01427   0.00000  -0.03177  -0.03177   2.62709
    R3        2.85035  -0.00718   0.00000  -0.02256  -0.02256   2.82779
    R4        2.65034  -0.01497   0.00000  -0.03289  -0.03289   2.61746
    R5        2.05680  -0.00087   0.00000  -0.00246  -0.00246   2.05434
    R6        2.64920  -0.01525   0.00000  -0.03352  -0.03351   2.61568
    R7        2.05314  -0.00063   0.00000  -0.00178  -0.00178   2.05136
    R8        2.65146  -0.01494   0.00000  -0.03299  -0.03299   2.61847
    R9        2.05246  -0.00067   0.00000  -0.00187  -0.00187   2.05059
   R10        2.64744  -0.01518   0.00000  -0.03317  -0.03317   2.61427
   R11        2.05319  -0.00064   0.00000  -0.00181  -0.00181   2.05139
   R12        2.05728  -0.00086   0.00000  -0.00245  -0.00245   2.05483
   R13        2.06966  -0.00156   0.00000  -0.00451  -0.00451   2.06515
   R14        2.07113  -0.00151   0.00000  -0.00437  -0.00437   2.06676
   R15        2.07381  -0.00129   0.00000  -0.00376  -0.00376   2.07005
    A1        2.06793  -0.00041   0.00000  -0.00129  -0.00129   2.06664
    A2        2.11127   0.00039   0.00000   0.00138   0.00139   2.11266
    A3        2.10389   0.00002   0.00000  -0.00010  -0.00010   2.10380
    A4        2.10975   0.00007   0.00000   0.00047   0.00047   2.11022
    A5        2.08075  -0.00001   0.00000  -0.00006  -0.00006   2.08069
    A6        2.09268  -0.00006   0.00000  -0.00041  -0.00041   2.09227
    A7        2.09670   0.00007   0.00000   0.00011   0.00012   2.09681
    A8        2.09201  -0.00014   0.00000  -0.00071  -0.00072   2.09130
    A9        2.09447   0.00007   0.00000   0.00060   0.00060   2.09507
   A10        2.08540   0.00012   0.00000   0.00013   0.00013   2.08553
   A11        2.09910  -0.00006   0.00000  -0.00009  -0.00009   2.09901
   A12        2.09868  -0.00006   0.00000  -0.00004  -0.00004   2.09864
   A13        2.09681   0.00006   0.00000   0.00002   0.00003   2.09683
   A14        2.09385   0.00009   0.00000   0.00074   0.00074   2.09458
   A15        2.09252  -0.00015   0.00000  -0.00076  -0.00076   2.09176
   A16        2.10977   0.00009   0.00000   0.00055   0.00055   2.11032
   A17        2.07991   0.00001   0.00000   0.00007   0.00007   2.07999
   A18        2.09350  -0.00010   0.00000  -0.00062  -0.00062   2.09288
   A19        1.94419  -0.00028   0.00000  -0.00118  -0.00118   1.94302
   A20        1.94331  -0.00028   0.00000  -0.00173  -0.00173   1.94158
   A21        1.93729   0.00015   0.00000   0.00040   0.00040   1.93769
   A22        1.88632   0.00046   0.00000   0.00376   0.00376   1.89008
   A23        1.87705   0.00009   0.00000   0.00063   0.00063   1.87768
   A24        1.87260  -0.00011   0.00000  -0.00174  -0.00174   1.87086
    D1       -0.00450  -0.00001   0.00000  -0.00053  -0.00053  -0.00504
    D2        3.13545  -0.00003   0.00000  -0.00113  -0.00113   3.13432
    D3        3.12259  -0.00002   0.00000  -0.00069  -0.00069   3.12191
    D4       -0.02063  -0.00003   0.00000  -0.00129  -0.00129  -0.02192
    D5        0.00440   0.00002   0.00000   0.00072   0.00072   0.00512
    D6       -3.13515   0.00003   0.00000   0.00106   0.00106  -3.13409
    D7       -3.12276   0.00002   0.00000   0.00086   0.00086  -3.12190
    D8        0.02087   0.00002   0.00000   0.00120   0.00119   0.02207
    D9        0.33618  -0.00005   0.00000   0.00020   0.00020   0.33638
   D10        2.44322   0.00016   0.00000   0.00300   0.00300   2.44622
   D11       -1.75499  -0.00007   0.00000  -0.00008  -0.00008  -1.75507
   D12       -2.82020  -0.00006   0.00000   0.00003   0.00003  -2.82017
   D13       -0.71316   0.00015   0.00000   0.00283   0.00283  -0.71033
   D14        1.37181  -0.00008   0.00000  -0.00024  -0.00024   1.37157
   D15        0.00193  -0.00000   0.00000  -0.00016  -0.00016   0.00177
   D16        3.14030  -0.00002   0.00000  -0.00075  -0.00075   3.13955
   D17       -3.13802   0.00001   0.00000   0.00044   0.00044  -3.13757
   D18        0.00035  -0.00000   0.00000  -0.00015  -0.00015   0.00021
   D19        0.00084   0.00002   0.00000   0.00068   0.00068   0.00153
   D20        3.13923  -0.00001   0.00000  -0.00050  -0.00050   3.13873
   D21       -3.13752   0.00003   0.00000   0.00128   0.00128  -3.13625
   D22        0.00087   0.00000   0.00000   0.00009   0.00009   0.00096
   D23       -0.00094  -0.00001   0.00000  -0.00050  -0.00050  -0.00144
   D24        3.13714  -0.00002   0.00000  -0.00097  -0.00097   3.13617
   D25       -3.13934   0.00002   0.00000   0.00069   0.00069  -3.13865
   D26       -0.00125   0.00000   0.00000   0.00021   0.00021  -0.00103
   D27       -0.00172  -0.00001   0.00000  -0.00021  -0.00021  -0.00193
   D28        3.13781  -0.00001   0.00000  -0.00055  -0.00055   3.13726
   D29       -3.13981   0.00001   0.00000   0.00026   0.00026  -3.13955
   D30       -0.00028  -0.00000   0.00000  -0.00008  -0.00008  -0.00036
         Item               Value     Threshold  Converged?
 Maximum Force            0.015247     0.000450     NO 
 RMS     Force            0.004477     0.000300     NO 
 Maximum Displacement     0.047874     0.001800     NO 
 RMS     Displacement     0.018253     0.001200     NO 
 Predicted change in Energy=-1.564054D-03
 GradGradGradGradGradGradGradGradGradGradGradGradGradGradGradGradGradGrad

                          Input orientation:                          
 ---------------------------------------------------------------------
 Center     Atomic      Atomic             Coordinates (Angstroms)
 Number     Number       Type             X           Y           Z
 ---------------------------------------------------------------------
      1          6           0       -0.907317    0.004295   -0.008580
      2          6           0       -0.193495    1.195390   -0.006966
      3          6           0        1.191575    1.194735    0.001876
      4          6           0        1.885968   -0.002633    0.007148
      5          6           0        1.184889   -1.197806    0.001670
      6          6           0       -0.198481   -1.191610   -0.007259
      7          1           0       -0.734559    2.138255   -0.014870
      8          1           0        1.731890    2.136245    0.001074
      9          1           0        2.971080   -0.005528    0.011394
     10          1           0        1.720980   -2.141743    0.000642
     11          1           0       -0.744910   -2.131672   -0.015618
     12          6           0       -2.403632    0.001294    0.007110
     13          1           0       -2.806433    0.963981   -0.317340
     14          1           0       -2.805251   -0.777161   -0.647760
     15          1           0       -2.785638   -0.194533    1.014915
 ---------------------------------------------------------------------
                    Distance matrix (angstroms):
                    1          2          3          4          5
     1  C    0.000000
     2  C    1.388615   0.000000
     3  C    2.413008   1.385099   0.000000
     4  C    2.793338   2.399922   1.384160   0.000000
     5  C    2.412981   2.761776   2.392551   1.385634   0.000000
     6  C    1.390194   2.387005   2.761699   2.399750   1.383412
     7  H    2.140951   1.087109   2.144878   3.383939   3.848877
     8  H    3.392746   2.142985   1.085533   2.144429   3.378626
     9  H    3.878461   3.384831   2.146476   1.085124   2.147580
    10  H    3.393157   3.847302   3.378219   2.145474   1.085547
    11  H    2.142143   3.372458   3.849060   3.384500   2.143951
    12  C    1.496400   2.512124   3.788119   4.289601   3.783563
    13  H    2.150110   2.641462   4.017364   4.801902   4.550356
    14  H    2.149739   3.335092   4.503890   4.799618   4.064470
    15  H    2.148293   3.113732   4.332959   4.782920   4.218804
                    6          7          8          9         10
     6  C    0.000000
     7  H    3.372749   0.000000
     8  H    3.847210   2.466501   0.000000
     9  H    3.384266   4.281151   2.474447   0.000000
    10  H    2.141763   4.934399   4.278003   2.475133   0.000000
    11  H    1.087369   4.269939   4.934565   4.281331   2.465964
    12  C    2.507173   2.711621   4.654095   5.374718   4.648126
    13  H    3.397666   2.400639   4.698081   5.867509   5.499464
    14  H    2.716111   3.631523   5.430890   5.864802   4.771717
    15  H    2.955061   3.272504   5.183480   5.846587   5.012982
                   11         12         13         14         15
    11  H    0.000000
    12  C    2.702113   0.000000
    13  H    3.731485   1.092833   0.000000
    14  H    2.545449   1.093684   1.772217   0.000000
    15  H    2.996510   1.095421   1.765642   1.761910   0.000000
 Stoichiometry    C7H8
 Framework group  C1[X(C7H8)]
 Deg. of freedom    39
 Full point group                 C1      NOp   1
 Largest Abelian subgroup         C1      NOp   1
 Largest concise Abelian subgroup C1      NOp   1
                         Standard orientation:                         
 ---------------------------------------------------------------------
 Center     Atomic      Atomic             Coordinates (Angstroms)
 Number     Number       Type             X           Y           Z
 ---------------------------------------------------------------------
      1          6           0       -0.905400    0.004338   -0.008629
      2          6           0       -0.191263    1.195244   -0.007015
      3          6           0        1.193808    1.194222    0.001828
      4          6           0        1.887883   -0.003330    0.007099
      5          6           0        1.186487   -1.198318    0.001621
      6          6           0       -0.196881   -1.191754   -0.007308
      7          1           0       -0.732076    2.138252   -0.014919
      8          1           0        1.734373    2.135589    0.001026
      9          1           0        2.972994   -0.006513    0.011345
     10          1           0        1.722328   -2.142397    0.000594
     11          1           0       -0.743559   -2.131671   -0.015666
     12          6           0       -2.401715    0.001734    0.007062
     13          1           0       -2.804261    0.964528   -0.317389
     14          1           0       -2.803541   -0.776614   -0.647808
     15          1           0       -2.783773   -0.193991    1.014866
 ---------------------------------------------------------------------
 Rotational constants (GHZ):           5.6095793           2.5543846           1.7744618
 Standard basis: 6-311G(2d,p) (5D, 7F)
 There are   223 symmetry adapted cartesian basis functions of A   symmetry.
 There are   209 symmetry adapted basis functions of A   symmetry.
   209 basis functions,   330 primitive gaussians,   223 cartesian basis functions
    25 alpha electrons       25 beta electrons
       nuclear repulsion energy       270.6849555997 Hartrees.
 NAtoms=   15 NActive=   15 NUniq=   15 SFac= 1.00D+00 NAtFMM=   60 NAOKFM=F Big=F
 Integral buffers will be    131072 words long.
 Raffenetti 2 integral format.
 Two-electron integral symmetry is turned on.
 Nuclear repulsion after empirical dispersion term =      270.6838017190 Hartrees.
 ------------------------------------------------------------------------------
 Polarizable Continuum Model (PCM)
 =================================
 Model                : PCM.
 Atomic radii         : UFF (Universal Force Field).
 Polarization charges : Total charges.
 Charge compensation  : None.
 Solution method      : On-the-fly selection.
 Cavity type          : Scaled VdW (van der Waals Surface) (Alpha=1.100).
 Cavity algorithm     : GePol (No added spheres)
                        Default sphere list used, NSphG=   15.
                        Lebedev-Laikov grids with approx.  5.0 points / Ang**2.
                        Smoothing algorithm: York/Karplus (Gamma=1.0000).
                        Polarization charges: spherical gaussians, with
                                              point-specific exponents (IZeta= 3).
                        Self-potential: point-specific (ISelfS= 7).
                        Self-field    : sphere-specific E.n sum rule (ISelfD= 2).
 1st derivatives      : Analytical E(r).r(x)/FMM algorithm (CHGder, D1EAlg=3).
                        Cavity 1st derivative terms included.
 Solvent              : TetraHydroFuran, Eps=   7.425700 Eps(inf)=   1.974025
 ------------------------------------------------------------------------------
 Spheres list:
 ISph  on   Nord     Re0    Alpha      Xe            Ye            Ze
    1   C      1    1.9255  1.100     -0.905400      0.004338     -0.008629
    2   C      2    1.9255  1.100     -0.191263      1.195244     -0.007015
    3   C      3    1.9255  1.100      1.193808      1.194222      0.001828
    4   C      4    1.9255  1.100      1.887883     -0.003330      0.007099
    5   C      5    1.9255  1.100      1.186487     -1.198318      0.001621
    6   C      6    1.9255  1.100     -0.196881     -1.191754     -0.007308
    7   H      7    1.4430  1.100     -0.732076      2.138252     -0.014919
    8   H      8    1.4430  1.100      1.734373      2.135589      0.001026
    9   H      9    1.4430  1.100      2.972994     -0.006513      0.011345
   10   H     10    1.4430  1.100      1.722328     -2.142397      0.000594
   11   H     11    1.4430  1.100     -0.743559     -2.131671     -0.015666
   12   C     12    1.9255  1.100     -2.401715      0.001734      0.007062
   13   H     13    1.4430  1.100     -2.804261      0.964528     -0.317389
   14   H     14    1.4430  1.100     -2.803541     -0.776614     -0.647808
   15   H     15    1.4430  1.100     -2.783773     -0.193991      1.014866
 ------------------------------------------------------------------------------
 One-electron integrals computed using PRISM.
 PrsmSu:  requested number of processors reduced to:   9 ShMem   1 Linda.
 NBasis=   209 RedAO= T EigKep=  5.81D-05  NBF=   209
 NBsUse=   209 1.00D-06 EigRej= -1.00D+00 NBFU=   209
 Initial guess from the checkpoint file:  "PhMe.chk"
 B after Tr=    -0.000000    0.000000    0.000000
         Rot=    1.000000   -0.000034    0.000046    0.000164 Ang=  -0.02 deg.
 ExpMin= 1.03D-01 ExpMax= 4.56D+03 ExpMxC= 6.82D+02 IAcc=3 IRadAn=         5 AccDes= 0.00D+00
 Harris functional with IExCor= 1009 and IRadAn=       5 diagonalized for initial guess.
 HarFok:  IExCor= 1009 AccDes= 0.00D+00 IRadAn=         5 IDoV= 1 UseB2=F ITyADJ=14
 ICtDFT=  3500011 ScaDFX=  1.000000  1.000000  1.000000  1.000000
 FoFCou: FMM=F IPFlag=           0 FMFlag=      100000 FMFlg1=           0
         NFxFlg=           0 DoJE=T BraDBF=F KetDBF=T FulRan=T
         wScrn=  0.000000 ICntrl=       500 IOpCl=  0 I1Cent=   200000004 NGrid=           0
         NMat0=    1 NMatS0=      1 NMatT0=    0 NMatD0=    1 NMtDS0=    0 NMtDT0=    0
 Petite list used in FoFCou.
 Requested convergence on RMS density matrix=1.00D-08 within 128 cycles.
 Requested convergence on MAX density matrix=1.00D-06.
 Requested convergence on             energy=1.00D-06.
 No special actions if energy rises.
 Inv3:  Mode=1 IEnd=     4762800.
 Iteration    1 A*A^-1 deviation from unit magnitude is 2.89D-15 for    628.
 Iteration    1 A*A^-1 deviation from orthogonality  is 1.78D-15 for   1108    746.
 Iteration    1 A^-1*A deviation from unit magnitude is 3.00D-15 for    748.
 Iteration    1 A^-1*A deviation from orthogonality  is 2.24D-15 for    630    380.
 Error on total polarization charges =  0.00915
 SCF Done:  E(RM06) =  -271.413245564     A.U. after    9 cycles
            NFock=  9  Conv=0.94D-08     -V/T= 2.0037
 PrsmSu:  requested number of processors reduced to:   9 ShMem   1 Linda.
 D1PCM: PCM CHGder 1st derivatives, ID1Alg=3 FixD1E=F DoIter=F DoCFld=F I1PDM=0.
 CoulSu:  requested number of processors reduced to:   9 ShMem   1 Linda.
 CoulSu:  requested number of processors reduced to:   9 ShMem   1 Linda.
 Calling FoFJK, ICntrl=      2127 FMM=F ISym2X=0 I1Cent= 0 IOpClX= 0 NMat=1 NMatS=1 NMatT=0.
 ***** Axes restored to original set *****
 -------------------------------------------------------------------
 Center     Atomic                   Forces (Hartrees/Bohr)
 Number     Number              X              Y              Z
 -------------------------------------------------------------------
      1        6          -0.001802971    0.000135677    0.000012329
      2        6           0.000022118    0.000766465    0.000020132
      3        6           0.000584180    0.000866206    0.000009233
      4        6           0.001073829    0.000073273    0.000005598
      5        6           0.000471287   -0.000980840    0.000005342
      6        6           0.000097193   -0.000835954    0.000000437
      7        1          -0.000158695    0.000287483   -0.000009313
      8        1           0.000126472    0.000285684   -0.000003390
      9        1           0.000312294   -0.000006385    0.000006447
     10        1           0.000129056   -0.000285116    0.000000558
     11        1          -0.000179456   -0.000291782   -0.000012138
     12        6           0.000294713    0.000180913   -0.000311661
     13        1          -0.000317334   -0.000063250    0.000117429
     14        1          -0.000313095   -0.000075399    0.000155980
     15        1          -0.000339589   -0.000056972    0.000003018
 -------------------------------------------------------------------
 Cartesian Forces:  Max     0.001802971 RMS     0.000449708

 GradGradGradGradGradGradGradGradGradGradGradGradGradGradGradGradGradGrad
 Berny optimization.
 Using GEDIIS/GDIIS optimizer.
 FormGI is forming the generalized inverse of G from B-inverse, IUseBI=4.
 Internal  Forces:  Max     0.001714299 RMS     0.000464356
 Search for a local minimum.
 Step number   2 out of a maximum of   79
 All quantities printed in internal units (Hartrees-Bohrs-Radians)
 Mixed Optimization -- En-DIIS/RFO-DIIS
 Update second derivatives using D2CorX and points    1    2
 DE= -1.43D-03 DEPred=-1.56D-03 R= 9.13D-01
 TightC=F SS=  1.41D+00  RLast= 8.40D-02 DXNew= 5.0454D-01 2.5211D-01
 Trust test= 9.13D-01 RLast= 8.40D-02 DXMaxT set to 3.00D-01
 ITU=  1  0
 Use linear search instead of GDIIS.
     Eigenvalues ---    0.00656   0.01456   0.02012   0.02033   0.02038
     Eigenvalues ---    0.02051   0.02055   0.02059   0.02060   0.02065
     Eigenvalues ---    0.07087   0.07176   0.15990   0.16000   0.16000
     Eigenvalues ---    0.16000   0.16000   0.16000   0.16000   0.16015
     Eigenvalues ---    0.22000   0.22000   0.23438   0.24994   0.31645
     Eigenvalues ---    0.33974   0.34129   0.34212   0.34973   0.35007
     Eigenvalues ---    0.35221   0.35231   0.35272   0.40937   0.41024
     Eigenvalues ---    0.44740   0.45195   0.45238   0.49632
 RFO step:  Lambda=-7.61545525D-06 EMin= 6.55642884D-03
 Quartic linear search produced a step of -0.08465.
 Iteration  1 RMS(Cart)=  0.00245638 RMS(Int)=  0.00000175
 Iteration  2 RMS(Cart)=  0.00000142 RMS(Int)=  0.00000075
 Iteration  3 RMS(Cart)=  0.00000000 RMS(Int)=  0.00000075
 Variable       Old X    -DE/DX   Delta X   Delta X   Delta X     New X
                                 (Linear)    (Quad)   (Total)
    R1        2.62410   0.00163   0.00270   0.00044   0.00314   2.62724
    R2        2.62709   0.00171   0.00269   0.00064   0.00333   2.63042
    R3        2.82779   0.00067   0.00191  -0.00014   0.00177   2.82955
    R4        2.61746   0.00139   0.00278  -0.00020   0.00259   2.62004
    R5        2.05434   0.00033   0.00021   0.00063   0.00084   2.05518
    R6        2.61568   0.00125   0.00284  -0.00054   0.00229   2.61798
    R7        2.05136   0.00031   0.00015   0.00064   0.00079   2.05216
    R8        2.61847   0.00133   0.00279  -0.00033   0.00247   2.62093
    R9        2.05059   0.00031   0.00016   0.00064   0.00080   2.05138
   R10        2.61427   0.00131   0.00281  -0.00038   0.00242   2.61669
   R11        2.05139   0.00031   0.00015   0.00064   0.00079   2.05218
   R12        2.05483   0.00034   0.00021   0.00067   0.00088   2.05571
   R13        2.06515   0.00002   0.00038  -0.00035   0.00003   2.06518
   R14        2.06676   0.00008   0.00037  -0.00020   0.00017   2.06693
   R15        2.07005   0.00013   0.00032   0.00001   0.00033   2.07037
    A1        2.06664  -0.00052   0.00011  -0.00202  -0.00191   2.06473
    A2        2.11266   0.00036  -0.00012   0.00145   0.00134   2.11399
    A3        2.10380   0.00016   0.00001   0.00056   0.00057   2.10436
    A4        2.11022   0.00024  -0.00004   0.00105   0.00101   2.11124
    A5        2.08069  -0.00012   0.00000  -0.00049  -0.00048   2.08021
    A6        2.09227  -0.00013   0.00004  -0.00057  -0.00053   2.09173
    A7        2.09681   0.00005  -0.00001   0.00015   0.00014   2.09695
    A8        2.09130  -0.00006   0.00006  -0.00035  -0.00028   2.09102
    A9        2.09507   0.00001  -0.00005   0.00019   0.00014   2.09521
   A10        2.08553  -0.00007  -0.00001  -0.00038  -0.00039   2.08514
   A11        2.09901   0.00004   0.00001   0.00020   0.00021   2.09922
   A12        2.09864   0.00003   0.00000   0.00017   0.00018   2.09882
   A13        2.09683   0.00002  -0.00000   0.00002   0.00002   2.09685
   A14        2.09458   0.00002  -0.00006   0.00022   0.00015   2.09474
   A15        2.09176  -0.00004   0.00006  -0.00024  -0.00017   2.09159
   A16        2.11032   0.00027  -0.00005   0.00117   0.00112   2.11144
   A17        2.07999  -0.00014  -0.00001  -0.00059  -0.00060   2.07939
   A18        2.09288  -0.00013   0.00005  -0.00058  -0.00053   2.09235
   A19        1.94302   0.00037   0.00010   0.00235   0.00245   1.94547
   A20        1.94158   0.00030   0.00015   0.00155   0.00170   1.94328
   A21        1.93769   0.00026  -0.00003   0.00115   0.00112   1.93880
   A22        1.89008  -0.00025  -0.00032  -0.00038  -0.00070   1.88938
   A23        1.87768  -0.00034  -0.00005  -0.00196  -0.00201   1.87566
   A24        1.87086  -0.00040   0.00015  -0.00306  -0.00291   1.86795
    D1       -0.00504  -0.00000   0.00005  -0.00003   0.00002  -0.00502
    D2        3.13432  -0.00000   0.00010  -0.00026  -0.00017   3.13415
    D3        3.12191  -0.00001   0.00006  -0.00044  -0.00038   3.12152
    D4       -0.02192  -0.00001   0.00011  -0.00068  -0.00057  -0.02249
    D5        0.00512   0.00000  -0.00006   0.00011   0.00005   0.00517
    D6       -3.13409   0.00000  -0.00009   0.00026   0.00017  -3.13392
    D7       -3.12190   0.00000  -0.00007   0.00051   0.00044  -3.12146
    D8        0.02207   0.00001  -0.00010   0.00066   0.00056   0.02263
    D9        0.33638  -0.00004  -0.00002   0.00079   0.00078   0.33716
   D10        2.44622   0.00011  -0.00025   0.00300   0.00275   2.44896
   D11       -1.75507  -0.00003   0.00001   0.00093   0.00093  -1.75413
   D12       -2.82017  -0.00005  -0.00000   0.00035   0.00035  -2.81982
   D13       -0.71033   0.00010  -0.00024   0.00255   0.00231  -0.70802
   D14        1.37157  -0.00004   0.00002   0.00048   0.00050   1.37207
   D15        0.00177  -0.00000   0.00001  -0.00011  -0.00009   0.00168
   D16        3.13955  -0.00000   0.00006  -0.00025  -0.00019   3.13936
   D17       -3.13757   0.00000  -0.00004   0.00013   0.00009  -3.13748
   D18        0.00021   0.00000   0.00001  -0.00002  -0.00000   0.00020
   D19        0.00153   0.00000  -0.00006   0.00017   0.00011   0.00164
   D20        3.13873   0.00000   0.00004  -0.00000   0.00004   3.13877
   D21       -3.13625   0.00000  -0.00011   0.00032   0.00021  -3.13604
   D22        0.00096   0.00000  -0.00001   0.00014   0.00013   0.00109
   D23       -0.00144  -0.00000   0.00004  -0.00009  -0.00005  -0.00149
   D24        3.13617  -0.00000   0.00008  -0.00019  -0.00010   3.13607
   D25       -3.13865  -0.00000  -0.00006   0.00008   0.00003  -3.13862
   D26       -0.00103  -0.00000  -0.00002  -0.00001  -0.00003  -0.00106
   D27       -0.00193  -0.00000   0.00002  -0.00006  -0.00004  -0.00197
   D28        3.13726  -0.00000   0.00005  -0.00021  -0.00016   3.13710
   D29       -3.13955  -0.00000  -0.00002   0.00004   0.00002  -3.13954
   D30       -0.00036  -0.00000   0.00001  -0.00011  -0.00010  -0.00046
         Item               Value     Threshold  Converged?
 Maximum Force            0.001714     0.000450     NO 
 RMS     Force            0.000464     0.000300     NO 
 Maximum Displacement     0.009660     0.001800     NO 
 RMS     Displacement     0.002456     0.001200     NO 
 Predicted change in Energy=-1.693712D-05
 GradGradGradGradGradGradGradGradGradGradGradGradGradGradGradGradGradGrad

                          Input orientation:                          
 ---------------------------------------------------------------------
 Center     Atomic      Atomic             Coordinates (Angstroms)
 Number     Number       Type             X           Y           Z
 ---------------------------------------------------------------------
      1          6           0       -0.908728    0.004743   -0.009026
      2          6           0       -0.192747    1.196477   -0.007049
      3          6           0        1.193690    1.195707    0.002093
      4          6           0        1.888760   -0.002672    0.007425
      5          6           0        1.186626   -1.198738    0.001566
      6          6           0       -0.198022   -1.192103   -0.007738
      7          1           0       -0.733451    2.140060   -0.015083
      8          1           0        1.734025    2.137691    0.001383
      9          1           0        2.974292   -0.005735    0.011937
     10          1           0        1.722467   -2.143301    0.000477
     11          1           0       -0.744478   -2.132681   -0.016543
     12          6           0       -2.405976    0.001374    0.006834
     13          1           0       -2.811544    0.962918   -0.317610
     14          1           0       -2.809211   -0.778282   -0.645759
     15          1           0       -2.789032   -0.193947    1.014526
 ---------------------------------------------------------------------
                    Distance matrix (angstroms):
                    1          2          3          4          5
     1  C    0.000000
     2  C    1.390274   0.000000
     3  C    2.416336   1.386468   0.000000
     4  C    2.797546   2.402257   1.385375   0.000000
     5  C    2.416399   2.764018   2.394455   1.386939   0.000000
     6  C    1.391957   2.388586   2.763801   2.402006   1.384695
     7  H    2.142507   1.087554   2.146153   3.386414   3.851564
     8  H    3.396133   2.144389   1.085954   2.145957   3.381036
     9  H    3.883090   3.387596   2.148046   1.085546   2.149212
    10  H    3.396669   3.849963   3.380618   2.147089   1.085967
    11  H    2.143739   3.374580   3.851625   3.386954   2.145167
    12  C    1.497336   2.515322   3.792631   4.294737   3.787754
    13  H    2.152681   2.647470   4.024712   4.809457   4.556314
    14  H    2.151835   3.339687   4.509941   4.806158   4.069708
    15  H    2.150042   3.117305   4.337999   4.788797   4.223926
                    6          7          8          9         10
     6  C    0.000000
     7  H    3.374915   0.000000
     8  H    3.849729   2.467532   0.000000
     9  H    3.386950   4.283984   2.476418   0.000000
    10  H    2.143156   4.937505   4.281007   2.477173   0.000000
    11  H    1.087832   4.272755   4.937548   4.284152   2.467027
    12  C    2.509913   2.715105   4.658700   5.380274   4.652280
    13  H    3.401564   2.407417   4.705746   5.875610   5.505182
    14  H    2.719675   3.636379   5.437158   5.871822   4.776715
    15  H    2.958830   3.276140   5.188549   5.852906   5.018157
                   11         12         13         14         15
    11  H    0.000000
    12  C    2.704684   0.000000
    13  H    3.734453   1.092848   0.000000
    14  H    2.548221   1.093773   1.771854   0.000000
    15  H    3.000332   1.095594   1.764492   1.760227   0.000000
 Stoichiometry    C7H8
 Framework group  C1[X(C7H8)]
 Deg. of freedom    39
 Full point group                 C1      NOp   1
 Largest Abelian subgroup         C1      NOp   1
 Largest concise Abelian subgroup C1      NOp   1
                         Standard orientation:                         
 ---------------------------------------------------------------------
 Center     Atomic      Atomic             Coordinates (Angstroms)
 Number     Number       Type             X           Y           Z
 ---------------------------------------------------------------------
      1          6           0       -0.907221    0.004743   -0.008848
      2          6           0       -0.190832    1.196232   -0.007275
      3          6           0        1.195607    1.194988    0.001655
      4          6           0        1.890266   -0.003628    0.007178
      5          6           0        1.187721   -1.199454    0.001722
      6          6           0       -0.196926   -1.192347   -0.007372
      7          1           0       -0.731213    2.139998   -0.015460
      8          1           0        1.736264    2.136787    0.000630
      9          1           0        2.975797   -0.007062    0.011524
     10          1           0        1.723238   -2.144201    0.000785
     11          1           0       -0.743706   -2.132739   -0.015861
     12          6           0       -2.404468    0.001892    0.007242
     13          1           0       -2.809756    0.963495   -0.317378
     14          1           0       -2.808071   -0.777787   -0.645096
     15          1           0       -2.787437   -0.193049    1.015040
 ---------------------------------------------------------------------
 Rotational constants (GHZ):           5.6020206           2.5480661           1.7706186
 Standard basis: 6-311G(2d,p) (5D, 7F)
 There are   223 symmetry adapted cartesian basis functions of A   symmetry.
 There are   209 symmetry adapted basis functions of A   symmetry.
   209 basis functions,   330 primitive gaussians,   223 cartesian basis functions
    25 alpha electrons       25 beta electrons
       nuclear repulsion energy       270.4299251753 Hartrees.
 NAtoms=   15 NActive=   15 NUniq=   15 SFac= 1.00D+00 NAtFMM=   60 NAOKFM=F Big=F
 Integral buffers will be    131072 words long.
 Raffenetti 2 integral format.
 Two-electron integral symmetry is turned on.
 Nuclear repulsion after empirical dispersion term =      270.4287704308 Hartrees.
 ------------------------------------------------------------------------------
 Polarizable Continuum Model (PCM)
 =================================
 Model                : PCM.
 Atomic radii         : UFF (Universal Force Field).
 Polarization charges : Total charges.
 Charge compensation  : None.
 Solution method      : On-the-fly selection.
 Cavity type          : Scaled VdW (van der Waals Surface) (Alpha=1.100).
 Cavity algorithm     : GePol (No added spheres)
                        Default sphere list used, NSphG=   15.
                        Lebedev-Laikov grids with approx.  5.0 points / Ang**2.
                        Smoothing algorithm: York/Karplus (Gamma=1.0000).
                        Polarization charges: spherical gaussians, with
                                              point-specific exponents (IZeta= 3).
                        Self-potential: point-specific (ISelfS= 7).
                        Self-field    : sphere-specific E.n sum rule (ISelfD= 2).
 1st derivatives      : Analytical E(r).r(x)/FMM algorithm (CHGder, D1EAlg=3).
                        Cavity 1st derivative terms included.
 Solvent              : TetraHydroFuran, Eps=   7.425700 Eps(inf)=   1.974025
 ------------------------------------------------------------------------------
 Spheres list:
 ISph  on   Nord     Re0    Alpha      Xe            Ye            Ze
    1   C      1    1.9255  1.100     -0.907221      0.004743     -0.008848
    2   C      2    1.9255  1.100     -0.190832      1.196232     -0.007275
    3   C      3    1.9255  1.100      1.195607      1.194988      0.001655
    4   C      4    1.9255  1.100      1.890266     -0.003628      0.007178
    5   C      5    1.9255  1.100      1.187721     -1.199454      0.001722
    6   C      6    1.9255  1.100     -0.196926     -1.192347     -0.007372
    7   H      7    1.4430  1.100     -0.731213      2.139998     -0.015460
    8   H      8    1.4430  1.100      1.736264      2.136787      0.000630
    9   H      9    1.4430  1.100      2.975797     -0.007062      0.011524
   10   H     10    1.4430  1.100      1.723238     -2.144201      0.000785
   11   H     11    1.4430  1.100     -0.743706     -2.132739     -0.015861
   12   C     12    1.9255  1.100     -2.404468      0.001892      0.007242
   13   H     13    1.4430  1.100     -2.809756      0.963495     -0.317378
   14   H     14    1.4430  1.100     -2.808071     -0.777787     -0.645096
   15   H     15    1.4430  1.100     -2.787437     -0.193049      1.015040
 ------------------------------------------------------------------------------
 One-electron integrals computed using PRISM.
 PrsmSu:  requested number of processors reduced to:   9 ShMem   1 Linda.
 NBasis=   209 RedAO= T EigKep=  5.86D-05  NBF=   209
 NBsUse=   209 1.00D-06 EigRej= -1.00D+00 NBFU=   209
 Initial guess from the checkpoint file:  "PhMe.chk"
 B after Tr=    -0.000000   -0.000000   -0.000000
         Rot=    1.000000    0.000085   -0.000038    0.000061 Ang=   0.01 deg.
 Requested convergence on RMS density matrix=1.00D-08 within 128 cycles.
 Requested convergence on MAX density matrix=1.00D-06.
 Requested convergence on             energy=1.00D-06.
 No special actions if energy rises.
 Inv3:  Mode=1 IEnd=     4762800.
 Iteration    1 A*A^-1 deviation from unit magnitude is 3.33D-15 for     89.
 Iteration    1 A*A^-1 deviation from orthogonality  is 1.78D-15 for   1168    385.
 Iteration    1 A^-1*A deviation from unit magnitude is 3.11D-15 for     89.
 Iteration    1 A^-1*A deviation from orthogonality  is 2.98D-15 for   1035    609.
 Error on total polarization charges =  0.00916
 SCF Done:  E(RM06) =  -271.413262626     A.U. after    8 cycles
            NFock=  8  Conv=0.50D-08     -V/T= 2.0038
 PrsmSu:  requested number of processors reduced to:   9 ShMem   1 Linda.
 D1PCM: PCM CHGder 1st derivatives, ID1Alg=3 FixD1E=F DoIter=F DoCFld=F I1PDM=0.
 CoulSu:  requested number of processors reduced to:   9 ShMem   1 Linda.
 CoulSu:  requested number of processors reduced to:   9 ShMem   1 Linda.
 Calling FoFJK, ICntrl=      2127 FMM=F ISym2X=0 I1Cent= 0 IOpClX= 0 NMat=1 NMatS=1 NMatT=0.
 ***** Axes restored to original set *****
 -------------------------------------------------------------------
 Center     Atomic                   Forces (Hartrees/Bohr)
 Number     Number              X              Y              Z
 -------------------------------------------------------------------
      1        6          -0.000408520    0.000069011    0.000020439
      2        6           0.000082419   -0.000047621    0.000003323
      3        6          -0.000001830    0.000011858   -0.000001142
      4        6           0.000066045    0.000036186   -0.000005411
      5        6          -0.000060614   -0.000067423   -0.000001526
      6        6           0.000136915   -0.000002867   -0.000011047
      7        1          -0.000008384    0.000038650    0.000000274
      8        1          -0.000029326    0.000017686    0.000003389
      9        1           0.000003254   -0.000004176    0.000005659
     10        1          -0.000027918   -0.000015997    0.000002370
     11        1          -0.000014940   -0.000033248   -0.000002164
     12        6           0.000442887    0.000040011   -0.000101779
     13        1          -0.000044309    0.000008387    0.000020071
     14        1          -0.000054909   -0.000040205    0.000023841
     15        1          -0.000080768   -0.000010251    0.000043703
 -------------------------------------------------------------------
 Cartesian Forces:  Max     0.000442887 RMS     0.000099281

 GradGradGradGradGradGradGradGradGradGradGradGradGradGradGradGradGradGrad
 Berny optimization.
 Using GEDIIS/GDIIS optimizer.
 FormGI is forming the generalized inverse of G from B-inverse, IUseBI=4.
 Internal  Forces:  Max     0.000262989 RMS     0.000043379
 Search for a local minimum.
 Step number   3 out of a maximum of   79
 All quantities printed in internal units (Hartrees-Bohrs-Radians)
 Mixed Optimization -- En-DIIS/RFO-DIIS
 Swapping is turned off.
 Update second derivatives using D2CorX and points    1    2    3
 DE= -1.71D-05 DEPred=-1.69D-05 R= 1.01D+00
 TightC=F SS=  1.41D+00  RLast= 1.00D-02 DXNew= 5.0454D-01 3.0028D-02
 Trust test= 1.01D+00 RLast= 1.00D-02 DXMaxT set to 3.00D-01
 ITU=  1  1  0
     Eigenvalues ---    0.00653   0.01455   0.02012   0.02033   0.02038
     Eigenvalues ---    0.02051   0.02055   0.02059   0.02060   0.02065
     Eigenvalues ---    0.06995   0.07150   0.15333   0.16000   0.16000
     Eigenvalues ---    0.16000   0.16000   0.16000   0.16000   0.16043
     Eigenvalues ---    0.21996   0.22001   0.22965   0.24973   0.32127
     Eigenvalues ---    0.33925   0.34122   0.34213   0.34941   0.34986
     Eigenvalues ---    0.35222   0.35247   0.35325   0.40930   0.41045
     Eigenvalues ---    0.44691   0.44995   0.45226   0.52255
 En-DIIS/RFO-DIIS/Sim-DIIS IScMMF=       -3 using points:     3    2
 RFO step:  Lambda=-5.78655678D-07.
 DidBck=F Rises=F RFO-DIIS coefs:    1.16422   -0.16422
 Iteration  1 RMS(Cart)=  0.00045983 RMS(Int)=  0.00000028
 Iteration  2 RMS(Cart)=  0.00000024 RMS(Int)=  0.00000015
 Variable       Old X    -DE/DX   Delta X   Delta X   Delta X     New X
                                 (Linear)    (Quad)   (Total)
    R1        2.62724   0.00003   0.00051  -0.00042   0.00010   2.62734
    R2        2.63042   0.00009   0.00055  -0.00031   0.00024   2.63066
    R3        2.82955  -0.00026   0.00029  -0.00114  -0.00085   2.82870
    R4        2.62004  -0.00001   0.00042  -0.00042   0.00001   2.62005
    R5        2.05518   0.00004   0.00014  -0.00001   0.00013   2.05531
    R6        2.61798   0.00004   0.00038  -0.00026   0.00011   2.61809
    R7        2.05216   0.00000   0.00013  -0.00011   0.00002   2.05217
    R8        2.62093   0.00008   0.00041  -0.00019   0.00021   2.62115
    R9        2.05138   0.00000   0.00013  -0.00011   0.00002   2.05141
   R10        2.61669  -0.00004   0.00040  -0.00047  -0.00007   2.61662
   R11        2.05218  -0.00000   0.00013  -0.00012   0.00001   2.05219
   R12        2.05571   0.00004   0.00014  -0.00002   0.00012   2.05583
   R13        2.06518   0.00002   0.00000   0.00004   0.00005   2.06523
   R14        2.06693   0.00004   0.00003   0.00008   0.00011   2.06704
   R15        2.07037   0.00007   0.00005   0.00017   0.00022   2.07060
    A1        2.06473  -0.00006  -0.00031   0.00002  -0.00029   2.06444
    A2        2.11399   0.00005   0.00022   0.00003   0.00025   2.11424
    A3        2.10436   0.00001   0.00009  -0.00004   0.00005   2.10441
    A4        2.11124   0.00004   0.00017   0.00000   0.00017   2.11141
    A5        2.08021  -0.00001  -0.00008   0.00006  -0.00002   2.08019
    A6        2.09173  -0.00003  -0.00009  -0.00007  -0.00015   2.09158
    A7        2.09695   0.00001   0.00002   0.00003   0.00005   2.09701
    A8        2.09102  -0.00004  -0.00005  -0.00023  -0.00028   2.09074
    A9        2.09521   0.00003   0.00002   0.00020   0.00023   2.09544
   A10        2.08514  -0.00003  -0.00006  -0.00007  -0.00013   2.08501
   A11        2.09922   0.00002   0.00003   0.00004   0.00007   2.09929
   A12        2.09882   0.00001   0.00003   0.00003   0.00006   2.09888
   A13        2.09685  -0.00000   0.00000  -0.00000  -0.00000   2.09685
   A14        2.09474   0.00003   0.00003   0.00018   0.00020   2.09494
   A15        2.09159  -0.00003  -0.00003  -0.00017  -0.00020   2.09139
   A16        2.11144   0.00004   0.00018   0.00002   0.00020   2.11164
   A17        2.07939  -0.00001  -0.00010   0.00003  -0.00006   2.07933
   A18        2.09235  -0.00003  -0.00009  -0.00005  -0.00014   2.09221
   A19        1.94547   0.00004   0.00040   0.00000   0.00041   1.94587
   A20        1.94328   0.00004   0.00028   0.00006   0.00034   1.94361
   A21        1.93880   0.00005   0.00018   0.00010   0.00029   1.93909
   A22        1.88938  -0.00002  -0.00011   0.00012   0.00000   1.88938
   A23        1.87566  -0.00006  -0.00033  -0.00013  -0.00046   1.87520
   A24        1.86795  -0.00007  -0.00048  -0.00016  -0.00064   1.86730
    D1       -0.00502  -0.00000   0.00000  -0.00012  -0.00012  -0.00514
    D2        3.13415  -0.00000  -0.00003  -0.00002  -0.00005   3.13410
    D3        3.12152   0.00000  -0.00006   0.00010   0.00004   3.12156
    D4       -0.02249   0.00000  -0.00009   0.00020   0.00011  -0.02238
    D5        0.00517   0.00000   0.00001   0.00011   0.00012   0.00529
    D6       -3.13392   0.00000   0.00003   0.00007   0.00010  -3.13383
    D7       -3.12146  -0.00000   0.00007  -0.00012  -0.00004  -3.12151
    D8        0.02263  -0.00000   0.00009  -0.00016  -0.00007   0.02257
    D9        0.33716  -0.00001   0.00013   0.00069   0.00082   0.33798
   D10        2.44896   0.00002   0.00045   0.00088   0.00134   2.45030
   D11       -1.75413   0.00000   0.00015   0.00079   0.00094  -1.75320
   D12       -2.81982  -0.00001   0.00006   0.00092   0.00098  -2.81884
   D13       -0.70802   0.00003   0.00038   0.00112   0.00150  -0.70652
   D14        1.37207   0.00000   0.00008   0.00102   0.00110   1.37317
   D15        0.00168   0.00000  -0.00002   0.00007   0.00006   0.00173
   D16        3.13936   0.00000  -0.00003   0.00016   0.00013   3.13949
   D17       -3.13748  -0.00000   0.00002  -0.00003  -0.00001  -3.13749
   D18        0.00020   0.00000  -0.00000   0.00006   0.00006   0.00026
   D19        0.00164   0.00000   0.00002  -0.00001   0.00001   0.00165
   D20        3.13877   0.00000   0.00001   0.00012   0.00013   3.13889
   D21       -3.13604  -0.00000   0.00003  -0.00009  -0.00006  -3.13610
   D22        0.00109   0.00000   0.00002   0.00003   0.00005   0.00115
   D23       -0.00149  -0.00000  -0.00001  -0.00001  -0.00002  -0.00151
   D24        3.13607   0.00000  -0.00002   0.00006   0.00004   3.13611
   D25       -3.13862  -0.00000   0.00000  -0.00013  -0.00013  -3.13875
   D26       -0.00106  -0.00000  -0.00000  -0.00006  -0.00007  -0.00113
   D27       -0.00197  -0.00000  -0.00001  -0.00004  -0.00005  -0.00202
   D28        3.13710  -0.00000  -0.00003  -0.00000  -0.00003   3.13707
   D29       -3.13954  -0.00000   0.00000  -0.00011  -0.00011  -3.13965
   D30       -0.00046  -0.00000  -0.00002  -0.00007  -0.00009  -0.00055
         Item               Value     Threshold  Converged?
 Maximum Force            0.000263     0.000450     YES
 RMS     Force            0.000043     0.000300     YES
 Maximum Displacement     0.001824     0.001800     NO 
 RMS     Displacement     0.000460     0.001200     YES
 Predicted change in Energy=-2.893367D-07
 GradGradGradGradGradGradGradGradGradGradGradGradGradGradGradGradGradGrad

                          Input orientation:                          
 ---------------------------------------------------------------------
 Center     Atomic      Atomic             Coordinates (Angstroms)
 Number     Number       Type             X           Y           Z
 ---------------------------------------------------------------------
      1          6           0       -0.908906    0.004855   -0.009019
      2          6           0       -0.192686    1.196506   -0.006959
      3          6           0        1.193756    1.195724    0.002206
      4          6           0        1.888908   -0.002677    0.007409
      5          6           0        1.186612   -1.198776    0.001383
      6          6           0       -0.197996   -1.192019   -0.007938
      7          1           0       -0.733272    2.140235   -0.014878
      8          1           0        1.733841    2.137862    0.001682
      9          1           0        2.974452   -0.005773    0.012056
     10          1           0        1.722183   -2.143500    0.000232
     11          1           0       -0.744436   -2.132679   -0.016902
     12          6           0       -2.405704    0.001385    0.006758
     13          1           0       -2.811748    0.962513   -0.318406
     14          1           0       -2.809204   -0.779086   -0.644793
     15          1           0       -2.789134   -0.193063    1.014604
[...]
 ! D26   D(9,4,5,10)            -0.0765         -DE/DX =    0.0                 !
 ! D27   D(4,5,6,1)             -0.1261         -DE/DX =    0.0                 !
 ! D28   D(4,5,6,11)           179.7105         -DE/DX =    0.0                 !
 ! D29   D(10,5,6,1)          -179.8609         -DE/DX =    0.0                 !
 ! D30   D(10,5,6,11)           -0.0243         -DE/DX =    0.0                 !
 --------------------------------------------------------------------------------
 GradGradGradGradGradGradGradGradGradGradGradGradGradGradGradGradGradGrad


 ----------------------------------------------------------------------

 Electric dipole moment (input orientation):
 (Debye = 10**-18 statcoulomb cm , SI units = C m)
                  (au)            (Debye)         (10**-30 SI)
   Tot        0.181321D+00      0.460872D+00      0.153730D+01
   x         -0.180663D+00     -0.459199D+00     -0.153172D+01
   y         -0.277082D-03     -0.704273D-03     -0.234920D-02
   z          0.154326D-01      0.392257D-01      0.130843D+00

 Dipole polarizability, Alpha (input orientation).
 (esu units = cm**3 , SI units = C**2 m**2 J**-1)
 Alpha(0;0):
               (au)            (10**-24 esu)      (10**-40 SI)
   iso        0.941133D+02      0.139462D+02      0.155172D+02
   aniso      0.682827D+02      0.101185D+02      0.112583D+02
   xx         0.123314D+03      0.182732D+02      0.203317D+02
   yx        -0.419745D-02     -0.621998D-03     -0.692066D-03
   yy         0.109728D+03      0.162600D+02      0.180917D+02
   zx        -0.192406D+00     -0.285117D-01     -0.317235D-01
   zy         0.130208D+01      0.192949D+00      0.214685D+00
   zz         0.492981D+02      0.730523D+01      0.812816D+01

 ----------------------------------------------------------------------

 Dipole orientation:
     6         -0.16717449          0.00354701          1.70974697
     6         -0.00305572          2.25621290          0.36428626
     6          0.24100640          2.25461121         -2.24262135
     6          0.32055315         -0.01096771         -3.55519627
     6          0.14985372         -2.26919072         -2.23858427
     6         -0.09398528         -2.25631509          0.36827756
     1         -0.07345357          4.03953696          1.38410766
     1          0.36175199          4.03456905         -3.25680316
     1          0.50586361         -0.01650717         -5.59818100
     1          0.19876627         -4.05437616         -3.24958045
     1         -0.23614103         -4.03354300          1.39127233
     6         -0.37362543          0.01002365          4.53063386
     1         -1.33331977          1.70726380          5.21385603
     1         -1.40922037         -1.64116907          5.21593465
     1          1.49848826         -0.03199015          5.41504711

 Electric dipole moment (dipole orientation):
 (Debye = 10**-18 statcoulomb cm , SI units = C m)
                  (au)            (Debye)         (10**-30 SI)
   Tot        0.181321D+00      0.460872D+00      0.153730D+01
   x          0.000000D+00      0.000000D+00      0.000000D+00
   y          0.000000D+00      0.000000D+00      0.000000D+00
   z          0.181321D+00      0.460872D+00      0.153730D+01

 Dipole polarizability, Alpha (dipole orientation).
 (esu units = cm**3 , SI units = C**2 m**2 J**-1)
 Alpha(0;0):
               (au)            (10**-24 esu)      (10**-40 SI)
   iso        0.941133D+02      0.139462D+02      0.155172D+02
   aniso      0.682827D+02      0.101185D+02      0.112583D+02
   xx         0.497982D+02      0.737933D+01      0.821061D+01
   yx         0.120361D+01      0.178356D+00      0.198448D+00
   yy         0.109732D+03      0.162606D+02      0.180923D+02
   zx        -0.608930D+01     -0.902341D+00     -0.100399D+01
   zy         0.126452D+00      0.187382D-01      0.208491D-01
   zz         0.122810D+03      0.181986D+02      0.202486D+02

 ----------------------------------------------------------------------
 Unable to Open any file for archive entry.
 1\1\GINC-MASTIFF\Freq\RM06\6-311G(2d,p)\C7H8\MVANVLEET\24-May-2022\0\\
 #N Geom=AllCheck Guess=TCheck SCRF=Check GenChk RM06/6-311G(2d,p) Freq
 \\M06 PhMe; 6-311g(d,p) basis set\\0,1\C,-0.9090073027,0.0006185354,-0
 .0111353002\C,-0.1938851803,1.1936415696,0.016620511\C,1.1916174343,1.
 1947208503,0.0278894698\C,1.8889460396,-0.0031669525,0.0088815968\C,1.
 1887423186,-1.1991024648,-0.0236477208\C,-0.196734484,-1.1942159769,-0
 .0347919862\H,-0.7360874645,2.136561579,0.026876832\H,1.7304680782,2.1
 373624138,0.047314775\H,2.9744734239,-0.004583835,0.0145688258\H,1.725
 3251221,-2.1429986594,-0.0448363308\H,-0.7411981637,-2.1354041584,-0.0
 651067984\C,-2.4056414669,0.0019179936,0.0070678794\H,-2.8103599487,0.
 9002169747,-0.4667928646\H,-2.8123882271,-0.8716389054,-0.5094260381\H
 ,-2.7876021789,-0.0224199639,1.0339511493\\Version=ES64L-G16RevC.01\St
 ate=1-A\HF=-271.4132668\RMSD=4.434e-09\RMSF=1.711e-06\ZeroPoint=0.1265
 948\Thermal=0.1328424\ETot=-271.2804244\HTot=-271.2794802\GTot=-271.31
 72777\Dipole=-0.1806629,-0.0002771,0.0154326\DipoleDeriv=0.4955497,0.0
 00289,-0.0336977,0.0018943,-0.0779938,-0.0006126,-0.1015278,-0.0005622
 ,-0.0475924,-0.1750498,-0.0560353,0.0045227,-0.1702109,0.0802145,0.007
 2106,0.0037264,0.0064253,-0.1520785,0.0321174,0.030439,-0.0002493,0.07
 0821,0.1156285,0.0003491,0.0077385,0.0015032,-0.1322757,0.0623747,-0.0
 003486,0.0052159,-0.0002215,-0.1358325,0.0004052,0.0047769,0.0004068,-
 0.154889,0.0317148,-0.0301639,-0.001544,-0.0709459,0.1154953,0.0103209
 ,0.0047004,0.0091512,-0.1319426,-0.1744861,0.0563416,0.0069409,0.17050
 02,0.0799646,0.0027709,0.0110606,0.003568,-0.1522228,0.0143248,0.11061
 78,-0.0001121,0.095978,-0.0814169,-0.0035903,-0.0038998,-0.0004972,0.1
 352101,0.0187353,-0.0934847,-0.0030181,-0.1018014,-0.0859755,-0.00449,
 -0.005174,-0.0018926,0.1341672,-0.1526913,0.0003119,-0.0018118,0.00032
 65,0.0788488,-0.0013405,-0.0023746,-0.0013398,0.1411753,0.0192035,0.09
 32808,0.0010018,0.1016812,-0.0863095,-0.0049948,-0.0007996,-0.0075874,
 0.1340333,0.0138755,-0.1107151,-0.0048763,-0.0959968,-0.0807668,-0.005
 7134,-0.0080485,-0.0087986,0.1349565,-0.0523816,-0.0001439,0.0098461,-
 0.0040138,0.1181989,0.0003779,0.150008,0.0002367,0.0994177,-0.0223888,
 0.015307,-0.0121321,0.0989467,-0.0770304,0.0846151,-0.077052,0.0825268
 ,0.050357,-0.0229987,-0.0149182,-0.013139,-0.0949567,-0.0682737,-0.090
 2429,-0.0819171,-0.0880001,0.0421215,-0.0878995,-0.0007774,0.0430528,-
 0.002001,0.1052484,0.0049348,0.0987827,0.0048599,-0.1004378\Polar=123.
 3138453,-0.0041975,109.7279508,-0.1924065,1.3020831,49.2981256\Quadrup
 ole=2.1388056,1.6609664,-3.7997721,0.0005359,-0.0288485,0.1176626\PG=C
 01 [X(C7H8)]\NImag=0\\0.65237878,0.00009326,0.66691711,-0.00147009,0.0
 1062818,0.17357457,-0.17384053,-0.04770984,-0.00128858,0.69208476,-0.1
 1987674,-0.27113058,-0.00466608,-0.02985465,0.69832623,-0.00297381,-0.
 00267591,-0.06768917,0.00315322,0.00884842,0.13205427,-0.02723102,-0.0
 8262030,-0.00216916,-0.34033538,0.03438677,-0.00080382,0.68042482,-0.0
 2963251,0.03828370,0.00121560,-0.03485546,-0.12635708,-0.00180999,0.02
 831441,0.71406077,-0.00041523,-0.00011319,0.00683636,-0.00264089,-0.00
 094302,-0.06158742,0.00429805,0.01076532,0.13370381,0.00327230,-0.0000
 8327,-0.00046049,-0.02811002,0.02899019,0.00028436,-0.17961566,0.12661
 096,0.00187363,0.73345639,-0.00009180,-0.07681445,-0.00149401,0.082047
 68,0.03572924,0.00190185,0.05690188,-0.28382756,-0.00380220,-0.0001815
 5,0.66045930,0.00034462,-0.00149436,-0.00744941,0.00128506,0.00064685,
 0.00871497,0.00061204,-0.00358409,-0.06244289,0.00392601,0.01142155,0.
 12996491,-0.02698314,0.08279073,0.00139162,-0.05517744,-0.03063392,-0.
 00162488,0.06812034,-0.02688322,-0.00026450,-0.18004419,-0.05711139,-0
 .00184520,0.68031013,0.02976977,0.03801380,0.00013438,-0.03265265,-0.0
 1844086,-0.00080268,0.02656157,-0.06033719,-0.00121267,-0.12680977,-0.
 28327189,-0.00593723,-0.02840643,0.71402817,0.00086556,0.00146165,0.00
 684878,-0.00113318,-0.00053352,-0.00756112,0.00088581,-0.00176413,0.00
 874461,-0.00358461,-0.00571831,-0.06253366,0.00308239,0.01422223,0.133
 85138,-0.17340467,0.04747701,0.00076111,0.06628509,0.02457710,0.001818
 06,-0.05502067,0.03275704,0.00027593,-0.02837830,-0.08186895,-0.002244
 29,-0.34037849,0.03544965,-0.00112934,0.69227226,0.11962283,-0.2714466
 6,-0.00410242,-0.02493951,-0.05835889,-0.00209255,0.03076924,-0.018633
 21,0.00006070,-0.02882098,0.03605830,0.00052662,-0.03380933,-0.1263599
 8,-0.00184294,0.02971111,0.69785474,0.00217780,-0.00609345,-0.06776493
 ,0.00075365,-0.00084664,0.00980380,-0.00030178,0.00033142,-0.00752100,
 -0.00096343,-0.00072922,0.00865555,-0.00227233,-0.00097650,-0.06158081
 ,0.00444563,0.01552269,0.13234275,0.00924783,-0.01300731,-0.00029987,-
 0.12309724,0.11567459,0.00091309,-0.01058108,0.02833218,0.00052741,-0.
 00519469,-0.00126784,-0.00012733,-0.00083010,-0.00069706,-0.00000867,-
 0.00069489,-0.00326774,-0.00015954,0.12867411,0.01597461,-0.01940133,-
 0.00019110,0.11510513,-0.25914126,-0.00253650,-0.00201253,0.00312615,-
 0.00005957,-0.00041368,0.00198058,-0.00004682,-0.00096491,0.00001568,0
 .00000155,-0.00382364,-0.00305601,-0.00015156,-0.12530247,0.27567461,-
 0.00044003,-0.00049725,0.00369953,0.00104815,-0.00223612,-0.03561446,-
 0.00005797,0.00024100,0.00265520,-0.00013289,-0.00006612,0.00723989,-0
 .00009339,-0.00002484,-0.00062120,-0.00001042,-0.00039461,0.00636794,-
 0.00097533,0.00291157,0.02474340,-0.00510024,0.00121579,0.00004133,-0.
 01027326,-0.02845741,-0.00053508,-0.12475019,-0.11722823,-0.00268581,0
 .01130982,0.01436499,0.00030611,-0.00058739,0.00313505,0.00003064,-0.0
 0093553,0.00086400,-0.00000858,0.00138601,0.00035052,0.00003351,0.1284
 5813,0.00068961,0.00194644,-0.00013130,0.00193168,0.00302092,0.0000016
 5,-0.11727587,-0.26279128,-0.00458274,-0.01598777,-0.01821341,-0.00044
 854,0.00390203,-0.00297362,-0.00016384,0.00078447,0.00015734,0.0000383
 4,-0.00032610,0.00056341,0.00007558,0.12719807,0.27822827,-0.00027304,
 -0.00026019,0.00750051,-0.00000193,-0.00010350,0.00300406,-0.00268536,
 -0.00444024,-0.03620127,-0.00021498,-0.00041084,0.00311303,0.00009004,
 -0.00014361,0.00706100,-0.00006126,0.00005666,-0.00069703,0.00004798,0
 .00005705,-0.00402793,0.00288326,0.00511704,0.02522407,0.00054745,-0.0
 0000215,-0.00000362,0.00070461,0.00298798,0.00001750,-0.01151166,-0.00
 287531,-0.00010998,-0.33071603,0.00036085,-0.00161434,-0.01157023,0.00
 291598,0.00001437,0.00069209,-0.00299750,-0.00011141,-0.00069541,-0.00
 014792,-0.00001761,0.00074488,-0.00003557,0.00002568,0.35184453,0.0000
 0061,-0.00144708,-0.00001212,0.00214782,-0.00414610,-0.00020711,0.0276
 9149,0.00443765,0.00017937,0.00035819,-0.05727136,-0.00048683,-0.02764
 482,0.00450732,-0.00009396,-0.00215964,-0.00412896,-0.00027687,0.00132
 731,-0.00000575,0.00001853,-0.00076717,0.00122247,0.00009070,-0.000391
 79,0.05533706,-0.00012088,-0.00001199,-0.00088448,0.00004500,-0.000170
 05,0.00710387,0.00042322,0.00014049,0.00249818,-0.00152229,-0.00048688
 ,-0.03457981,-0.00076835,-0.00005487,0.00248719,-0.00004791,-0.0003140
 4,0.00709686,-0.00001663,0.00000486,0.00028278,0.00000968,0.00008870,-
 0.00394933,0.00175964,0.00065950,0.02462037,-0.00510462,-0.00120004,-0
 .00001071,-0.00093970,-0.00086019,-0.00004576,-0.00060437,-0.00313913,
 -0.00010455,0.01131353,-0.01443523,-0.00031396,-0.12418645,0.11690106,
 0.00235385,-0.01021098,0.02848590,0.00069085,0.00005131,0.00012304,0.0
 0000919,0.00035030,-0.00075165,-0.00000837,0.00074664,0.00076733,0.000
 04277,0.12784802,-0.00066050,0.00194384,-0.00010829,-0.00077849,0.0001
 6396,-0.00000127,-0.00390797,-0.00295134,-0.00026769,0.01591125,-0.018
 21372,-0.00047008,0.11695000,-0.26332326,-0.00518837,-0.00189806,0.002
 95280,-0.00000266,0.00012650,-0.00005963,0.00003434,0.00074797,-0.0010
 3257,-0.00000871,0.00003551,0.00121869,0.00013388,-0.12684319,0.278809
 91,-0.00030178,0.00002122,0.00751089,-0.00009500,-0.00001954,-0.000698
 97,-0.00007827,-0.00028804,0.00705395,0.00047169,-0.00050814,0.0031095
 7,0.00235603,-0.00533083,-0.03623439,-0.00008425,0.00010269,0.00300814
 ,0.00001039,0.00001187,-0.00120239,0.00002388,-0.00004434,0.00019828,0
 .00002725,0.00013188,-0.00394624,-0.00258497,0.00579311,0.02525361,0.0
 0925270,0.01294378,0.00025771,-0.00067910,0.00326551,-0.00001930,-0.00
 082596,0.00069880,0.00002151,-0.00519080,0.00128947,-0.00007258,-0.010
 64455,-0.02829732,-0.00069183,-0.12365254,-0.11592077,-0.00407888,0.00
 048916,0.00072619,0.00006233,0.00005083,-0.00012707,0.00000497,-0.0006
 9820,-0.00132377,-0.00007375,0.00138613,0.00032171,0.00006217,0.129265
 77,-0.01601085,-0.01937976,-0.00080347,0.00381487,-0.00307819,-0.00025
 495,0.00096963,0.00000970,0.00002568,0.00043570,0.00198106,-0.00017959
 ,0.00204673,0.00319521,0.00008175,-0.11536528,-0.25837379,-0.00706931,
 -0.00073163,-0.00109485,-0.00000662,-0.00012363,-0.00005919,0.00003740
 ,0.00015011,-0.00000147,-0.00001705,-0.00035346,0.00056091,0.00014057,
 0.12557630,0.27485678,-0.00112932,-0.00049596,0.00368521,0.00015469,-0
 .00001209,0.00637516,-0.00005184,0.00005235,-0.00061917,-0.00011469,-0
 .00016029,0.00723707,0.00002909,-0.00021897,0.00265014,-0.00392117,-0.
 00737069,-0.03582709,0.00003083,-0.00004989,0.00021406,0.00000386,0.00
 001488,-0.00120265,-0.00001126,-0.00003080,0.00028087,0.00001845,0.000
 12207,-0.00402653,0.00443397,0.00787323,0.02495838,-0.22391449,0.00009
 068,0.00226658,-0.02295304,-0.00480004,-0.00001422,0.00248539,-0.00131
 858,-0.00053748,-0.00141222,-0.00000856,-0.00017264,0.00251968,0.00133
 747,-0.00048290,-0.02290083,0.00487045,0.00019131,0.00118316,0.0015340
 9,0.00054140,-0.00011681,0.00016510,0.00013867,0.00002419,-0.00000425,
 0.00020360,-0.00011392,-0.00017051,0.00013160,0.00117775,-0.00155141,0
 .00047670,0.49280575,0.00024362,-0.08752182,-0.00039673,-0.02982941,0.
 00287427,0.00110112,-0.00174751,-0.00436623,0.00086252,-0.00003118,-0.
 00054772,0.00001116,0.00179324,-0.00435771,-0.00134431,0.02992127,0.00
 288736,-0.00118135,-0.00094719,0.00107742,-0.00064878,-0.00129465,-0.0
 0004858,-0.00007462,0.00000033,0.00019090,0.00002402,0.00130128,-0.000
 05260,0.00006930,0.00093442,0.00106410,0.00084540,-0.00015535,0.573022
 64,-0.00250924,-0.00038933,-0.06928278,-0.00110919,0.00061949,0.004765
 20,-0.00113380,-0.00073776,0.00686958,0.00104894,0.00001122,-0.0010697
 8,-0.00105844,0.00025604,0.00682439,0.00017725,-0.00069817,0.00467143,
 0.00014734,0.00043833,-0.00352559,-0.00014643,0.00002955,0.00006988,-0
 .00000508,0.00002416,-0.00093158,-0.00009060,-0.00003449,0.00007151,0.
 00018569,-0.00024074,-0.00349551,0.00887221,0.00097902,0.52684827,-0.0
 1235398,0.02793084,-0.01388918,0.00192307,0.00157329,0.00065089,-0.000
 07854,0.00018431,0.00033871,-0.00010804,-0.00018020,-0.00013848,-0.000
 12278,0.00126043,0.00091720,-0.00540238,-0.00171373,-0.00047000,-0.000
 02693,-0.00089109,-0.00031348,0.00002865,-0.00003354,0.00000169,-0.000
 02881,-0.00007080,-0.00005336,-0.00043967,0.00004965,0.00004239,0.0000
 1418,-0.00000818,-0.00026820,-0.07870322,0.07574241,-0.04239770,0.0885
 0206,0.00013693,0.00000692,-0.00158317,-0.00189838,0.00038337,-0.00041
 957,0.00059419,0.00013508,-0.00054659,-0.00016543,0.00034371,-0.000059
 53,-0.00017109,-0.00018319,-0.00003888,0.00061089,0.00056334,0.0005513
 7,0.00001235,0.00011315,0.00045789,0.00007346,0.00001096,0.00003907,0.
 00004364,0.00003190,0.00015280,0.00007580,-0.00001160,0.00000526,-0.00
 012102,0.00030143,0.00006803,0.07787581,-0.22582031,0.09557771,-0.0855
 2186,0.24150984,0.00244444,-0.00248837,-0.00012539,0.00022878,0.000096
 18,0.00051652,-0.00027518,0.00010288,-0.00009332,-0.00019083,-0.000502
 59,0.00000556,0.00083341,0.00014679,0.00009189,-0.00004169,-0.00001787
 ,0.00061711,-0.00027382,-0.00023000,-0.00002269,-0.00002597,-0.0000068
 2,-0.00003583,-0.00000016,-0.00001288,0.00000603,0.00002382,0.00000111
 ,-0.00008024,0.00006654,0.00013965,0.00001110,-0.04392079,0.09592952,-
 0.09415760,0.04529189,-0.10510164,0.09814491,-0.01243676,-0.02720283,-
 0.01520348,-0.00537913,0.00174793,-0.00039831,-0.00012969,-0.00129142,
 0.00086979,-0.00010961,0.00018385,-0.00013148,-0.00007907,-0.00020034,
 0.00033618,0.00192104,-0.00159742,0.00058807,0.00001456,0.00001969,-0.
 00027063,-0.00043898,-0.00005057,0.00004053,-0.00002888,0.00007289,-0.
 00005125,0.00002834,0.00003368,0.00000280,-0.00002182,0.00089897,-0.00
 027842,-0.07902530,-0.07394291,-0.04624077,0.00354768,0.00887814,0.006
 69722,0.08886666,-0.00023537,-0.00011144,0.00162340,-0.00060024,0.0005
 8029,-0.00055145,0.00013342,-0.00017674,0.00002792,0.00017778,0.000321
 43,0.00007377,-0.00058868,0.00011458,0.00055697,0.00188401,0.00036232,
 0.00041212,0.00011773,0.00031076,-0.00005694,-0.00007570,-0.00001120,-
 0.00000280,-0.00004335,0.00003780,-0.00015234,-0.00007211,0.00001218,-
 0.00003724,-0.00000218,0.00011764,-0.00045307,-0.07597546,-0.21594953,
 -0.10133631,-0.00923808,-0.01757680,-0.01276561,0.08357834,0.23067294,
 0.00244758,0.00248973,0.00007928,-0.00006617,0.00001943,0.00058271,0.0
 0084034,-0.00015995,0.00008149,-0.00018220,0.00051759,0.00003028,-0.00
 030271,-0.00009316,-0.00007172,0.00031175,-0.00010427,0.00053711,0.000
 07133,-0.00012679,0.00000567,0.00002049,0.00000180,-0.00007910,-0.0000
 0207,0.00001435,-0.00000011,-0.00002932,0.00000898,-0.00003670,-0.0002
 7536,0.00023755,-0.00003703,-0.04784955,-0.10168371,-0.10362903,0.0062
 8951,0.01156173,0.00712270,0.04960459,0.11136736,0.10855286,-0.0143296
 2,-0.00071635,0.03007684,-0.00021270,0.00127959,-0.00042193,-0.0003463
 3,0.00032616,-0.00144658,-0.00047250,-0.00000318,0.00018645,-0.0003463
 2,-0.00026739,-0.00145546,-0.00019117,-0.00125654,-0.00048137,0.000074
 19,-0.00027703,0.00061717,-0.00012622,-0.00008281,0.00001212,-0.000055
 17,-0.00000340,0.00017052,-0.00012456,0.00008245,0.00001608,0.00007643
 ,0.00025213,0.00062731,-0.07105610,-0.00198837,0.08425981,0.00324871,-
 0.00042344,-0.01085766,0.00327098,0.00093990,-0.01087821,0.08059037,-0
 .00002347,0.00014132,-0.00011284,-0.00192855,-0.00042532,-0.00050106,0
 .00124159,-0.00061241,-0.00039384,0.00000955,0.00128649,0.00002714,-0.
 00126893,-0.00062705,0.00036413,0.00194301,-0.00047871,0.00047161,-0.0
 0004331,-0.00010292,0.00019235,-0.00000306,-0.00001996,0.00004657,-0.0
 0000080,0.00001691,0.00000297,0.00000061,-0.00001757,-0.00004777,0.000
 03593,-0.00009959,-0.00018421,-0.00188943,-0.04245220,0.00550129,-0.00
 908344,0.00019221,0.02470966,0.00887200,0.00129576,-0.02405065,0.00213
 829,0.04190303,0.00135343,-0.00008076,0.00346103,-0.00033361,-0.000699
 80,0.00023059,0.00049771,-0.00006488,0.00002188,-0.00023820,0.00002638
 ,0.00000470,0.00044720,0.00003594,0.00004352,-0.00024941,0.00066821,0.
 00029016,0.00011283,-0.00003302,-0.00019421,0.00004911,0.00001006,0.00
 002231,0.00003109,0.00000207,-0.00008459,0.00004932,-0.00001192,0.0000
 1951,0.00011681,0.00003591,-0.00020401,0.08015554,0.00550743,-0.274028
 38,0.00399813,-0.00066449,-0.01200074,0.00443515,0.00129423,-0.0131384
 0,-0.09042509,-0.00602535,0.29555663\\-0.00000106,-0.00000398,0.000000
 89,0.00000262,0.00000191,0.00000001,-0.00000349,0.00000140,-0.00000139
 ,0.00000037,-0.00000427,-0.00000094,0.00000331,0.00000244,-0.00000134,
 -0.00000305,0.00000206,0.00000027,-0.00000012,-0.00000069,0.00000032,0
 .00000012,-0.00000040,-0.00000125,-0.00000065,0.00000082,-0.00000192,-
 0.00000111,0.00000019,-0.00000117,0.00000075,0.00000007,0.00000044,0.0
 0000359,0.00000060,0.00000057,-0.00000063,0.00000024,0.00000164,-0.000
 00088,-0.00000030,0.00000159,0.00000023,-0.00000008,0.00000227\\\@
 The archive entry for this job was punched.


 Any fool can criticize, condemn, and complain -- and most do.
 -- Dale Carnegie
 Job cpu time:       0 days  0 hours 26 minutes 40.5 seconds.
 Elapsed time:       0 days  0 hours  2 minutes 17.4 seconds.
 File lengths (MBytes):  RWF=     89 Int=      0 D2E=      0 Chk=     10 Scr=      1
 Normal termination of Gaussian 16 at Tue May 24 14:53:29 2022.
