 Entering Gaussian System, Link 0=/cm/shared/apps//g16/g16
 Input=TS_Me-NCNPtPh_NCNPtPhMe.com
 Output=TS_Me-NCNPtPh_NCNPtPhMe.log
 Initial command:
 /cm/shared/apps//g16/l1.exe "/var/tmp/pbs.112.josephine/Gau-1203529.inp" -scrdir="/var/tmp/pbs.112.josephine/"
 Entering Link 1 = /cm/shared/apps//g16/l1.exe PID=   1203531.
  
 Copyright (c) 1988-2019, Gaussian, Inc.  All Rights Reserved.
  
 This is part of the Gaussian(R) 16 program.  It is based on
 the Gaussian(R) 09 system (copyright 2009, Gaussian, Inc.),
 the Gaussian(R) 03 system (copyright 2003, Gaussian, Inc.),
 the Gaussian(R) 98 system (copyright 1998, Gaussian, Inc.),
 the Gaussian(R) 94 system (copyright 1995, Gaussian, Inc.),
 the Gaussian 92(TM) system (copyright 1992, Gaussian, Inc.),
 the Gaussian 90(TM) system (copyright 1990, Gaussian, Inc.),
 the Gaussian 88(TM) system (copyright 1988, Gaussian, Inc.),
 the Gaussian 86(TM) system (copyright 1986, Carnegie Mellon
 University), and the Gaussian 82(TM) system (copyright 1983,
 Carnegie Mellon University). Gaussian is a federally registered
 trademark of Gaussian, Inc.
  
 This software contains proprietary and confidential information,
 including trade secrets, belonging to Gaussian, Inc.
  
 This software is provided under written license and may be
 used, copied, transmitted, or stored only in accord with that
 written license.
  
 The following legend is applicable only to US Government
 contracts under FAR:
  
                    RESTRICTED RIGHTS LEGEND
  
 Use, reproduction and disclosure by the US Government is
 subject to restrictions as set forth in subparagraphs (a)
 and (c) of the Commercial Computer Software - Restricted
 Rights clause in FAR 52.227-19.
  
 Gaussian, Inc.
 340 Quinnipiac St., Bldg. 40, Wallingford CT 06492
  
  
 ---------------------------------------------------------------
 Warning -- This program may not be used in any manner that
 competes with the business of Gaussian, Inc. or will provide
 assistance to any competitor of Gaussian, Inc.  The licensee
 of this program is prohibited from giving any competitor of
 Gaussian, Inc. access to this program.  By using this program,
 the user acknowledges that Gaussian, Inc. is engaged in the
 business of creating and licensing software in the field of
 computational chemistry and represents and warrants to the
 licensee that it is not a competitor of Gaussian, Inc. and that
 it will not use this program in any manner prohibited above.
 ---------------------------------------------------------------
  

 Cite this work as:
 Gaussian 16, Revision C.01,
 M. J. Frisch, G. W. Trucks, H. B. Schlegel, G. E. Scuseria, 
 M. A. Robb, J. R. Cheeseman, G. Scalmani, V. Barone, 
 G. A. Petersson, H. Nakatsuji, X. Li, M. Caricato, A. V. Marenich, 
 J. Bloino, B. G. Janesko, R. Gomperts, B. Mennucci, H. P. Hratchian, 
 J. V. Ortiz, A. F. Izmaylov, J. L. Sonnenberg, D. Williams-Young, 
 F. Ding, F. Lipparini, F. Egidi, J. Goings, B. Peng, A. Petrone, 
 T. Henderson, D. Ranasinghe, V. G. Zakrzewski, J. Gao, N. Rega, 
 G. Zheng, W. Liang, M. Hada, M. Ehara, K. Toyota, R. Fukuda, 
 J. Hasegawa, M. Ishida, T. Nakajima, Y. Honda, O. Kitao, H. Nakai, 
 T. Vreven, K. Throssell, J. A. Montgomery, Jr., J. E. Peralta, 
 F. Ogliaro, M. J. Bearpark, J. J. Heyd, E. N. Brothers, K. N. Kudin, 
 V. N. Staroverov, T. A. Keith, R. Kobayashi, J. Normand, 
 K. Raghavachari, A. P. Rendell, J. C. Burant, S. S. Iyengar, 
 J. Tomasi, M. Cossi, J. M. Millam, M. Klene, C. Adamo, R. Cammi, 
 J. W. Ochterski, R. L. Martin, K. Morokuma, O. Farkas, 
 J. B. Foresman, and D. J. Fox, Gaussian, Inc., Wallingford CT, 2019.
 
 ******************************************
 Gaussian 16:  ES64L-G16RevC.01  3-Jul-2019
                 8-Jun-2022 
 ******************************************
 %nprocshared=48
 Will use up to   48 processors via shared memory.
 %mem=512MW
 %chk=TS_Me-NCNPtPh_NCNPtPhMe.chk
 ----------------------------------------------------------------------
 # freq gen scrf=(iefpcm,solvent=thf) m06 EmpiricalDispersion=GD3 Pseud
 o=Read
 ----------------------------------------------------------------------
 1/10=4,30=1,38=1/1,3;
 2/12=2,17=6,18=5,40=1/2;
 3/5=7,11=2,16=1,17=8,25=1,30=1,70=2201,71=2,72=20,74=-54,124=31,140=1/1,2,3;
 4//1;
 5/5=2,38=5,53=20,98=1/2;
 8/6=4,10=90,11=11/1;
 11/6=1,8=1,9=11,15=111,16=1/1,2,10;
 10/6=1/2;
 6/7=2,8=2,9=2,10=2,28=1/1;
 7/8=1,10=1,25=1/1,2,3,16;
 1/10=4,30=1/3;
 99//99;
 ----------------------------------------------------------------------
 M06 TS between (NCN)PtPhMe and Me-NCNPtPh; Custom Lanl2tz(f)+6-311g(d,
 p) basis set
 ----------------------------------------------------------------------
 Symbolic Z-matrix:
 Charge =  1 Multiplicity = 1
 Pt                   -0.04445   0.03974  -0.39592 
 C                     1.26694  -1.48951  -0.2446 
 C                     0.6958   -2.67809   0.16929 
 C                     2.55884  -1.09703   0.05911 
 C                     1.48752  -3.54283   0.91094 
 C                     3.33575  -1.97169   0.80245 
 C                     2.80139  -3.1924    1.20611 
 H                     1.07789  -4.48061   1.27665 
 H                     4.34926  -1.69839   1.08462 
 H                     3.41359  -3.8725    1.78835 
 N                     1.76922   1.21986  -0.1817 
 N                    -1.50234  -1.56131  -0.07393 
 C                     0.72421  -0.98124  -2.16019 
 H                     0.36094  -1.98114  -2.38105 
 H                     1.76891  -0.90213  -2.44789 
 H                     0.14086  -0.24928  -2.7426 
 C                    -0.74018  -2.85953  -0.20726 
 H                    -0.81419  -3.18009  -1.25114 
 H                    -1.22656  -3.6366    0.38828 
 C                     2.92047   0.27328  -0.4165 
 H                     3.10989   0.26784  -1.4953 
 H                     3.82962   0.6528    0.0526 
 C                     1.77652   2.3439   -1.16719 
 C                     2.97401   3.266    -1.15245 
 H                     0.85767   2.90919  -0.98691 
 H                     1.6755    1.87578  -2.15218 
 H                     2.89243   3.94142  -2.00741 
 H                     3.00952   3.88513  -0.25411 
 H                     3.92192   2.73012  -1.25112 
 C                     1.75981   1.69845   1.24966 
 C                     3.09057   2.01516   1.90038 
 H                     1.27419   0.91746   1.84259 
 H                     1.09607   2.56572   1.26704 
 H                     2.87683   2.48652   2.86293 
 H                     3.67167   1.11364   2.11116 
 H                     3.713     2.70403   1.32874 
 C                    -1.95551  -1.40168   1.35078 
 C                    -2.99977  -2.36137   1.87801 
 H                    -2.32879  -0.38135   1.44257 
 H                    -1.04485  -1.46457   1.95733 
 H                    -3.07725  -2.19802   2.95591 
 H                    -3.98689  -2.17084   1.45372 
 H                    -2.75036  -3.41503   1.73128 
 C                    -2.6305   -1.4614   -1.05808 
 C                    -3.4761   -2.69657  -1.29082 
 H                    -2.18184  -1.16158  -2.01057 
 H                    -3.24285  -0.61885  -0.72126 
 H                    -4.23663  -2.44179  -2.03302 
 H                    -2.89526  -3.52485  -1.70306 
 H                    -3.99269  -3.0509   -0.4 
 C                    -1.30443   1.57823   0.23927 
 C                    -1.96115   2.27148  -0.78194 
 C                    -1.55096   1.98249   1.55036 
 C                    -2.8279    3.32046  -0.50491 
 H                    -1.79501   1.98901  -1.82243 
 C                    -2.41479   3.03203   1.83354 
 H                    -1.06439   1.47287   2.38111 
 C                    -3.05703   3.7051    0.80645 
 H                    -3.32517   3.83816  -1.32049 
 H                    -2.58591   3.32447   2.86578 
 H                    -3.73324   4.52517   1.02695 
 

 GradGradGradGradGradGradGradGradGradGradGradGradGradGradGradGradGradGrad
 Berny optimization.
 Initialization pass.
 Trust Radius=3.00D-01 FncErr=1.00D-07 GrdErr=1.00D-07 EigMax=2.50D+02 EigMin=1.00D-04
 Number of steps in this run=      2 maximum allowed number of steps=      2.
 GradGradGradGradGradGradGradGradGradGradGradGradGradGradGradGradGradGrad

 Stoichiometry    C23H35N2Pt(1+)
 Framework group  C1[X(C23H35N2Pt)]
 Deg. of freedom   177
 Full point group                 C1      NOp   1
 Largest Abelian subgroup         C1      NOp   1
 Largest concise Abelian subgroup C1      NOp   1
                         Standard orientation:                         
 ---------------------------------------------------------------------
 Center     Atomic      Atomic             Coordinates (Angstroms)
 Number     Number       Type             X           Y           Z
 ---------------------------------------------------------------------
      1         78           0       -0.044451    0.039741   -0.395923
      2          6           0        1.266934   -1.489509   -0.244600
      3          6           0        0.695789   -2.678087    0.169288
      4          6           0        2.558835   -1.097035    0.059107
      5          6           0        1.487514   -3.542830    0.910942
      6          6           0        3.335746   -1.971701    0.802446
      7          6           0        2.801385   -3.192405    1.206106
      8          1           0        1.077876   -4.480615    1.276650
      9          1           0        4.349259   -1.698400    1.084624
     10          1           0        3.413576   -3.872505    1.788351
     11          7           0        1.769224    1.219855   -0.181697
     12          7           0       -1.502348   -1.561304   -0.073929
     13          6           0        0.724208   -0.981242   -2.160190
     14          1           0        0.360930   -1.981140   -2.381055
     15          1           0        1.768909   -0.902136   -2.447887
     16          1           0        0.140857   -0.249280   -2.742601
     17          6           0       -0.740190   -2.859524   -0.207261
     18          1           0       -0.814197   -3.180090   -1.251142
     19          1           0       -1.226564   -3.636593    0.388280
     20          6           0        2.920474    0.273273   -0.416503
     21          1           0        3.109890    0.267834   -1.495296
     22          1           0        3.829619    0.652786    0.052601
     23          6           0        1.776528    2.343894   -1.167186
     24          6           0        2.974023    3.265990   -1.152448
     25          1           0        0.857676    2.909185   -0.986909
     26          1           0        1.675506    1.875773   -2.152180
     27          1           0        2.892435    3.941409   -2.007406
     28          1           0        3.009532    3.885118   -0.254110
     29          1           0        3.921928    2.730106   -1.251123
     30          6           0        1.759813    1.698449    1.249663
     31          6           0        3.090573    2.015153    1.900375
     32          1           0        1.274193    0.917457    1.842585
     33          1           0        1.096080    2.565719    1.267035
     34          1           0        2.876841    2.486510    2.862932
     35          1           0        3.671677    1.113632    2.111164
     36          1           0        3.713006    2.704020    1.328736
     37          6           0       -1.955509   -1.401671    1.350782
     38          6           0       -2.999779   -2.361360    1.878006
     39          1           0       -2.328794   -0.381347    1.442569
     40          1           0       -1.044858   -1.464565    1.957326
     41          1           0       -3.077257   -2.198010    2.955905
     42          1           0       -3.986891   -2.170832    1.453722
     43          1           0       -2.750365   -3.415024    1.731281
     44          6           0       -2.630503   -1.461388   -1.058081
     45          6           0       -3.476104   -2.696556   -1.290820
     46          1           0       -2.181841   -1.161577   -2.010573
     47          1           0       -3.242852   -0.618837   -0.721255
     48          1           0       -4.236634   -2.441783   -2.033016
     49          1           0       -2.895272   -3.524845   -1.703061
     50          1           0       -3.992697   -3.050887   -0.399999
     51          6           0       -1.304425    1.578229    0.239270
     52          6           0       -1.961147    2.271480   -0.781938
     53          6           0       -1.550957    1.982493    1.550358
     54          6           0       -2.827890    3.320463   -0.504913
     55          1           0       -1.795009    1.989018   -1.822427
     56          6           0       -2.414778    3.032036    1.833540
     57          1           0       -1.064383    1.472868    2.381114
     58          6           0       -3.057017    3.705107    0.806446
     59          1           0       -3.325155    3.838172   -1.320490
     60          1           0       -2.585904    3.324475    2.865783
     61          1           0       -3.733229    4.525174    1.026949
 ---------------------------------------------------------------------
 Rotational constants (GHZ):           0.2171000           0.2050674           0.1345136
 General basis read from cards:  (5D, 7F)
 ======================================================================================================
                                       Pseudopotential Parameters
 ======================================================================================================
  Center     Atomic      Valence      Angular      Power
  Number     Number     Electrons     Momentum     of R      Exponent        Coefficient   SO-Coeffient
 ======================================================================================================
    1         78           18
                                      G and up 
                                                     1      728.9394056       -0.16192680    0.00000000
                                                     2      320.6567800    -1320.28738520    0.00000000
                                                     2       52.8680174     -298.31781350    0.00000000
                                                     2       12.0280128      -87.58370650    0.00000000
                                                     2        3.5238913       -8.14932740    0.00000000
                                      S - G
                                                     0      409.4437358        2.73342180    0.00000000
                                                     1      274.5419231       59.70243290    0.00000000
                                                     2      127.5658570      891.45895500    0.00000000
                                                     2       32.9036631      368.44676560    0.00000000
                                                     2        5.0593880      238.02630900    0.00000000
                                                     2        4.1506556     -107.05564540    0.00000000
                                      P - G
                                                     0      466.1728892        1.88785680    0.00000000
                                                     1      120.7888259       76.01386290    0.00000000
                                                     2       36.4118791      343.55111160    0.00000000
                                                     2        5.6985408      119.49117860    0.00000000
                                      D - G
                                                     0      249.5650763        2.93436780    0.00000000
                                                     1      126.6678585       59.33065710    0.00000000
                                                     2       63.1430586      452.44451940    0.00000000
                                                     2       17.9059470      210.47694790    0.00000000
                                                     2        4.2239373       58.62541120    0.00000000
                                      F - G
                                                     0      121.8158799        3.95342530    0.00000000
                                                     1       60.8757030       53.85551820    0.00000000
                                                     2       31.4767147      247.43051330    0.00000000
                                                     2        9.8811751      127.81879760    0.00000000
                                                     2        2.7319874       15.37720460    0.00000000
    2          6
                                   No pseudopotential on this center.
    3          6
                                   No pseudopotential on this center.
    4          6
                                   No pseudopotential on this center.
    5          6
                                   No pseudopotential on this center.
    6          6
                                   No pseudopotential on this center.
    7          6
                                   No pseudopotential on this center.
    8          1
                                   No pseudopotential on this center.
    9          1
                                   No pseudopotential on this center.
   10          1
                                   No pseudopotential on this center.
   11          7
                                   No pseudopotential on this center.
   12          7
                                   No pseudopotential on this center.
   13          6
                                   No pseudopotential on this center.
   14          1
                                   No pseudopotential on this center.
   15          1
                                   No pseudopotential on this center.
   16          1
                                   No pseudopotential on this center.
   17          6
                                   No pseudopotential on this center.
   18          1
                                   No pseudopotential on this center.
   19          1
                                   No pseudopotential on this center.
   20          6
                                   No pseudopotential on this center.
   21          1
                                   No pseudopotential on this center.
   22          1
                                   No pseudopotential on this center.
   23          6
                                   No pseudopotential on this center.
   24          6
                                   No pseudopotential on this center.
   25          1
                                   No pseudopotential on this center.
   26          1
                                   No pseudopotential on this center.
   27          1
                                   No pseudopotential on this center.
   28          1
                                   No pseudopotential on this center.
   29          1
                                   No pseudopotential on this center.
   30          6
                                   No pseudopotential on this center.
   31          6
                                   No pseudopotential on this center.
   32          1
                                   No pseudopotential on this center.
   33          1
                                   No pseudopotential on this center.
   34          1
                                   No pseudopotential on this center.
   35          1
                                   No pseudopotential on this center.
   36          1
                                   No pseudopotential on this center.
   37          6
                                   No pseudopotential on this center.
   38          6
                                   No pseudopotential on this center.
   39          1
                                   No pseudopotential on this center.
   40          1
                                   No pseudopotential on this center.
   41          1
                                   No pseudopotential on this center.
   42          1
                                   No pseudopotential on this center.
   43          1
                                   No pseudopotential on this center.
   44          6
                                   No pseudopotential on this center.
   45          6
                                   No pseudopotential on this center.
   46          1
                                   No pseudopotential on this center.
   47          1
                                   No pseudopotential on this center.
   48          1
                                   No pseudopotential on this center.
   49          1
                                   No pseudopotential on this center.
   50          1
                                   No pseudopotential on this center.
   51          6
                                   No pseudopotential on this center.
   52          6
                                   No pseudopotential on this center.
   53          6
                                   No pseudopotential on this center.
   54          6
                                   No pseudopotential on this center.
   55          1
                                   No pseudopotential on this center.
   56          6
                                   No pseudopotential on this center.
   57          1
                                   No pseudopotential on this center.
   58          6
                                   No pseudopotential on this center.
   59          1
                                   No pseudopotential on this center.
   60          1
                                   No pseudopotential on this center.
   61          1
                                   No pseudopotential on this center.
 ======================================================================================================
 There are   883 symmetry adapted cartesian basis functions of A   symmetry.
 There are   827 symmetry adapted basis functions of A   symmetry.
   827 basis functions,  1278 primitive gaussians,   883 cartesian basis functions
   102 alpha electrons      102 beta electrons
       nuclear repulsion energy      2881.9432049882 Hartrees.
 NAtoms=   61 NActive=   61 NUniq=   61 SFac= 1.00D+00 NAtFMM=   60 NAOKFM=T Big=T
 Integral buffers will be    131072 words long.
 Raffenetti 2 integral format.
 Two-electron integral symmetry is turned on.
 Nuclear repulsion after empirical dispersion term =     2881.9254898075 Hartrees.
 Force inversion solution in PCM.
 ------------------------------------------------------------------------------
 Polarizable Continuum Model (PCM)
 =================================
 Model                : PCM.
 Atomic radii         : UFF (Universal Force Field).
 Polarization charges : Total charges.
 Charge compensation  : None.
 Solution method      : Matrix inversion.
 Cavity type          : Scaled VdW (van der Waals Surface) (Alpha=1.100).
 Cavity algorithm     : GePol (No added spheres)
                        Default sphere list used, NSphG=   61.
                        Lebedev-Laikov grids with approx.  5.0 points / Ang**2.
                        Smoothing algorithm: York/Karplus (Gamma=1.0000).
                        Polarization charges: spherical gaussians, with
                                              point-specific exponents (IZeta= 3).
                        Self-potential: point-specific (ISelfS= 7).
                        Self-field    : sphere-specific E.n sum rule (ISelfD= 2).
 1st derivatives      : Analytical E(r).r(x)/FMM algorithm (CHGder, D1EAlg=3).
                        Cavity 1st derivative terms included.
 2nd derivatives      : Analytical E(r).r(xy)/FMM algorithm (CHGder, D2EAlg=3).
                        Cavity 2nd derivative terms included.
 Solvent              : TetraHydroFuran, Eps=   7.425700 Eps(inf)=   1.974025
 ------------------------------------------------------------------------------
 One-electron integrals computed using PRISM.
   1 Symmetry operations used in ECPInt.
 ECPInt:  NShTT=   46360 NPrTT=  151530 LenC2=   40076 LenP2D=   86461.
 LDataN:  DoStor=T MaxTD1= 7 Len=  274
 Number of processors reduced to  21 by ecpmxn.
 NBasis=   827 RedAO= T EigKep=  3.59D-05  NBF=   827
 NBsUse=   827 1.00D-06 EigRej= -1.00D+00 NBFU=   827
 Defaulting to unpruned grid for atomic number  78.
 ExpMin= 2.90D-02 ExpMax= 6.29D+03 ExpMxC= 9.49D+02 IAcc=3 IRadAn=         5 AccDes= 0.00D+00
 Harris functional with IExCor= 1009 and IRadAn=       5 diagonalized for initial guess.
 HarFok:  IExCor= 1009 AccDes= 0.00D+00 IRadAn=         5 IDoV= 1 UseB2=F ITyADJ=14
 ICtDFT=  3500011 ScaDFX=  1.000000  1.000000  1.000000  1.000000
 Defaulting to unpruned grid for atomic number  78.
 FoFCou: FMM=F IPFlag=           0 FMFlag=      100000 FMFlg1=        2001
         NFxFlg=           0 DoJE=T BraDBF=F KetDBF=T FulRan=T
         wScrn=  0.000000 ICntrl=       500 IOpCl=  0 I1Cent=   200000004 NGrid=           0
         NMat0=    1 NMatS0=      1 NMatT0=    0 NMatD0=    1 NMtDS0=    0 NMtDT0=    0
 Petite list used in FoFCou.
 Requested convergence on RMS density matrix=1.00D-08 within 128 cycles.
 Requested convergence on MAX density matrix=1.00D-06.
 Requested convergence on             energy=1.00D-06.
 No special actions if energy rises.
 Defaulting to unpruned grid for atomic number  78.
 Defaulting to unpruned grid for atomic number  78.
 Defaulting to unpruned grid for atomic number  78.
 Defaulting to unpruned grid for atomic number  78.
 Defaulting to unpruned grid for atomic number  78.
 Defaulting to unpruned grid for atomic number  78.
 Defaulting to unpruned grid for atomic number  78.
 Defaulting to unpruned grid for atomic number  78.
 Defaulting to unpruned grid for atomic number  78.
 Defaulting to unpruned grid for atomic number  78.
 Defaulting to unpruned grid for atomic number  78.
 Defaulting to unpruned grid for atomic number  78.
 Defaulting to unpruned grid for atomic number  78.
 Defaulting to unpruned grid for atomic number  78.
 Defaulting to unpruned grid for atomic number  78.
 Defaulting to unpruned grid for atomic number  78.
 Defaulting to unpruned grid for atomic number  78.
 Defaulting to unpruned grid for atomic number  78.
 Defaulting to unpruned grid for atomic number  78.
 Defaulting to unpruned grid for atomic number  78.
 Defaulting to unpruned grid for atomic number  78.
 Defaulting to unpruned grid for atomic number  78.
 Defaulting to unpruned grid for atomic number  78.
 Defaulting to unpruned grid for atomic number  78.
 Defaulting to unpruned grid for atomic number  78.
 Defaulting to unpruned grid for atomic number  78.
 Defaulting to unpruned grid for atomic number  78.
 Defaulting to unpruned grid for atomic number  78.
 Defaulting to unpruned grid for atomic number  78.
 Defaulting to unpruned grid for atomic number  78.
 Defaulting to unpruned grid for atomic number  78.
 Defaulting to unpruned grid for atomic number  78.
 Defaulting to unpruned grid for atomic number  78.
 Defaulting to unpruned grid for atomic number  78.
 Defaulting to unpruned grid for atomic number  78.
 Defaulting to unpruned grid for atomic number  78.
 Defaulting to unpruned grid for atomic number  78.
 Defaulting to unpruned grid for atomic number  78.
 Defaulting to unpruned grid for atomic number  78.
 Defaulting to unpruned grid for atomic number  78.
 Defaulting to unpruned grid for atomic number  78.
 Defaulting to unpruned grid for atomic number  78.
 Defaulting to unpruned grid for atomic number  78.
 Defaulting to unpruned grid for atomic number  78.
 Defaulting to unpruned grid for atomic number  78.
 Defaulting to unpruned grid for atomic number  78.
 Defaulting to unpruned grid for atomic number  78.
 Defaulting to unpruned grid for atomic number  78.
 Inv3:  Mode=1 IEnd=    38427723.
 Iteration    1 A*A^-1 deviation from unit magnitude is 3.33D-15 for   3320.
 Iteration    1 A*A^-1 deviation from orthogonality  is 2.66D-15 for   3122   1605.
 Iteration    1 A^-1*A deviation from unit magnitude is 3.22D-15 for   2165.
 Iteration    1 A^-1*A deviation from orthogonality  is 1.86D-14 for   2294   2263.
 Error on total polarization charges =  0.02210
 SCF Done:  E(RM06) =  -1125.45990637     A.U. after   15 cycles
            NFock= 15  Conv=0.92D-08     -V/T= 2.0824
 DoSCS=F DFT=T ScalE2(SS,OS)=  1.000000  1.000000
 Range of M.O.s used for correlation:     1   827
 NBasis=   827 NAE=   102 NBE=   102 NFC=     0 NFV=     0
 NROrb=    827 NOA=   102 NOB=   102 NVA=   725 NVB=   725

 **** Warning!!: The largest alpha MO coefficient is  0.21816307D+02

 PrsmSu:  requested number of processors reduced to:   6 ShMem   1 Linda.
   1 Symmetry operations used in ECPInt.
 ECPInt:  NShTT=   46360 NPrTT=  151530 LenC2=   40076 LenP2D=   86461.
 LDataN:  DoStor=T MaxTD1= 8 Len=  415
 Number of processors reduced to   2 by ecpmxn.
 Symmetrizing basis deriv contribution to polar:
 IMax=3 JMax=2 DiffMx= 0.00D+00
 G2DrvN: will do     4 centers at a time, making   16 passes.
 Calling FoFCou, ICntrl=  3107 FMM=T I1Cent=   0 AccDes= 0.00D+00.
 Defaulting to unpruned grid for atomic number  78.
 Defaulting to unpruned grid for atomic number  78.
 Defaulting to unpruned grid for atomic number  78.
 Defaulting to unpruned grid for atomic number  78.
 Defaulting to unpruned grid for atomic number  78.
 Defaulting to unpruned grid for atomic number  78.
 Defaulting to unpruned grid for atomic number  78.
 Defaulting to unpruned grid for atomic number  78.
 Defaulting to unpruned grid for atomic number  78.
 Defaulting to unpruned grid for atomic number  78.
 Defaulting to unpruned grid for atomic number  78.
 Defaulting to unpruned grid for atomic number  78.
 Defaulting to unpruned grid for atomic number  78.
 Defaulting to unpruned grid for atomic number  78.
 Defaulting to unpruned grid for atomic number  78.
 Defaulting to unpruned grid for atomic number  78.
 Defaulting to unpruned grid for atomic number  78.
 Defaulting to unpruned grid for atomic number  78.
 Defaulting to unpruned grid for atomic number  78.
 Defaulting to unpruned grid for atomic number  78.
 Defaulting to unpruned grid for atomic number  78.
 Defaulting to unpruned grid for atomic number  78.
 Defaulting to unpruned grid for atomic number  78.
 Defaulting to unpruned grid for atomic number  78.
 Defaulting to unpruned grid for atomic number  78.
 Defaulting to unpruned grid for atomic number  78.
 Defaulting to unpruned grid for atomic number  78.
 Defaulting to unpruned grid for atomic number  78.
 Defaulting to unpruned grid for atomic number  78.
 Defaulting to unpruned grid for atomic number  78.
 Defaulting to unpruned grid for atomic number  78.
 Defaulting to unpruned grid for atomic number  78.
 Defaulting to unpruned grid for atomic number  78.
 Defaulting to unpruned grid for atomic number  78.
 Defaulting to unpruned grid for atomic number  78.
 Defaulting to unpruned grid for atomic number  78.
 Defaulting to unpruned grid for atomic number  78.
 Defaulting to unpruned grid for atomic number  78.
 Defaulting to unpruned grid for atomic number  78.
 Defaulting to unpruned grid for atomic number  78.
 Defaulting to unpruned grid for atomic number  78.
 Defaulting to unpruned grid for atomic number  78.
 Defaulting to unpruned grid for atomic number  78.
 Defaulting to unpruned grid for atomic number  78.
 Defaulting to unpruned grid for atomic number  78.
 Defaulting to unpruned grid for atomic number  78.
 Defaulting to unpruned grid for atomic number  78.
 Defaulting to unpruned grid for atomic number  78.
 Calling FoFCou, ICntrl=  3107 FMM=T I1Cent=   0 AccDes= 0.00D+00.
 Calling FoFCou, ICntrl=  3107 FMM=T I1Cent=   0 AccDes= 0.00D+00.
 Calling FoFCou, ICntrl=  3107 FMM=T I1Cent=   0 AccDes= 0.00D+00.
 Calling FoFCou, ICntrl=  3107 FMM=T I1Cent=   0 AccDes= 0.00D+00.
 Calling FoFCou, ICntrl=  3107 FMM=T I1Cent=   0 AccDes= 0.00D+00.
 Calling FoFCou, ICntrl=  3107 FMM=T I1Cent=   0 AccDes= 0.00D+00.
 Calling FoFCou, ICntrl=  3107 FMM=T I1Cent=   0 AccDes= 0.00D+00.
 Calling FoFCou, ICntrl=  3107 FMM=T I1Cent=   0 AccDes= 0.00D+00.
 Calling FoFCou, ICntrl=  3107 FMM=T I1Cent=   0 AccDes= 0.00D+00.
 Calling FoFCou, ICntrl=  3107 FMM=T I1Cent=   0 AccDes= 0.00D+00.
 Calling FoFCou, ICntrl=  3107 FMM=T I1Cent=   0 AccDes= 0.00D+00.
 Calling FoFCou, ICntrl=  3107 FMM=T I1Cent=   0 AccDes= 0.00D+00.
 Calling FoFCou, ICntrl=  3107 FMM=T I1Cent=   0 AccDes= 0.00D+00.
 Calling FoFCou, ICntrl=  3107 FMM=T I1Cent=   0 AccDes= 0.00D+00.
 Calling FoFCou, ICntrl=  3107 FMM=T I1Cent=   0 AccDes= 0.00D+00.
 NEqPCM:  Using equilibrium solvation (IEInf=0, Eps=   7.4257, EpsInf=   1.9740)
 G2PCM: DoFxE=T DoFxN=T DoGrad=T DoDP/DQ/DG/TGxP=FFFF NFrqRd=   0 IEInf=0 SqF1=F DoCFld=F IF1Alg=4.
 CoulSu:  requested number of processors reduced to:  47 ShMem   1 Linda.
 CoulSu:  requested number of processors reduced to:  39 ShMem   1 Linda.
 CoulSu:  requested number of processors reduced to:  45 ShMem   1 Linda.
 CoulSu:  requested number of processors reduced to:  47 ShMem   1 Linda.
 CoulSu:  requested number of processors reduced to:  39 ShMem   1 Linda.
 CoulSu:  requested number of processors reduced to:  45 ShMem   1 Linda.
 CoulSu:  requested number of processors reduced to:  47 ShMem   1 Linda.
 CoulSu:  requested number of processors reduced to:  39 ShMem   1 Linda.
 CoulSu:  requested number of processors reduced to:  45 ShMem   1 Linda.
 CoulSu:  requested number of processors reduced to:  47 ShMem   1 Linda.
 CoulSu:  requested number of processors reduced to:  39 ShMem   1 Linda.
 CoulSu:  requested number of processors reduced to:  45 ShMem   1 Linda.
 CoulSu:  requested number of processors reduced to:  47 ShMem   1 Linda.
 CoulSu:  requested number of processors reduced to:  39 ShMem   1 Linda.
 CoulSu:  requested number of processors reduced to:  45 ShMem   1 Linda.
 CoulSu:  requested number of processors reduced to:  47 ShMem   1 Linda.
 CoulSu:  requested number of processors reduced to:  39 ShMem   1 Linda.
 CoulSu:  requested number of processors reduced to:  45 ShMem   1 Linda.
 CoulSu:  requested number of processors reduced to:  47 ShMem   1 Linda.
 CoulSu:  requested number of processors reduced to:  39 ShMem   1 Linda.
 CoulSu:  requested number of processors reduced to:  45 ShMem   1 Linda.
 CoulSu:  requested number of processors reduced to:  47 ShMem   1 Linda.
 CoulSu:  requested number of processors reduced to:  39 ShMem   1 Linda.
 CoulSu:  requested number of processors reduced to:  45 ShMem   1 Linda.
 CoulSu:  requested number of processors reduced to:  47 ShMem   1 Linda.
 CoulSu:  requested number of processors reduced to:  39 ShMem   1 Linda.
 CoulSu:  requested number of processors reduced to:  45 ShMem   1 Linda.
 CoulSu:  requested number of processors reduced to:  47 ShMem   1 Linda.
 CoulSu:  requested number of processors reduced to:  39 ShMem   1 Linda.
 CoulSu:  requested number of processors reduced to:  45 ShMem   1 Linda.
 End of G2Drv F.D. properties file   721 does not exist.
 End of G2Drv F.D. properties file   722 does not exist.
 End of G2Drv F.D. properties file   788 does not exist.
          IDoAtm=11111111111111111111111111111111111111111111111111
          IDoAtm=11111111111
 NEqPCM:  Using equilibrium solvation (IEInf=0, Eps=   7.4257, EpsInf=   1.9740)
          Differentiating once with respect to electric field.
                with respect to dipole field.
          Differentiating once with respect to nuclear coordinates.
 Defaulting to unpruned grid for atomic number  78.
 CalDSu exits because no D1Ps are significant.
 Defaulting to unpruned grid for atomic number  78.
 Defaulting to unpruned grid for atomic number  78.
 Defaulting to unpruned grid for atomic number  78.
 Defaulting to unpruned grid for atomic number  78.
 Defaulting to unpruned grid for atomic number  78.
 Defaulting to unpruned grid for atomic number  78.
 Defaulting to unpruned grid for atomic number  78.
 Defaulting to unpruned grid for atomic number  78.
 Defaulting to unpruned grid for atomic number  78.
 Defaulting to unpruned grid for atomic number  78.
 Defaulting to unpruned grid for atomic number  78.
 Defaulting to unpruned grid for atomic number  78.
 Defaulting to unpruned grid for atomic number  78.
 Defaulting to unpruned grid for atomic number  78.
 Defaulting to unpruned grid for atomic number  78.
 Defaulting to unpruned grid for atomic number  78.
 Defaulting to unpruned grid for atomic number  78.
 Defaulting to unpruned grid for atomic number  78.
 Defaulting to unpruned grid for atomic number  78.
 Defaulting to unpruned grid for atomic number  78.
 Defaulting to unpruned grid for atomic number  78.
 Defaulting to unpruned grid for atomic number  78.
 Defaulting to unpruned grid for atomic number  78.
 Defaulting to unpruned grid for atomic number  78.
 Defaulting to unpruned grid for atomic number  78.
 Defaulting to unpruned grid for atomic number  78.
 Defaulting to unpruned grid for atomic number  78.
 Defaulting to unpruned grid for atomic number  78.
 Defaulting to unpruned grid for atomic number  78.
 Defaulting to unpruned grid for atomic number  78.
 Defaulting to unpruned grid for atomic number  78.
 Defaulting to unpruned grid for atomic number  78.
 Defaulting to unpruned grid for atomic number  78.
 Defaulting to unpruned grid for atomic number  78.
 Defaulting to unpruned grid for atomic number  78.
 Defaulting to unpruned grid for atomic number  78.
 Defaulting to unpruned grid for atomic number  78.
 Defaulting to unpruned grid for atomic number  78.
 Defaulting to unpruned grid for atomic number  78.
 Defaulting to unpruned grid for atomic number  78.
 Defaulting to unpruned grid for atomic number  78.
 Defaulting to unpruned grid for atomic number  78.
 Defaulting to unpruned grid for atomic number  78.
 Defaulting to unpruned grid for atomic number  78.
 Defaulting to unpruned grid for atomic number  78.
 Defaulting to unpruned grid for atomic number  78.
 Defaulting to unpruned grid for atomic number  78.
 Defaulting to unpruned grid for atomic number  78.
          There are   186 degrees of freedom in the 1st order CPHF.  IDoFFX=6 NUNeed=     3.
    183 vectors produced by pass  0 Test12= 7.40D-14 1.00D-09 XBig12= 3.27D+02 5.87D+00.
 AX will form     9 AO Fock derivatives at one time.
    183 vectors produced by pass  1 Test12= 7.40D-14 1.00D-09 XBig12= 4.16D+01 8.67D-01.
    183 vectors produced by pass  2 Test12= 7.40D-14 1.00D-09 XBig12= 6.21D-01 5.99D-02.
    183 vectors produced by pass  3 Test12= 7.40D-14 1.00D-09 XBig12= 4.87D-03 6.17D-03.
    183 vectors produced by pass  4 Test12= 7.40D-14 1.00D-09 XBig12= 2.34D-05 3.17D-04.
    183 vectors produced by pass  5 Test12= 7.40D-14 1.00D-09 XBig12= 8.62D-08 2.18D-05.
     87 vectors produced by pass  6 Test12= 7.40D-14 1.00D-09 XBig12= 2.21D-10 1.35D-06.
      9 vectors produced by pass  7 Test12= 7.40D-14 1.00D-09 XBig12= 5.25D-13 6.94D-08.
      3 vectors produced by pass  8 Test12= 7.40D-14 1.00D-09 XBig12= 1.41D-15 4.10D-09.
 InvSVY:  IOpt=1 It=  1 EMax= 7.60D-15
 Solved reduced A of dimension  1197 with   186 vectors.
 Isotropic polarizability for W=    0.000000      415.93 Bohr**3.
 End of Minotr F.D. properties file   721 does not exist.
 End of Minotr F.D. properties file   722 does not exist.
 End of Minotr F.D. properties file   788 does not exist.

 **********************************************************************

            Population analysis using the SCF Density.

 **********************************************************************

 Orbital symmetries:
       Occupied  (A) (A) (A) (A) (A) (A) (A) (A) (A) (A) (A) (A)
                 (A) (A) (A) (A) (A) (A) (A) (A) (A) (A) (A) (A)
                 (A) (A) (A) (A) (A) (A) (A) (A) (A) (A) (A) (A)
                 (A) (A) (A) (A) (A) (A) (A) (A) (A) (A) (A) (A)
                 (A) (A) (A) (A) (A) (A) (A) (A) (A) (A) (A) (A)
                 (A) (A) (A) (A) (A) (A) (A) (A) (A) (A) (A) (A)
                 (A) (A) (A) (A) (A) (A) (A) (A) (A) (A) (A) (A)
                 (A) (A) (A) (A) (A) (A) (A) (A) (A) (A) (A) (A)
                 (A) (A) (A) (A) (A) (A)
       Virtual   (A) (A) (A) (A) (A) (A) (A) (A) (A) (A) (A) (A)
                 (A) (A) (A) (A) (A) (A) (A) (A) (A) (A) (A) (A)
                 (A) (A) (A) (A) (A) (A) (A) (A) (A) (A) (A) (A)
                 (A) (A) (A) (A) (A) (A) (A) (A) (A) (A) (A) (A)
                 (A) (A) (A) (A) (A) (A) (A) (A) (A) (A) (A) (A)
                 (A) (A) (A) (A) (A) (A) (A) (A) (A) (A) (A) (A)
                 (A) (A) (A) (A) (A) (A) (A) (A) (A) (A) (A) (A)
                 (A) (A) (A) (A) (A) (A) (A) (A) (A) (A) (A) (A)
                 (A) (A) (A) (A) (A) (A) (A) (A) (A) (A) (A) (A)
                 (A) (A) (A) (A) (A) (A) (A) (A) (A) (A) (A) (A)
                 (A) (A) (A) (A) (A) (A) (A) (A) (A) (A) (A) (A)
                 (A) (A) (A) (A) (A) (A) (A) (A) (A) (A) (A) (A)
                 (A) (A) (A) (A) (A) (A) (A) (A) (A) (A) (A) (A)
                 (A) (A) (A) (A) (A) (A) (A) (A) (A) (A) (A) (A)
                 (A) (A) (A) (A) (A) (A) (A) (A) (A) (A) (A) (A)
                 (A) (A) (A) (A) (A) (A) (A) (A) (A) (A) (A) (A)
                 (A) (A) (A) (A) (A) (A) (A) (A) (A) (A) (A) (A)
                 (A) (A) (A) (A) (A) (A) (A) (A) (A) (A) (A) (A)
                 (A) (A) (A) (A) (A) (A) (A) (A) (A) (A) (A) (A)
                 (A) (A) (A) (A) (A) (A) (A) (A) (A) (A) (A) (A)
                 (A) (A) (A) (A) (A) (A) (A) (A) (A) (A) (A) (A)
                 (A) (A) (A) (A) (A) (A) (A) (A) (A) (A) (A) (A)
                 (A) (A) (A) (A) (A) (A) (A) (A) (A) (A) (A) (A)
                 (A) (A) (A) (A) (A) (A) (A) (A) (A) (A) (A) (A)
                 (A) (A) (A) (A) (A) (A) (A) (A) (A) (A) (A) (A)
                 (A) (A) (A) (A) (A) (A) (A) (A) (A) (A) (A) (A)
                 (A) (A) (A) (A) (A) (A) (A) (A) (A) (A) (A) (A)
                 (A) (A) (A) (A) (A) (A) (A) (A) (A) (A) (A) (A)
                 (A) (A) (A) (A) (A) (A) (A) (A) (A) (A) (A) (A)
                 (A) (A) (A) (A) (A) (A) (A) (A) (A) (A) (A) (A)
                 (A) (A) (A) (A) (A) (A) (A) (A) (A) (A) (A) (A)
                 (A) (A) (A) (A) (A) (A) (A) (A) (A) (A) (A) (A)
                 (A) (A) (A) (A) (A) (A) (A) (A) (A) (A) (A) (A)
                 (A) (A) (A) (A) (A) (A) (A) (A) (A) (A) (A) (A)
                 (A) (A) (A) (A) (A) (A) (A) (A) (A) (A) (A) (A)
                 (A) (A) (A) (A) (A) (A) (A) (A) (A) (A) (A) (A)
                 (A) (A) (A) (A) (A) (A) (A) (A) (A) (A) (A) (A)
                 (A) (A) (A) (A) (A) (A) (A) (A) (A) (A) (A) (A)
                 (A) (A) (A) (A) (A) (A) (A) (A) (A) (A) (A) (A)
                 (A) (A) (A) (A) (A) (A) (A) (A) (A) (A) (A) (A)
                 (A) (A) (A) (A) (A) (A) (A) (A) (A) (A) (A) (A)
                 (A) (A) (A) (A) (A) (A) (A) (A) (A) (A) (A) (A)
                 (A) (A) (A) (A) (A) (A) (A) (A) (A) (A) (A) (A)
                 (A) (A) (A) (A) (A) (A) (A) (A) (A) (A) (A) (A)
                 (A) (A) (A) (A) (A) (A) (A) (A) (A) (A) (A) (A)
                 (A) (A) (A) (A) (A) (A) (A) (A) (A) (A) (A) (A)
                 (A) (A) (A) (A) (A) (A) (A) (A) (A) (A) (A) (A)
                 (A) (A) (A) (A) (A) (A) (A) (A) (A) (A) (A) (A)
                 (A) (A) (A) (A) (A) (A) (A) (A) (A) (A) (A) (A)
                 (A) (A) (A) (A) (A) (A) (A) (A) (A) (A) (A) (A)
                 (A) (A) (A) (A) (A) (A) (A) (A) (A) (A) (A) (A)
                 (A) (A) (A) (A) (A) (A) (A) (A) (A) (A) (A) (A)
                 (A) (A) (A) (A) (A) (A) (A) (A) (A) (A) (A) (A)
                 (A) (A) (A) (A) (A) (A) (A) (A) (A) (A) (A) (A)
                 (A) (A) (A) (A) (A) (A) (A) (A) (A) (A) (A) (A)
                 (A) (A) (A) (A) (A) (A) (A) (A) (A) (A) (A) (A)
                 (A) (A) (A) (A) (A) (A) (A) (A) (A) (A) (A) (A)
                 (A) (A) (A) (A) (A) (A) (A) (A) (A) (A) (A) (A)
                 (A) (A) (A) (A) (A) (A) (A) (A) (A) (A) (A) (A)
                 (A) (A) (A) (A) (A) (A) (A) (A) (A) (A) (A) (A)
                 (A) (A) (A) (A) (A)
 The electronic state is 1-A.
 Alpha  occ. eigenvalues --  -14.48913 -14.48796 -10.30993 -10.30906 -10.30025
 Alpha  occ. eigenvalues --  -10.29917 -10.29857 -10.29551 -10.29544 -10.29426
 Alpha  occ. eigenvalues --  -10.27719 -10.27694 -10.26884 -10.26849 -10.26276
 Alpha  occ. eigenvalues --  -10.25083 -10.25036 -10.25009 -10.24942 -10.24576
 Alpha  occ. eigenvalues --  -10.24552 -10.24499 -10.24439 -10.24367 -10.24218
 Alpha  occ. eigenvalues --   -3.96121  -2.20132  -2.19210  -2.17282  -1.00344
 Alpha  occ. eigenvalues --   -0.99848  -0.91501  -0.87696  -0.83808  -0.81778
 Alpha  occ. eigenvalues --   -0.81064  -0.80934  -0.77901  -0.77658  -0.76698
 Alpha  occ. eigenvalues --   -0.76345  -0.74698  -0.73103  -0.73007  -0.67590
 Alpha  occ. eigenvalues --   -0.67455  -0.64771  -0.64557  -0.62242  -0.61683
 Alpha  occ. eigenvalues --   -0.61124  -0.60937  -0.56288  -0.55675  -0.54531
 Alpha  occ. eigenvalues --   -0.53900  -0.53683  -0.53475  -0.51810  -0.51207
 Alpha  occ. eigenvalues --   -0.49963  -0.48081  -0.47822  -0.47458  -0.47296
 Alpha  occ. eigenvalues --   -0.47097  -0.46424  -0.46015  -0.45853  -0.45810
 Alpha  occ. eigenvalues --   -0.45007  -0.44845  -0.44397  -0.43949  -0.43857
 Alpha  occ. eigenvalues --   -0.43480  -0.43187  -0.42928  -0.42420  -0.41690
 Alpha  occ. eigenvalues --   -0.40898  -0.40414  -0.39974  -0.39797  -0.39146
 Alpha  occ. eigenvalues --   -0.38930  -0.38585  -0.38275  -0.37999  -0.37280
 Alpha  occ. eigenvalues --   -0.36913  -0.36663  -0.35461  -0.34977  -0.33064
 Alpha  occ. eigenvalues --   -0.31662  -0.30222  -0.29340  -0.28342  -0.27629
 Alpha  occ. eigenvalues --   -0.26088  -0.25763
 Alpha virt. eigenvalues --   -0.08846  -0.05235  -0.04084  -0.03124  -0.01911
 Alpha virt. eigenvalues --   -0.01633  -0.01588  -0.00366   0.00027   0.00948
 Alpha virt. eigenvalues --    0.02920   0.03872   0.04292   0.05082   0.05239
 Alpha virt. eigenvalues --    0.05684   0.06121   0.06217   0.06339   0.06879
 Alpha virt. eigenvalues --    0.07552   0.07774   0.08012   0.08503   0.08959
 Alpha virt. eigenvalues --    0.09067   0.09516   0.09703   0.09933   0.10015
 Alpha virt. eigenvalues --    0.10392   0.11042   0.11480   0.11861   0.12089
 Alpha virt. eigenvalues --    0.12334   0.12662   0.12964   0.13559   0.13878
 Alpha virt. eigenvalues --    0.14399   0.14457   0.14700   0.15040   0.15233
 Alpha virt. eigenvalues --    0.15497   0.15852   0.16043   0.16730   0.17053
 Alpha virt. eigenvalues --    0.17523   0.18247   0.19000   0.19458   0.20309
 Alpha virt. eigenvalues --    0.20975   0.22088   0.23020   0.23374   0.23705
 Alpha virt. eigenvalues --    0.24129   0.24935   0.25526   0.25948   0.26293
 Alpha virt. eigenvalues --    0.26503   0.26977   0.27329   0.27538   0.27621
 Alpha virt. eigenvalues --    0.27836   0.28297   0.28430   0.28933   0.29220
 Alpha virt. eigenvalues --    0.30133   0.30499   0.30789   0.31392   0.32023
 Alpha virt. eigenvalues --    0.32432   0.32551   0.33209   0.33360   0.34969
 Alpha virt. eigenvalues --    0.35143   0.35280   0.35867   0.37118   0.37125
 Alpha virt. eigenvalues --    0.37734   0.37920   0.38064   0.38464   0.38593
 Alpha virt. eigenvalues --    0.39192   0.39339   0.39778   0.40850   0.41169
 Alpha virt. eigenvalues --    0.41609   0.41793   0.42078   0.42457   0.43192
 Alpha virt. eigenvalues --    0.43422   0.43742   0.43998   0.44270   0.44453
 Alpha virt. eigenvalues --    0.45765   0.46078   0.46559   0.46638   0.47350
 Alpha virt. eigenvalues --    0.47778   0.48172   0.48300   0.48674   0.49214
 Alpha virt. eigenvalues --    0.49620   0.49778   0.50240   0.50539   0.50872
 Alpha virt. eigenvalues --    0.51107   0.51432   0.52040   0.52075   0.52224
 Alpha virt. eigenvalues --    0.52625   0.52798   0.53066   0.53467   0.53749
 Alpha virt. eigenvalues --    0.53990   0.54047   0.54467   0.54606   0.54939
 Alpha virt. eigenvalues --    0.55212   0.55383   0.55587   0.55885   0.56166
 Alpha virt. eigenvalues --    0.56455   0.56785   0.57165   0.57447   0.57727
 Alpha virt. eigenvalues --    0.58190   0.58303   0.58716   0.58880   0.58997
 Alpha virt. eigenvalues --    0.59752   0.60262   0.60524   0.60931   0.61395
 Alpha virt. eigenvalues --    0.61843   0.62254   0.62377   0.63115   0.63708
 Alpha virt. eigenvalues --    0.64417   0.64605   0.65026   0.65632   0.65902
 Alpha virt. eigenvalues --    0.66402   0.66969   0.67505   0.67754   0.68183
 Alpha virt. eigenvalues --    0.68695   0.68937   0.69420   0.70436   0.70851
 Alpha virt. eigenvalues --    0.71133   0.71370   0.72129   0.72192   0.73562
 Alpha virt. eigenvalues --    0.73978   0.74165   0.75010   0.75632   0.76155
 Alpha virt. eigenvalues --    0.76836   0.76885   0.77219   0.77456   0.78054
 Alpha virt. eigenvalues --    0.78606   0.78911   0.79780   0.79992   0.80421
 Alpha virt. eigenvalues --    0.81076   0.81573   0.82232   0.83158   0.84140
 Alpha virt. eigenvalues --    0.84673   0.85473   0.85507   0.86544   0.87380
 Alpha virt. eigenvalues --    0.87881   0.88996   0.89540   0.90436   0.90661
 Alpha virt. eigenvalues --    0.91158   0.91884   0.91911   0.92355   0.93224
 Alpha virt. eigenvalues --    0.93350   0.93748   0.94736   0.95688   0.96079
 Alpha virt. eigenvalues --    0.97079   0.98198   0.98601   0.98959   0.99526
 Alpha virt. eigenvalues --    0.99872   1.00587   1.01111   1.01906   1.02246
 Alpha virt. eigenvalues --    1.02477   1.03356   1.03944   1.04536   1.05876
 Alpha virt. eigenvalues --    1.06485   1.06757   1.07126   1.08204   1.08611
 Alpha virt. eigenvalues --    1.09725   1.09819   1.10167   1.10523   1.11256
 Alpha virt. eigenvalues --    1.11622   1.12345   1.12755   1.13093   1.13737
 Alpha virt. eigenvalues --    1.14150   1.14793   1.15193   1.15577   1.16316
 Alpha virt. eigenvalues --    1.17165   1.17794   1.18137   1.18957   1.19431
 Alpha virt. eigenvalues --    1.20220   1.20417   1.21040   1.21879   1.22032
 Alpha virt. eigenvalues --    1.22507   1.23136   1.24271   1.24525   1.24692
 Alpha virt. eigenvalues --    1.25431   1.25565   1.25716   1.26260   1.26684
 Alpha virt. eigenvalues --    1.27085   1.27890   1.28074   1.28658   1.29556
 Alpha virt. eigenvalues --    1.30486   1.30644   1.30823   1.31804   1.32908
 Alpha virt. eigenvalues --    1.33539   1.33573   1.34145   1.34710   1.35202
 Alpha virt. eigenvalues --    1.36578   1.37766   1.39011   1.39771   1.39914
 Alpha virt. eigenvalues --    1.40895   1.41366   1.41506   1.42961   1.43470
 Alpha virt. eigenvalues --    1.44188   1.44324   1.44940   1.45461   1.46010
 Alpha virt. eigenvalues --    1.46614   1.47221   1.48083   1.48498   1.50144
 Alpha virt. eigenvalues --    1.50634   1.50934   1.51806   1.53055   1.53863
 Alpha virt. eigenvalues --    1.54715   1.55115   1.55508   1.56301   1.56571
 Alpha virt. eigenvalues --    1.56900   1.58233   1.58361   1.59147   1.60432
 Alpha virt. eigenvalues --    1.61531   1.63204   1.63436   1.64528   1.65182
 Alpha virt. eigenvalues --    1.65854   1.66611   1.67479   1.68472   1.69456
 Alpha virt. eigenvalues --    1.69735   1.70435   1.71200   1.71717   1.72002
 Alpha virt. eigenvalues --    1.72624   1.72881   1.73746   1.74080   1.75668
 Alpha virt. eigenvalues --    1.76175   1.76521   1.77173   1.77569   1.78134
 Alpha virt. eigenvalues --    1.78648   1.80069   1.81526   1.82010   1.82883
 Alpha virt. eigenvalues --    1.83765   1.84418   1.85089   1.86054   1.86876
 Alpha virt. eigenvalues --    1.88752   1.89126   1.90340   1.91226   1.92306
 Alpha virt. eigenvalues --    1.95491   1.96075   1.96418   1.97367   1.98418
 Alpha virt. eigenvalues --    1.99039   1.99700   2.00286   2.01532   2.02628
 Alpha virt. eigenvalues --    2.04194   2.04931   2.06390   2.06830   2.07499
 Alpha virt. eigenvalues --    2.08151   2.08633   2.08998   2.09190   2.09904
 Alpha virt. eigenvalues --    2.10306   2.10847   2.11963   2.12332   2.12738
 Alpha virt. eigenvalues --    2.13068   2.13952   2.14394   2.15219   2.15328
 Alpha virt. eigenvalues --    2.16036   2.16331   2.17219   2.17239   2.17884
 Alpha virt. eigenvalues --    2.18142   2.18609   2.19321   2.19582   2.20200
 Alpha virt. eigenvalues --    2.20797   2.21417   2.21866   2.23424   2.24641
 Alpha virt. eigenvalues --    2.25021   2.25406   2.26281   2.27499   2.28220
 Alpha virt. eigenvalues --    2.28813   2.29141   2.29446   2.31019   2.31425
 Alpha virt. eigenvalues --    2.33200   2.34269   2.34625   2.35497   2.36072
 Alpha virt. eigenvalues --    2.37364   2.38152   2.39272   2.40229   2.40767
 Alpha virt. eigenvalues --    2.41312   2.41761   2.42420   2.42939   2.43596
 Alpha virt. eigenvalues --    2.44761   2.45061   2.45406   2.46456   2.47846
 Alpha virt. eigenvalues --    2.48822   2.49997   2.50177   2.51328   2.52086
 Alpha virt. eigenvalues --    2.52608   2.53420   2.54699   2.55027   2.56003
 Alpha virt. eigenvalues --    2.56847   2.57177   2.57799   2.58479   2.58540
 Alpha virt. eigenvalues --    2.58922   2.59497   2.59639   2.60679   2.61235
 Alpha virt. eigenvalues --    2.62109   2.62849   2.63062   2.63748   2.64372
 Alpha virt. eigenvalues --    2.64663   2.66459   2.67614   2.69348   2.69676
 Alpha virt. eigenvalues --    2.71078   2.71491   2.72272   2.72760   2.74980
 Alpha virt. eigenvalues --    2.75155   2.76786   2.77896   2.77924   2.78658
 Alpha virt. eigenvalues --    2.80002   2.80426   2.81219   2.81362   2.82371
 Alpha virt. eigenvalues --    2.83026   2.83779   2.84569   2.85585   2.85933
 Alpha virt. eigenvalues --    2.87490   2.88516   2.89874   2.90284   2.91148
 Alpha virt. eigenvalues --    2.92281   2.96325   2.98452   3.00520   3.01334
 Alpha virt. eigenvalues --    3.03053   3.04083   3.05766   3.06813   3.07762
 Alpha virt. eigenvalues --    3.08218   3.09417   3.09904   3.11003   3.11460
 Alpha virt. eigenvalues --    3.11657   3.12506   3.13092   3.13768   3.13993
 Alpha virt. eigenvalues --    3.15946   3.17327   3.18721   3.18965   3.19699
 Alpha virt. eigenvalues --    3.19954   3.20694   3.21016   3.21071   3.22223
 Alpha virt. eigenvalues --    3.22599   3.22991   3.24349   3.25172   3.25823
 Alpha virt. eigenvalues --    3.26252   3.26590   3.27535   3.27730   3.28177
 Alpha virt. eigenvalues --    3.28413   3.29539   3.29736   3.30933   3.31763
 Alpha virt. eigenvalues --    3.32382   3.33131   3.33925   3.34446   3.35581
 Alpha virt. eigenvalues --    3.36579   3.37265   3.37591   3.37971   3.39003
 Alpha virt. eigenvalues --    3.39089   3.39879   3.40433   3.40759   3.41392
 Alpha virt. eigenvalues --    3.41955   3.42385   3.42891   3.43844   3.44457
 Alpha virt. eigenvalues --    3.44701   3.45520   3.45759   3.46514   3.46971
 Alpha virt. eigenvalues --    3.47127   3.47892   3.48606   3.48959   3.49530
 Alpha virt. eigenvalues --    3.50116   3.50729   3.51251   3.52295   3.52598
 Alpha virt. eigenvalues --    3.53238   3.53761   3.54292   3.54776   3.55109
 Alpha virt. eigenvalues --    3.55585   3.55895   3.56675   3.56965   3.58012
 Alpha virt. eigenvalues --    3.58411   3.59215   3.59889   3.60346   3.60689
 Alpha virt. eigenvalues --    3.62061   3.62324   3.62846   3.63466   3.63523
 Alpha virt. eigenvalues --    3.64832   3.65523   3.66193   3.66921   3.67980
 Alpha virt. eigenvalues --    3.68367   3.68766   3.69801   3.70320   3.71285
 Alpha virt. eigenvalues --    3.72377   3.72505   3.72895   3.73789   3.74096
 Alpha virt. eigenvalues --    3.74797   3.76190   3.76845   3.78050   3.78456
 Alpha virt. eigenvalues --    3.79037   3.80665   3.81756   3.82363   3.83233
 Alpha virt. eigenvalues --    3.85076   3.85402   3.86938   3.87138   3.87995
 Alpha virt. eigenvalues --    3.89462   3.90798   3.91976   3.92088   3.93230
 Alpha virt. eigenvalues --    3.93531   3.93850   3.94974   3.96488   3.98777
 Alpha virt. eigenvalues --    4.01343   4.03057   4.04650   4.07016   4.10449
 Alpha virt. eigenvalues --    4.11246   4.11984   4.12152   4.12541   4.12890
 Alpha virt. eigenvalues --    4.13409   4.13561   4.14304   4.15618   4.16103
 Alpha virt. eigenvalues --    4.17118   4.17897   4.18877   4.19570   4.20721
 Alpha virt. eigenvalues --    4.21111   4.22289   4.28329   4.30557   4.40107
 Alpha virt. eigenvalues --    4.40587   4.40996   4.42029   4.46527   4.49220
 Alpha virt. eigenvalues --    4.49654   4.50523   4.53334   4.55572   4.62957
 Alpha virt. eigenvalues --    4.66017   4.77363   4.78549   4.79200   4.80023
 Alpha virt. eigenvalues --    4.82450   4.84023   4.87280   4.92923   5.26092
 Alpha virt. eigenvalues --    5.26960   5.27906   5.28541   5.30321   5.31820
 Alpha virt. eigenvalues --    5.37849   5.44711   5.46757   5.48100   5.56077
 Alpha virt. eigenvalues --    5.59583  13.40910  13.58493  13.72682  23.56736
 Alpha virt. eigenvalues --   23.60012  23.81370  23.82936  23.90818  23.92071
 Alpha virt. eigenvalues --   23.93116  23.94321  23.95633  23.95802  23.97488
 Alpha virt. eigenvalues --   23.98054  23.98715  23.99644  23.99787  24.00304
 Alpha virt. eigenvalues --   24.02991  24.03450  24.07820  24.10497  24.11133
 Alpha virt. eigenvalues --   24.13257  24.24469  35.49083  35.50606  39.07674
          Condensed to atoms (all electrons):
 Mulliken charges:
               1
     1  Pt   1.123182
     2  C   -0.364330
     3  C    0.112455
     4  C    0.113155
     5  C   -0.134477
     6  C   -0.141967
     7  C   -0.073810
     8  H    0.093077
     9  H    0.097190
    10  H    0.088607
    11  N   -0.637788
    12  N   -0.623525
    13  C   -0.434693
    14  H    0.135124
    15  H    0.137260
    16  H    0.189917
    17  C   -0.066479
    18  H    0.156937
    19  H    0.148509
    20  C   -0.074952
    21  H    0.155363
    22  H    0.155848
    23  C   -0.090531
    24  C   -0.289540
    25  H    0.162020
    26  H    0.153122
    27  H    0.135783
    28  H    0.122034
    29  H    0.120514
    30  C   -0.069858
    31  C   -0.285173
    32  H    0.162165
    33  H    0.155226
    34  H    0.136243
    35  H    0.116541
    36  H    0.115838
    37  C   -0.084338
    38  C   -0.288617
    39  H    0.158352
    40  H    0.150812
    41  H    0.136972
    42  H    0.122107
    43  H    0.116249
    44  C   -0.083555
    45  C   -0.284109
    46  H    0.157427
    47  H    0.161628
    48  H    0.134808
    49  H    0.116786
    50  H    0.115336
    51  C   -0.256392
    52  C   -0.141709
    53  C   -0.177001
    54  C   -0.115660
    55  H    0.095763
    56  C   -0.096823
    57  H    0.091956
    58  C   -0.051850
    59  H    0.074605
    60  H    0.074840
    61  H    0.073425
 Sum of Mulliken charges =   1.00000
 Mulliken charges with hydrogens summed into heavy atoms:
               1
     1  Pt   1.123182
     2  C   -0.364330
     3  C    0.112455
     4  C    0.113155
     5  C   -0.041400
     6  C   -0.044777
     7  C    0.014797
    11  N   -0.637788
    12  N   -0.623525
    13  C    0.027609
    17  C    0.238967
    20  C    0.236259
    23  C    0.224611
    24  C    0.088790
    30  C    0.247533
    31  C    0.083449
    37  C    0.224826
    38  C    0.086711
    44  C    0.235500
    45  C    0.082822
    51  C   -0.256392
    52  C   -0.045946
    53  C   -0.085045
    54  C   -0.041055
    56  C   -0.021983
    58  C    0.021575
 APT charges:
               1
     1  Pt   0.407716
     2  C    0.346431
     3  C   -0.127503
     4  C   -0.132226
     5  C    0.012689
     6  C    0.006229
     7  C   -0.107188
     8  H    0.032443
     9  H    0.032324
    10  H    0.035903
    11  N   -0.605890
    12  N   -0.605258
    13  C    0.243875
    14  H   -0.001873
    15  H    0.001139
    16  H   -0.061420
    17  C    0.279817
    18  H    0.007459
    19  H    0.006312
    20  C    0.281914
    21  H    0.000764
    22  H    0.013780
    23  C    0.355553
    24  C   -0.016149
    25  H    0.012489
    26  H   -0.017300
    27  H   -0.006571
    28  H    0.002927
    29  H    0.010670
    30  C    0.275623
    31  C   -0.002492
    32  H    0.001956
    33  H    0.014321
    34  H    0.005233
    35  H   -0.003443
    36  H    0.007489
    37  C    0.277329
    38  C    0.003612
    39  H    0.039577
    40  H   -0.006499
    41  H   -0.002508
    42  H   -0.007089
    43  H   -0.000127
    44  C    0.358558
    45  C   -0.020133
    46  H   -0.017235
    47  H    0.000731
    48  H   -0.005178
    49  H    0.007113
    50  H    0.015966
    51  C    0.137556
    52  C   -0.295738
    53  C   -0.215901
    54  C    0.035330
    55  H    0.029332
    56  C    0.021461
    57  H    0.032453
    58  C   -0.107781
    59  H   -0.005521
    60  H   -0.001163
    61  H    0.018114
 Sum of APT charges =   1.00000
 APT charges with hydrogens summed into heavy atoms:
               1
     1  Pt   0.407716
     2  C    0.346431
     3  C   -0.127503
     4  C   -0.132226
     5  C    0.045132
     6  C    0.038553
     7  C   -0.071285
    11  N   -0.605890
    12  N   -0.605258
    13  C    0.181721
    17  C    0.293587
    20  C    0.296458
    23  C    0.350742
    24  C   -0.009123
    30  C    0.291901
    31  C    0.006787
    37  C    0.310406
    38  C   -0.006112
    44  C    0.342054
    45  C   -0.002232
    51  C    0.137556
    52  C   -0.266407
    53  C   -0.183448
    54  C    0.029809
    56  C    0.020298
    58  C   -0.089667
 Electronic spatial extent (au):  <R**2>=           9025.7044
 Charge=              1.0000 electrons
 Dipole moment (field-independent basis, Debye):
    X=              2.4982    Y=             -2.9684    Z=             -0.9866  Tot=              4.0032
 Quadrupole moment (field-independent basis, Debye-Ang):
   XX=           -141.0192   YY=           -145.6157   ZZ=           -158.2683
   XY=             13.7909   XZ=              1.7750   YZ=             -2.5571
 Traceless Quadrupole moment (field-independent basis, Debye-Ang):
   XX=              7.2819   YY=              2.6854   ZZ=             -9.9673
   XY=             13.7909   XZ=              1.7750   YZ=             -2.5571
 Octapole moment (field-independent basis, Debye-Ang**2):
  XXX=             37.8914  YYY=            -36.2770  ZZZ=            -52.1470  XYY=             -7.5829
  XXY=             -1.8133  XXZ=            -11.7001  XZZ=             -4.6743  YZZ=              5.3228
  YYZ=             -4.4436  XYZ=            -13.9547
 Hexadecapole moment (field-independent basis, Debye-Ang**3):
 XXXX=          -5003.4604 YYYY=          -5036.1698 ZZZZ=          -1556.7282 XXXY=             88.9446
 XXXZ=             77.9238 YYYX=             36.0931 YYYZ=            -88.9434 ZZZX=            -17.2317
 ZZZY=             17.2561 XXYY=          -1569.4095 XXZZ=          -1076.0059 YYZZ=          -1068.8706
 XXYZ=            -40.8139 YYXZ=             29.8796 ZZXY=             25.1942
 N-N= 2.881925489807D+03 E-N=-8.318007137611D+03  KE= 1.039758468039D+03
  Exact polarizability:     439.946     -50.085     455.509      15.644     -14.969     352.332
 Approx polarizability:     489.873     -51.876     505.262      20.999     -21.587     450.251
   1 Symmetry operations used in ECPInt.
 ECPInt:  NShTT=   46360 NPrTT=  151530 LenC2=   40076 LenP2D=   86461.
 LDataN:  DoStor=T MaxTD1= 9 Len=  602
 Number of processors reduced to  25 by ecpmxn.
 D2PCM: PCM CHGder 2nd derivatives, FixD1E=F FixD2E=F DoIter=F DoCFld=F I1PDM=0
 Calling FoFJK, ICntrl=    100127 FMM=F ISym2X=0 I1Cent= 0 IOpClX= 0 NMat=1 NMatS=1 NMatT=0.
 Defaulting to unpruned grid for atomic number  78.
 Defaulting to unpruned grid for atomic number  78.
 Defaulting to unpruned grid for atomic number  78.
 Defaulting to unpruned grid for atomic number  78.
 Defaulting to unpruned grid for atomic number  78.
 Defaulting to unpruned grid for atomic number  78.
 Defaulting to unpruned grid for atomic number  78.
 Defaulting to unpruned grid for atomic number  78.
 Defaulting to unpruned grid for atomic number  78.
 Defaulting to unpruned grid for atomic number  78.
 Defaulting to unpruned grid for atomic number  78.
 Defaulting to unpruned grid for atomic number  78.
 Defaulting to unpruned grid for atomic number  78.
 Defaulting to unpruned grid for atomic number  78.
 Defaulting to unpruned grid for atomic number  78.
 Defaulting to unpruned grid for atomic number  78.
 Defaulting to unpruned grid for atomic number  78.
 Defaulting to unpruned grid for atomic number  78.
 Defaulting to unpruned grid for atomic number  78.
 Defaulting to unpruned grid for atomic number  78.
 Defaulting to unpruned grid for atomic number  78.
 Defaulting to unpruned grid for atomic number  78.
 Defaulting to unpruned grid for atomic number  78.
 Defaulting to unpruned grid for atomic number  78.
 Defaulting to unpruned grid for atomic number  78.
 Defaulting to unpruned grid for atomic number  78.
 Defaulting to unpruned grid for atomic number  78.
 Defaulting to unpruned grid for atomic number  78.
 Defaulting to unpruned grid for atomic number  78.
 Defaulting to unpruned grid for atomic number  78.
 Defaulting to unpruned grid for atomic number  78.
 Defaulting to unpruned grid for atomic number  78.
 Defaulting to unpruned grid for atomic number  78.
 Defaulting to unpruned grid for atomic number  78.
 Defaulting to unpruned grid for atomic number  78.
 Defaulting to unpruned grid for atomic number  78.
 Defaulting to unpruned grid for atomic number  78.
 Defaulting to unpruned grid for atomic number  78.
 Defaulting to unpruned grid for atomic number  78.
 Defaulting to unpruned grid for atomic number  78.
 Defaulting to unpruned grid for atomic number  78.
 Defaulting to unpruned grid for atomic number  78.
 Defaulting to unpruned grid for atomic number  78.
 Defaulting to unpruned grid for atomic number  78.
 Defaulting to unpruned grid for atomic number  78.
 Defaulting to unpruned grid for atomic number  78.
 Defaulting to unpruned grid for atomic number  78.
 Defaulting to unpruned grid for atomic number  78.
 Full mass-weighted force constant matrix:
 Low frequencies --- -228.9426   -8.6882    0.0005    0.0005    0.0006    9.9638
 Low frequencies ---   20.8618   31.7773   45.3189
 ******    1 imaginary frequencies (negative Signs) ****** 
 Diagonal vibrational polarizability:
       43.0047655      46.1982953      34.7592239
 Harmonic frequencies (cm**-1), IR intensities (KM/Mole), Raman scattering
 activities (A**4/AMU), depolarization ratios for plane and unpolarized
 incident light, reduced masses (AMU), force constants (mDyne/A),
 and normal coordinates:
                      1                      2                      3
                      A                      A                      A
 Frequencies --   -228.8076                29.3304                45.0753
 Red. masses --      5.9997                 4.2800                 4.7771
 Frc consts  --      0.1851                 0.0022                 0.0057
 IR Inten    --     22.8055                 0.5156                 0.2365
  Atom  AN      X      Y      Z        X      Y      Z        X      Y      Z
     1  78     0.02  -0.02  -0.03    -0.00  -0.01  -0.01    -0.03  -0.03   0.00
     2   6    -0.06   0.09   0.38    -0.00   0.00   0.03     0.01   0.01  -0.00
     3   6    -0.01   0.01   0.14    -0.01   0.01   0.06     0.04  -0.00   0.01
     4   6    -0.00   0.02   0.14    -0.01   0.01   0.04     0.00   0.03  -0.02
     5   6     0.05  -0.07  -0.01    -0.02   0.04   0.10     0.07   0.01  -0.00
     6   6     0.06  -0.06  -0.01    -0.02   0.04   0.09     0.03   0.05  -0.04
     7   6     0.05  -0.06  -0.03    -0.03   0.06   0.12     0.06   0.04  -0.03
     8   1     0.10  -0.13  -0.12    -0.03   0.05   0.13     0.09   0.01   0.01
     9   1     0.10  -0.11  -0.10    -0.03   0.05   0.10     0.03   0.07  -0.06
    10   1     0.08  -0.10  -0.10    -0.04   0.08   0.16     0.09   0.05  -0.04
    11   7     0.00  -0.01  -0.01    -0.00   0.01  -0.04    -0.05   0.01   0.01
    12   7     0.01  -0.00  -0.00    -0.01  -0.01  -0.03     0.01  -0.05  -0.00
    13   6    -0.26   0.33  -0.17     0.01  -0.04   0.01    -0.02  -0.02   0.00
    14   1    -0.27   0.29   0.02     0.01  -0.04   0.03    -0.03  -0.02   0.01
    15   1    -0.18   0.17   0.08     0.02  -0.05   0.02    -0.02  -0.02  -0.00
    16   1    -0.11   0.25  -0.39     0.02  -0.05  -0.02    -0.02  -0.02   0.00
    17   6     0.01  -0.00   0.04     0.00  -0.01   0.02     0.04  -0.04   0.03
    18   1     0.08  -0.00   0.04     0.04  -0.04   0.03     0.04  -0.07   0.03
    19   1    -0.03  -0.00   0.01    -0.01   0.01   0.03     0.05  -0.04   0.05
    20   6     0.00  -0.01   0.04    -0.00  -0.00   0.00    -0.04   0.04  -0.02
    21   1    -0.01  -0.08   0.04     0.01  -0.04   0.01    -0.07   0.06  -0.03
    22   1     0.01   0.03   0.00    -0.00   0.01  -0.00    -0.03   0.06  -0.04
    23   6     0.00  -0.01  -0.01    -0.00  -0.04  -0.09    -0.08   0.04   0.04
    24   6    -0.00  -0.01  -0.00    -0.00  -0.04  -0.14    -0.10   0.07   0.07
    25   1    -0.00  -0.02  -0.02    -0.00  -0.03  -0.11    -0.09   0.02   0.06
    26   1     0.02  -0.02  -0.01    -0.01  -0.08  -0.07    -0.07   0.07   0.03
    27   1    -0.00  -0.01  -0.00    -0.01  -0.08  -0.18    -0.13   0.10   0.10
    28   1    -0.01  -0.01  -0.00     0.00   0.01  -0.17    -0.12   0.04   0.09
    29   1    -0.00  -0.00   0.00    -0.00  -0.04  -0.12    -0.09   0.10   0.05
    30   6    -0.01   0.00  -0.01     0.01   0.07  -0.06    -0.05  -0.03   0.03
    31   6    -0.01  -0.00  -0.00     0.01   0.12  -0.09    -0.05  -0.03   0.03
    32   1    -0.01   0.00  -0.00     0.03   0.10  -0.01    -0.04  -0.05   0.01
    33   1    -0.01   0.00  -0.01     0.00   0.07  -0.09    -0.06  -0.03   0.05
    34   1    -0.02  -0.01  -0.00     0.02   0.17  -0.11    -0.05  -0.06   0.04
    35   1    -0.02  -0.01  -0.00     0.02   0.13  -0.04    -0.03  -0.03  -0.01
    36   1    -0.01  -0.00   0.00     0.01   0.09  -0.13    -0.06  -0.00   0.04
    37   6    -0.00   0.02  -0.00    -0.09   0.01  -0.06    -0.02  -0.04  -0.01
    38   6     0.01   0.01   0.00    -0.10   0.00  -0.10    -0.00  -0.05  -0.01
    39   1    -0.02   0.01  -0.02    -0.11   0.00  -0.10    -0.04  -0.04  -0.03
    40   1    -0.00   0.03  -0.00    -0.12   0.03  -0.01    -0.02  -0.01   0.01
    41   1     0.00   0.02   0.00    -0.16   0.01  -0.11    -0.03  -0.03  -0.01
    42   1     0.01  -0.00  -0.00    -0.08  -0.02  -0.15     0.00  -0.09  -0.03
    43   1     0.02   0.01   0.01    -0.08   0.00  -0.08     0.03  -0.05   0.02
    44   6     0.00  -0.00  -0.00     0.03  -0.03  -0.09     0.01  -0.09  -0.01
    45   6     0.01  -0.01  -0.00     0.06  -0.04  -0.13     0.06  -0.12  -0.02
    46   1    -0.00   0.01  -0.00     0.07  -0.02  -0.07     0.01  -0.06  -0.01
    47   1    -0.00  -0.01   0.01     0.01  -0.03  -0.12    -0.02  -0.11  -0.01
    48   1     0.01  -0.01  -0.00     0.09  -0.05  -0.16     0.04  -0.14  -0.01
    49   1     0.02   0.00  -0.01     0.09  -0.03  -0.10     0.08  -0.09  -0.04
    50   1     0.02  -0.01  -0.00     0.02  -0.04  -0.15     0.08  -0.14  -0.02
    51   6    -0.01   0.01   0.01     0.02  -0.01   0.04    -0.02  -0.01  -0.00
    52   6    -0.01   0.01   0.01     0.02   0.05   0.09     0.08   0.07  -0.01
    53   6    -0.01   0.01   0.01     0.03  -0.08   0.07    -0.01   0.01  -0.01
    54   6    -0.01   0.01   0.00     0.04   0.05   0.15     0.21   0.17  -0.03
    55   1    -0.01   0.01   0.00     0.01   0.11   0.07     0.07   0.05  -0.01
    56   6    -0.01   0.01   0.01     0.05  -0.08   0.13     0.12   0.12  -0.02
    57   1    -0.01   0.02   0.01     0.03  -0.14   0.04    -0.08  -0.05   0.00
    58   6    -0.01   0.01   0.00     0.06  -0.02   0.17     0.23   0.20  -0.03
    59   1    -0.01   0.01   0.00     0.05   0.11   0.18     0.29   0.24  -0.04
    60   1    -0.01   0.02   0.01     0.06  -0.14   0.15     0.13   0.13  -0.03
    61   1    -0.01   0.01   0.00     0.07  -0.02   0.22     0.34   0.29  -0.05
                      4                      5                      6
                      A                      A                      A
 Frequencies --     57.0381                59.5575                75.3884
 Red. masses --      3.5158                 4.2227                 3.6483
 Frc consts  --      0.0067                 0.0088                 0.0122
 IR Inten    --      0.3885                 1.1803                 0.0240
  Atom  AN      X      Y      Z        X      Y      Z        X      Y      Z
     1  78    -0.00  -0.00  -0.03     0.00  -0.00   0.07    -0.00  -0.01   0.01
     2   6    -0.01  -0.00  -0.00     0.00  -0.01  -0.01    -0.00  -0.00  -0.01
     3   6    -0.01  -0.01  -0.05     0.01  -0.03  -0.06    -0.01  -0.02  -0.05
     4   6    -0.02   0.00   0.06     0.00  -0.01  -0.00    -0.01  -0.00   0.05
     5   6    -0.04  -0.02  -0.02     0.03  -0.06  -0.11    -0.03  -0.03  -0.04
     6   6    -0.05  -0.00   0.09     0.01  -0.03  -0.04    -0.04  -0.01   0.06
     7   6    -0.06  -0.01   0.05     0.03  -0.06  -0.10    -0.04  -0.02   0.02
     8   1    -0.06  -0.03  -0.06     0.04  -0.08  -0.15    -0.04  -0.04  -0.07
     9   1    -0.07   0.00   0.15     0.01  -0.03  -0.03    -0.05  -0.00   0.11
    10   1    -0.09  -0.01   0.07     0.04  -0.08  -0.14    -0.06  -0.03   0.03
    11   7    -0.01   0.01   0.01    -0.00   0.01   0.00    -0.01   0.01   0.03
    12   7     0.01  -0.01  -0.01     0.01  -0.01   0.01     0.00  -0.01  -0.04
    13   6     0.06   0.03  -0.02    -0.01   0.06   0.03     0.04   0.05  -0.01
    14   1     0.14   0.00  -0.04    -0.13   0.12  -0.03     0.11   0.03  -0.04
    15   1     0.06   0.11   0.01    -0.01  -0.04   0.03     0.03   0.13   0.01
    16   1     0.01  -0.01  -0.03     0.07   0.16   0.07    -0.02   0.03   0.01
    17   6    -0.00   0.00  -0.09     0.01  -0.01  -0.04     0.00  -0.01  -0.09
    18   1     0.01   0.09  -0.12    -0.01   0.01  -0.05     0.02   0.05  -0.10
    19   1    -0.01  -0.04  -0.16     0.01  -0.03  -0.05    -0.01  -0.04  -0.13
    20   6     0.00   0.00   0.08    -0.00  -0.00   0.02     0.00   0.00   0.07
    21   1     0.08  -0.00   0.09     0.01  -0.00   0.02     0.05   0.01   0.08
    22   1    -0.02   0.00   0.14    -0.00  -0.00   0.03    -0.02   0.00   0.11
    23   6     0.03  -0.03  -0.03    -0.02  -0.05  -0.06    -0.01  -0.02  -0.01
    24   6     0.03  -0.03  -0.02    -0.01  -0.06  -0.17    -0.02  -0.01  -0.03
    25   1     0.02  -0.02  -0.08    -0.01  -0.03  -0.06    -0.02  -0.03  -0.03
    26   1     0.06  -0.06  -0.02    -0.06  -0.10  -0.03     0.00  -0.06   0.01
    27   1     0.07  -0.06  -0.06    -0.04  -0.12  -0.21    -0.02  -0.05  -0.06
    28   1    -0.01   0.01  -0.05     0.03   0.00  -0.21    -0.04   0.03  -0.06
    29   1     0.03  -0.03   0.04    -0.02  -0.07  -0.16    -0.01  -0.00   0.01
    30   6    -0.06   0.06  -0.01     0.02   0.08  -0.02    -0.02   0.05   0.01
    31   6    -0.09   0.10   0.03     0.03   0.14  -0.07    -0.03   0.11   0.01
    32   1    -0.07   0.07  -0.00     0.05   0.10   0.03     0.01   0.06   0.04
    33   1    -0.08   0.05  -0.06    -0.00   0.07  -0.06    -0.04   0.04  -0.01
    34   1    -0.14   0.13   0.00     0.05   0.20  -0.10    -0.04   0.15  -0.02
    35   1    -0.09   0.11   0.09     0.05   0.16  -0.03    -0.01   0.13   0.05
    36   1    -0.08   0.08   0.03     0.01   0.12  -0.13    -0.04   0.09  -0.02
    37   6     0.10  -0.05   0.03     0.00  -0.09   0.02     0.03  -0.05  -0.02
    38   6     0.18  -0.10   0.10    -0.07  -0.06  -0.08     0.05  -0.07  -0.02
    39   1     0.06  -0.07   0.07     0.07  -0.07   0.09     0.02  -0.05   0.00
    40   1     0.14  -0.02  -0.04    -0.01  -0.20   0.02     0.04  -0.05  -0.04
    41   1     0.25  -0.11   0.10    -0.08  -0.15  -0.07     0.06  -0.09  -0.02
    42   1     0.14  -0.14   0.17    -0.05   0.04  -0.09     0.04  -0.08  -0.01
    43   1     0.21  -0.09   0.07    -0.13  -0.07  -0.17     0.06  -0.06  -0.05
    44   6    -0.05   0.02   0.06     0.02   0.05   0.00    -0.01   0.00  -0.02
    45   6    -0.08   0.04   0.10     0.01   0.07  -0.08    -0.01   0.01  -0.03
    46   1    -0.09   0.02   0.04     0.03   0.10   0.03    -0.02   0.01  -0.02
    47   1    -0.01   0.03   0.10     0.02   0.03   0.05    -0.01  -0.00  -0.00
    48   1    -0.11   0.05   0.14     0.03   0.11  -0.08    -0.02   0.02  -0.02
    49   1    -0.11   0.03   0.08     0.01   0.08  -0.11    -0.02   0.01  -0.05
    50   1    -0.04   0.05   0.13    -0.02   0.02  -0.11    -0.00  -0.01  -0.03
    51   6    -0.00  -0.01  -0.01    -0.01  -0.00   0.03    -0.02  -0.02   0.01
    52   6     0.08   0.07  -0.00     0.07   0.01  -0.01    -0.15  -0.13   0.02
    53   6    -0.06  -0.08   0.00    -0.10   0.00   0.02     0.14   0.11  -0.00
    54   6     0.10   0.09   0.01     0.07   0.03  -0.08    -0.10  -0.09   0.02
    55   1     0.12   0.13  -0.01     0.14   0.00   0.00    -0.28  -0.24   0.03
    56   6    -0.04  -0.07   0.02    -0.10   0.02  -0.05     0.20   0.16  -0.00
    57   1    -0.12  -0.13   0.00    -0.16   0.00   0.05     0.23   0.19  -0.01
    58   6     0.04   0.01   0.02    -0.01   0.03  -0.09     0.08   0.06   0.00
    59   1     0.16   0.15   0.02     0.14   0.04  -0.11    -0.21  -0.18   0.02
    60   1    -0.09  -0.13   0.03    -0.17   0.03  -0.06     0.34   0.28  -0.01
    61   1     0.05   0.02   0.03    -0.01   0.05  -0.14     0.13   0.10   0.00
                      7                      8                      9
                      A                      A                      A
 Frequencies --     98.5535               110.9281               116.4880
 Red. masses --      2.5568                 2.8975                 1.6466
 Frc consts  --      0.0146                 0.0210                 0.0132
 IR Inten    --      1.1275                 0.1245                 0.0919
  Atom  AN      X      Y      Z        X      Y      Z        X      Y      Z
     1  78    -0.02   0.02   0.00     0.00   0.00   0.01     0.00   0.00  -0.00
     2   6    -0.01   0.02   0.00    -0.01  -0.01  -0.02    -0.01  -0.01  -0.00
     3   6    -0.00   0.01   0.00    -0.02   0.01  -0.01    -0.02  -0.01  -0.01
     4   6    -0.01   0.00  -0.00    -0.01  -0.01  -0.02    -0.01  -0.02   0.01
     5   6     0.00   0.00  -0.02    -0.06   0.05   0.09    -0.02  -0.03  -0.03
     6   6     0.00  -0.00  -0.02    -0.05   0.03   0.06    -0.02  -0.04   0.00
     7   6     0.01  -0.01  -0.03    -0.08   0.07   0.13    -0.02  -0.04  -0.02
     8   1     0.01  -0.00  -0.02    -0.09   0.08   0.12    -0.03  -0.03  -0.04
     9   1     0.01  -0.01  -0.04    -0.05   0.03   0.08    -0.02  -0.05   0.01
    10   1     0.02  -0.02  -0.05    -0.12   0.11   0.22    -0.02  -0.06  -0.04
    11   7     0.01   0.00   0.02     0.01  -0.01  -0.01     0.01  -0.01  -0.01
    12   7    -0.01  -0.01  -0.01    -0.01   0.00  -0.02     0.00   0.01   0.01
    13   6    -0.00   0.00   0.02    -0.07   0.07  -0.04     0.01  -0.01   0.01
    14   1     0.03  -0.01   0.02    -0.23   0.13  -0.07     0.01  -0.01  -0.00
    15   1    -0.01   0.04   0.01    -0.05  -0.09  -0.03     0.01  -0.01   0.01
    16   1    -0.04  -0.02   0.02     0.05   0.18  -0.01     0.01  -0.01   0.01
    17   6     0.01   0.00  -0.00    -0.01   0.01  -0.05    -0.02   0.01  -0.01
    18   1     0.03   0.00  -0.00     0.02   0.05  -0.07    -0.02   0.02  -0.01
    19   1     0.01  -0.01  -0.01    -0.02  -0.02  -0.10    -0.03   0.01  -0.01
    20   6    -0.00  -0.00   0.00    -0.01  -0.02  -0.07     0.01  -0.02   0.02
    21   1    -0.01   0.00   0.00    -0.07  -0.04  -0.08     0.05  -0.02   0.03
    22   1     0.00  -0.01  -0.00     0.03  -0.03  -0.13    -0.00  -0.03   0.05
    23   6     0.05   0.01   0.02    -0.03   0.01   0.01     0.02  -0.03  -0.04
[...]
 0249,-0.00000006,0.00000035,-0.00000302,0.00198896,0.00586413,0.000633
 70,-0.00476604,0.00846507,-0.01546691,-0.00072724,-0.00006661,0.000729
 61,-0.10178392,0.06944010,-0.09421538,-0.00178015,-0.00256135,0.000266
 14,0.00471820,0.00314232,0.00113647,-0.00075413,-0.00065370,-0.0000264
 0,0.00556069,-0.00229640,0.00469518,0.09916378,-0.00026742,0.00031905,
 0.00018031,-0.00002325,0.00009641,-0.00005816,0.00005409,-0.00003026,0
 .00003671,0.00001952,-0.00005661,0.00002428,-0.00000286,0.00002424,-0.
 00000830,-0.00001800,-0.00001274,0.00000014,0.00004253,-0.00003091,0.0
 0003081,-0.00000044,-0.00001271,0.00000502,0.00001334,-0.00000001,0.00
 000627,0.00000298,-0.00000335,0.00000623,-0.00000786,0.00012494,0.0000
 5340,-0.00013063,-0.00003798,0.00013388,0.00002326,-0.00008412,0.00001
 754,0.00001706,-0.00001883,-0.00008835,0.00001160,-0.00002161,-0.00006
 619,0.00001111,-0.00001955,-0.00007196,-0.00001507,0.00002918,-0.00000
 384,-0.00000326,0.00001365,-0.00000690,0.00000209,-0.00001737,0.000006
 15,-0.00003334,0.00001848,0.00001496,-0.00001327,0.00000469,-0.0000082
 9,0.00001397,-0.00000455,0.00000472,0.00002338,-0.00006236,0.00006656,
 -0.00001216,0.00001996,-0.00002335,-0.00002971,0.00000863,0.00001024,0
 .00000688,-0.00001025,-0.00000550,0.00000853,0.00001249,-0.00000295,0.
 00000102,-0.00000032,0.00000283,0.00000038,-0.00000459,0.00000357,0.00
 009734,0.00000747,0.00002157,-0.00000106,0.00000895,0.00000348,-0.0000
 0496,0.00002256,-0.00002654,-0.00000088,-0.00001480,-0.00000541,0.0000
 0628,0.00000410,0.00000871,0.00000777,-0.00000437,-0.00000016,0.000012
 51,0.00000381,0.00000201,0.00002998,-0.00003760,-0.00010263,0.00000254
 ,0.00002129,0.00002410,0.00001804,0.00006515,0.00001263,0.00000181,-0.
 00000691,-0.00001239,-0.00000965,-0.00000606,0.00000851,-0.00001113,-0
 .00000487,-0.00000117,-0.00000055,-0.00000459,-0.00000414,0.00006471,-
 0.00004263,0.00006361,-0.00001440,0.00001257,-0.00001509,0.00000538,-0
 .00000452,-0.00000251,0.00000428,0.00000805,0.00000951,-0.00001344,-0.
 00001302,-0.00001002,0.00000149,0.00000080,0.00000275,0.00000064,-0.00
 000425,0.00000394,0.00585364,-0.00009441,-0.00121087,0.01021710,-0.006
 94387,0.01854527,-0.00007590,-0.00081339,-0.00079892,0.06941417,-0.110
 00863,0.09649748,-0.00261081,-0.00087737,0.00005909,0.00318788,0.00332
 606,-0.00231333,-0.00066115,-0.00051847,0.00013932,-0.00395333,0.00735
 258,-0.00728581,-0.07896861,0.10935292,0.00003430,-0.00003255,0.000202
 14,-0.00003657,0.00003365,-0.00005258,-0.00002811,-0.00000464,0.000003
 51,0.00000876,0.00002692,0.00000262,0.00000276,0.00000677,0.00000002,-
 0.00000743,-0.00000034,0.00000029,-0.00000161,0.00000090,0.00000255,-0
 .00000089,0.00000293,-0.00000433,-0.00000310,0.00000053,-0.00000440,-0
 .00000098,0.00000119,-0.00000199,0.00000942,-0.00001562,0.00002098,0.0
 0001447,-0.00000472,0.00001021,0.00004876,-0.00005566,-0.00008199,0.00
 000102,0.00000417,-0.00000671,-0.00000555,-0.00000064,-0.00000950,-0.0
 0000581,0.00000659,0.00000514,0.00001239,-0.00001760,-0.00000087,-0.00
 000127,0.00000218,0.00000263,0.00000069,0.00000365,-0.00000211,0.00001
 514,-0.00001468,-0.00000485,-0.00000095,0.00000106,0.00000263,-0.00000
 368,0.00000075,-0.00000160,0.00000075,0.00000058,-0.00001536,-0.000003
 39,0.00000646,0.00000262,0.00001952,0.00002321,-0.00000266,0.00000048,
 0.00000041,0.00000258,-0.00000198,-0.00000223,0.00000334,-0.00000134,0
 .00000020,-0.00000327,-0.00000597,-0.00000238,-0.00000127,0.00000689,-
 0.00000915,0.00000023,-0.00000304,0.00000774,0.00000540,0.00001269,-0.
 00001276,0.00000841,0.00002382,0.00001942,-0.00000198,0.00000150,0.000
 00017,-0.00000050,-0.00000679,0.00000145,-0.00000155,-0.00000525,-0.00
 000170,0.00000056,-0.00000170,-0.00001499,0.00000901,-0.00000858,0.000
 00438,0.00000216,-0.00002239,-0.00003836,0.00000445,0.00000135,-0.0000
 0102,0.00000191,0.00000082,-0.00000144,-0.00000004,0.00000364,0.000000
 57,0.00000041,0.00000333,0.00000767,0.00000057,-0.00000587,0.00000083,
 -0.00001409,-0.00000453,0.00000228,0.00000007,0.00000668,-0.00000223,-
 0.00000230,-0.00002287,-0.00000635,0.00000225,0.00000214,0.00000197,0.
 00000357,0.00000141,0.00000484,0.00000043,0.00000056,0.00000292,-0.000
 00235,0.00086278,-0.00149315,0.00149374,0.00393188,-0.00435462,0.00717
 270,0.00057811,-0.00062278,-0.00021127,-0.09382428,0.09599362,-0.21021
 657,-0.00014743,0.00057486,0.00059764,0.00155556,-0.00284186,-0.004166
 29,-0.00003539,0.00015555,-0.00000272,-0.01485392,0.01586208,-0.016584
 85,0.10232778,-0.10409310,0.22144059,0.00051321,-0.00012595,0.00044915
 ,-0.00010189,0.00003699,0.00002934,-0.00007565,0.00001987,-0.00002752,
 0.00000165,0.00010018,-0.00003531,0.00002271,0.00000406,-0.00000399,-0
 .00001358,-0.00001992,-0.00000634,-0.00001806,0.00001273,-0.00001334,-
 0.00000348,0.00001213,-0.00000601,-0.00001393,0.00000477,-0.00000896,-
 0.00000345,0.00000423,-0.00000229,-0.00007194,-0.00015731,0.00000112,0
 .00003485,-0.00002979,-0.00007764,-0.00004132,0.00005955,-0.00005293,-
 0.00001206,0.00001164,0.00003717,-0.00001174,0.00001686,0.00003662,-0.
 00000292,0.00000369,0.00001875,0.00001020,-0.00001861,-0.00000383,0.00
 000558,-0.00000695,0.00000257,-0.00000039,0.00000968,-0.00000288,0.000
 02926,-0.00003571,-0.00001309,0.00000675,-0.00000381,0.00000372,-0.000
 01366,0.00000408,-0.00000044,-0.00002267,0.00006655,-0.00007007,0.0000
 1261,-0.00001603,0.00002331,0.00003099,-0.00000449,0.00000256,-0.00000
 080,0.00000238,0.00000106,-0.00000795,-0.00000927,0.00000237,-0.000004
 65,-0.00000294,-0.00000577,0.00000083,0.00000086,-0.00000335,-0.000084
 33,0.00002725,0.00002815,0.00000051,-0.00000810,-0.00000160,0.00000739
 ,-0.00002857,0.00001677,0.00001491,0.00001790,0.00000283,-0.00001116,-
 0.00000254,-0.00001481,-0.00000222,-0.00000195,-0.00000088,-0.00000808
 ,-0.00000015,-0.00000087,-0.00005065,0.00003054,0.00006461,0.00001155,
 -0.00002393,-0.00002137,0.00002435,-0.00007361,0.00000954,-0.00000764,
 0.00001823,0.00000932,0.00001007,0.00000232,-0.00000351,0.00000105,-0.
 00000122,-0.00000293,-0.00000689,-0.00000140,0.00000588,0.00000411,0.0
 0001293,-0.00001729,0.00000046,-0.00000303,0.00000823,-0.00000035,0.00
 000084,-0.00000297,-0.00000682,0.00001033,0.00000307,0.00000553,0.0000
 0349,0.00000186,-0.00000172,0.00000371,-0.00000013,0.00000201,0.000001
 68,-0.00000169,0.00200307,0.00596306,0.00049371,-0.00101270,0.00032498
 ,-0.00029760,0.00076459,0.00488469,0.01874416,0.00317778,0.00465352,-0
 .00256798,-0.00072596,-0.00073341,0.00009961,-0.05178717,0.02166068,0.
 03972042,-0.00177654,-0.00264450,-0.00008349,0.00593104,-0.00430858,-0
 .01399489,0.00021402,-0.00006764,-0.00072074,0.04496824,-0.00024035,0.
 00056287,-0.00056179,0.00003974,-0.00010904,-0.00003614,0.00012409,-0.
 00002346,0.00003706,0.00001190,-0.00010093,0.00003824,-0.00003108,-0.0
 0000849,0.00000881,0.00001003,0.00002492,0.00000493,0.00001837,-0.0000
 2055,0.00001850,0.00000449,-0.00001788,0.00001094,0.00001585,-0.000005
 06,0.00000761,0.00000484,-0.00000533,0.00000266,-0.00001950,0.00005510
 ,0.00007768,-0.00014623,-0.00003068,0.00003204,0.00006847,-0.00006078,
 0.00006237,0.00001424,-0.00002078,-0.00004497,0.00001175,-0.00002283,-
 0.00004815,0.00000323,-0.00001052,-0.00002428,-0.00003398,0.00003770,0
 .00001089,-0.00000385,0.00000957,-0.00000234,0.00000204,-0.00001790,0.
 00000280,-0.00002290,0.00002375,0.00001211,-0.00000862,0.00000704,-0.0
 0000401,0.00001324,-0.00000493,0.00000288,0.00001783,0.00001879,0.0000
 3484,-0.00000002,-0.00000055,-0.00002020,0.00001851,-0.00001324,-0.000
 00054,-0.00000182,-0.00000400,0.00000168,0.00000651,0.00000815,-0.0000
 0159,0.00000045,0.00000191,0.00000322,0.00000565,-0.00000192,0.0000014
 6,0.00000693,-0.00000331,-0.00007480,-0.00001614,0.00001569,0.00002419
 ,-0.00000282,-0.00002458,-0.00000597,-0.00001972,0.00001942,-0.0000007
 9,0.00000992,0.00000827,0.00000770,0.00000250,-0.00000394,-0.00000582,
 0.00000030,0.00000028,-0.00000004,-0.00004501,-0.00005847,-0.00006581,
 0.00001508,-0.00000561,0.00001928,0.00003367,-0.00000521,-0.00000853,-
 0.00000148,0.00001281,-0.00000367,-0.00000799,-0.00001446,0.00001886,-
 0.00000644,-0.00000475,-0.00000756,-0.00000941,-0.00000254,0.00000419,
 0.00006121,-0.00002649,0.00006632,-0.00001962,0.00001571,-0.00001511,0
 .00000106,0.00000495,-0.00000436,-0.00000398,0.00001416,-0.00000512,-0
 .00000891,-0.00000818,-0.00000506,0.00000167,0.00000041,0.00000307,-0.
 00000202,-0.00000641,0.00000361,0.00603035,-0.00027105,-0.00104213,0.0
 0032568,-0.00106529,0.00046410,0.00308962,-0.00215654,-0.02283913,0.00
 461143,0.00201253,0.00231014,-0.00073082,-0.00048075,-0.00001174,0.021
 70716,-0.06822685,-0.07023960,-0.00260370,-0.00085614,0.00047578,-0.00
 262311,0.00768355,0.01481879,0.00002013,0.00024944,0.00075980,-0.02726
 995,0.06403745,-0.00026360,0.00025846,-0.00018479,-0.00004691,0.000064
 53,-0.00000319,0.00006504,-0.00003100,0.00002135,0.00001915,-0.0000683
 8,0.00002361,-0.00001280,0.00000084,-0.00000353,0.00000261,0.00000933,
 -0.00000259,0.00001903,-0.00001765,0.00001783,0.00000233,-0.00001152,0
 .00000678,0.00001176,-0.00000278,0.00000654,0.00000366,-0.00000417,0.0
 0000387,0.00000455,0.00007429,0.00003502,-0.00005992,0.00000672,0.0000
 5316,0.00000477,-0.00000497,0.00002599,0.00000925,-0.00001409,-0.00003
 331,0.00001107,-0.00001482,-0.00003222,0.00001099,-0.00001661,-0.00003
 404,-0.00001562,0.00003378,0.00000746,-0.00000121,0.00000590,-0.000004
 36,0.00000012,-0.00001392,0.00000386,-0.00003190,0.00002275,0.00001663
 ,-0.00000676,0.00000254,-0.00000575,0.00001387,-0.00000395,0.00000228,
 -0.00000370,-0.00002009,0.00004720,-0.00000177,-0.00000078,-0.00001908
 ,-0.00002091,-0.00001960,0.00000088,0.00000017,-0.00000145,-0.00000147
 ,0.00000449,0.00000747,-0.00000296,0.00000345,0.00000205,0.00000618,0.
 00000704,0.00000044,0.00000361,0.00004916,-0.00001068,-0.00002435,0.00
 000272,0.00000170,-0.00000574,-0.00002325,0.00002603,-0.00002277,-0.00
 003254,-0.00003218,-0.00000345,0.00000789,0.00000149,0.00001145,0.0000
 0943,-0.00000084,0.00000122,0.00001167,0.00000203,0.00000032,-0.000014
 65,-0.00003575,-0.00004281,0.00001483,-0.00000741,0.00000589,0.0000443
 7,0.00004884,-0.00001539,-0.00000127,0.00000458,-0.00000762,-0.0000044
 9,-0.00000652,0.00001083,-0.00000801,-0.00000323,-0.00000520,-0.000008
 85,-0.00001100,0.00000139,0.00002654,-0.00000222,0.00004067,-0.0000026
 6,0.00000449,-0.00000944,-0.00000418,0.00000184,0.00000047,0.00001598,
 0.00000838,-0.00000580,-0.00000594,-0.00000341,-0.00000389,0.00000076,
 -0.00000567,0.00000080,-0.00000207,-0.00000527,0.00000424,0.00058006,-
 0.00116632,0.00167104,-0.00016567,0.00030713,0.00038868,-0.00066653,0.
 00021417,-0.00290649,-0.00302988,0.00282229,-0.00130054,0.00010186,-0.
 00000780,-0.00009727,0.03944564,-0.06987055,-0.30220024,0.00031146,0.0
 0001692,0.00055945,0.00554968,-0.00838254,-0.01730230,0.00029477,-0.00
 044412,-0.00094175,-0.04249790,0.07618313,0.32125030,-0.00067979,-0.00
 072724,0.00011641,0.00006318,0.00002042,-0.00001284,-0.00003760,-0.000
 00194,-0.00000831,-0.00002177,0.00002086,-0.00001066,-0.00000349,-0.00
 000151,-0.00000476,0.00000159,-0.00000806,0.00000974,-0.00000208,0.000
 01554,-0.00000898,-0.00000038,0.00000597,-0.00000418,-0.00000480,0.000
 00065,-0.00000206,-0.00000186,0.00000173,-0.00000248,0.00007106,0.0000
 7956,0.00003955,0.00018028,0.00009264,-0.00010024,0.00008460,0.0000517
 7,-0.00001583,-0.00000633,0.00000613,0.00003775,-0.00000842,-0.0000005
 7,-0.00000840,-0.00000285,0.00000999,0.00002116,0.00002058,-0.00004986
 ,0.00000366,-0.00000151,-0.00000179,0.00000334,0.00000008,0.00000845,-
 0.00000416,-0.00000523,-0.00000459,-0.00000713,0.00000224,0.00000047,0
 .00000343,-0.00000488,0.00000228,-0.00000167,0.00002131,0.00000397,0.0
 0000342,-0.00000388,0.00000706,0.00000830,0.00001834,0.00001881,-0.000
 00775,-0.00000234,-0.00000219,-0.00000084,-0.00000274,-0.00000175,0.00
 000467,-0.00000302,0.00000054,-0.00000618,-0.00000464,-0.00000342,-0.0
 0000197,0.00002006,0.00001276,-0.00002821,-0.00000838,0.00000982,0.000
 00879,0.00002101,-0.00001880,0.00001362,0.00003955,0.00002743,0.000009
 02,0.00000154,0.00000082,-0.00000343,-0.00000752,-0.00000063,-0.000003
 25,-0.00000901,-0.00000210,0.00000066,0.00003017,0.00004504,0.00007830
 ,-0.00000632,-0.00000466,-0.00000419,-0.00003400,-0.00003153,-0.000019
 18,-0.00000120,-0.00001216,-0.00000159,0.00000512,0.00000113,-0.000004
 54,0.00000478,0.00000026,0.00000040,0.00000175,0.00001100,0.00000151,-
 0.00002951,0.00001702,-0.00005074,0.00000716,-0.00000604,0.00000707,0.
 00000121,-0.00000378,0.00000500,-0.00000650,-0.00000168,0.00000573,0.0
 0000536,0.00000284,0.00000236,-0.00000197,0.00000370,-0.00000047,0.000
 00021,0.00000154,-0.00000245,-0.00074241,-0.00095135,-0.00027905,0.004
 88808,0.00269259,0.00074774,0.00382036,0.00379302,-0.00289791,-0.00008
 194,0.00336616,-0.00056802,-0.00000387,0.00027065,-0.00005495,-0.00542
 451,0.01008429,0.00482773,-0.00028987,0.00060303,0.00019641,-0.1503433
 0,0.13968945,0.03360357,-0.00205833,-0.00222652,0.00028201,-0.00190695
 ,-0.00242849,0.00027283,0.15244360,-0.00073424,-0.00043263,-0.00005438
 ,0.00001837,0.00006312,0.00001498,0.00002557,-0.00002716,0.00000935,-0
 .00000182,-0.00003977,0.00000997,-0.00000912,0.00000358,-0.00001018,-0
 .00000217,-0.00000324,0.00000275,0.00001775,-0.00000564,0.00001108,0.0
 0000047,-0.00000581,0.00000306,0.00000715,-0.00000035,0.00000422,0.000
 00174,-0.00000236,0.00000315,0.00010754,0.00015217,0.00006357,0.000067
 55,0.00004264,-0.00003774,0.00004943,0.00006996,0.00001022,-0.00000169
 ,-0.00000900,0.00000328,0.00000539,-0.00000897,-0.00003468,0.00001076,
 -0.00001019,-0.00002653,-0.00000743,0.00000274,0.00000581,0.00000058,0
 .00000202,-0.00000376,0.00000061,-0.00000652,0.00000250,-0.00004831,0.
 00002762,0.00000564,-0.00000351,-0.00000061,-0.00000546,0.00000885,-0.
 00000269,0.00000391,0.00001309,-0.00002648,0.00005887,-0.00000367,0.00
 000473,-0.00001137,-0.00001701,-0.00001089,-0.00000513,-0.00000269,-0.
 00000261,-0.00000763,0.00000321,0.00000690,-0.00000248,0.00000070,-0.0
 0000001,0.00000283,0.00000512,-0.00000145,0.00000248,0.00003953,0.0000
 0720,-0.00004154,-0.00000182,0.00000531,-0.00000602,-0.00003043,0.0000
 2695,-0.00001284,-0.00001904,-0.00002952,0.00002155,0.00000191,0.00000
 154,0.00000520,0.00000892,-0.00000356,-0.00000021,0.00000954,0.0000025
 4,0.00000049,0.00000451,0.00002922,0.00002370,0.00001723,-0.00001796,-
 0.00000236,0.00003668,0.00004788,-0.00000797,-0.00000628,0.00000572,-0
 .00000826,0.00000106,-0.00000054,0.00000404,-0.00000708,-0.00000287,-0
 .00000441,-0.00001010,-0.00000910,0.00000249,0.00001704,0.00000928,0.0
 0000843,0.00000251,-0.00000088,-0.00000409,-0.00000612,-0.00000010,0.0
 0000188,0.00001951,0.00001272,-0.00000029,-0.00000301,-0.00000215,-0.0
 0000464,-0.00000129,-0.00000409,0.00000021,-0.00000065,-0.00000430,0.0
 0000387,-0.00095583,-0.00036029,0.00033141,0.00267477,0.00379133,-0.00
 192065,0.00380756,0.00291956,0.00256926,0.00506441,-0.00314960,0.00036
 925,0.00035406,-0.00019230,0.00001922,0.00843052,-0.00769972,-0.005142
 89,0.00051810,-0.00043516,-0.00023679,0.13965430,-0.20396591,-0.042903
 68,-0.00225696,-0.00127959,0.00012228,-0.00238702,-0.00112501,0.000109
 20,-0.15448876,0.21164429,0.00003013,0.00007052,-0.00005472,-0.0000434
 0,0.00004608,0.00002794,0.00000345,-0.00001223,0.00000271,0.00001263,-
 0.00000270,0.00000122,0.00000539,0.00000709,-0.00000524,-0.00000780,-0
 .00000567,-0.00000466,0.00000897,-0.00000918,0.00001014,-0.00000058,-0
 .00000189,0.00000022,0.00000186,0.00000045,-0.00000011,0.00000041,-0.0
 0000036,0.00000134,-0.00000434,0.00000074,0.00000874,-0.00002228,-0.00
 000313,0.00001909,-0.00001278,0.00000059,0.00000045,0.00000039,-0.0000
 0121,-0.00000921,0.00000089,-0.00000006,-0.00000511,0.00000333,-0.0000
 0135,-0.00001326,0.00000250,0.00000530,0.00000770,-0.00000241,0.000004
 74,-0.00000057,0.00000082,-0.00000468,-0.00000023,-0.00000246,-0.00000
 420,0.00000915,-0.00000398,0.00000289,-0.00000064,0.00000367,-0.000001
 34,-0.00000041,-0.00000190,0.00000838,0.00001375,0.00000435,-0.0000062
 4,-0.00000149,-0.00001767,-0.00001374,-0.00000734,-0.00000429,-0.00000
 165,0.00000142,0.00000030,0.00000093,-0.00000118,0.00000142,0.00000176
 ,0.00000177,0.00000385,0.00000221,0.00000059,0.00000507,0.00000469,-0.
 00000975,-0.00000627,0.00000599,0.00001457,0.00002204,-0.00001612,0.00
 000046,0.00000518,0.00001818,-0.00000787,0.00000323,0.00000158,0.00000
 161,-0.00000253,-0.00000050,-0.00000205,-0.00000271,-0.00000106,-0.000
 00165,0.00000248,-0.00000731,-0.00001505,-0.00000464,0.00000804,0.0000
 1343,-0.00002349,-0.00001263,-0.00001150,0.00000399,-0.00001084,0.0000
 0129,-0.00000323,-0.00000262,0.00000167,0.00000111,0.00000058,-0.00000
 049,0.00000276,0.00000306,-0.00000185,-0.00000067,0.00000023,0.0000139
 7,0.00000326,-0.00000253,0.00000094,-0.00000433,0.00000266,0.00000443,
 0.00001373,0.00000533,-0.00000933,-0.00000088,0.00000004,-0.00000114,-
 0.00000103,-0.00000291,-0.00000011,-0.00000147,-0.00000263,0.00000052,
 -0.00020576,0.00028089,-0.00101712,0.00021433,-0.00127409,-0.00492191,
 -0.00232193,0.00190555,-0.00281225,0.01903214,-0.02291185,-0.00107394,
 0.00088737,-0.00109415,-0.00036588,-0.01482954,0.01807380,0.00880276,-
 0.00074789,0.00089459,0.00013895,0.03362392,-0.04284789,-0.06865252,-0
 .00018544,0.00066442,0.00133442,0.00074848,-0.00045039,0.00099330,-0.0
 3618775,0.04668584,0.06758005\\0.00007978,-0.00025903,0.00001510,0.000
 00796,0.00002484,0.00011171,0.00001018,0.00002703,0.00002488,0.0000255
 6,0.00004390,0.00000307,0.00002525,-0.00000048,0.00000641,0.00001173,0
 .00002123,-0.00000135,-0.00000910,0.00002357,0.00000317,0.00002242,0.0
 0001441,0.00004012,-0.00001304,0.00003414,-0.00000030,0.00000990,0.000
 01326,0.00002435,-0.00000222,-0.00001999,0.00000693,0.00007176,0.00004
 548,-0.00001621,-0.00005064,0.00003713,-0.00004095,0.00002135,0.000003
 22,0.00002705,-0.00001179,0.00004557,-0.00000275,-0.00014899,0.0000771
 3,0.00001618,-0.00000932,-0.00001121,0.00001172,0.00000917,-0.00005795
 ,0.00000436,-0.00004860,-0.00003347,0.00003709,-0.00000371,-0.00001851
 ,-0.00001109,-0.00002530,-0.00002134,-0.00001797,0.00001932,-0.0000143
 4,0.00000399,0.00010327,0.00016141,0.00001999,-0.00001059,-0.00002360,
 -0.00003099,-0.00000093,0.00000173,-0.00002351,0.00001152,-0.00002643,
 0.00000092,-0.00000848,-0.00001248,-0.00001796,-0.00000215,0.00001345,
 -0.00002894,-0.00000146,0.00002684,-0.00002551,-0.00000992,-0.00000310
 ,0.00000636,0.,0.00002074,-0.00002144,-0.00001619,-0.00004776,-0.00009
 853,0.00000328,0.00001432,-0.00001050,-0.00000193,0.00001822,-0.000019
 31,-0.00000091,0.00000820,0.00000019,-0.00002443,-0.00000654,-0.000000
 82,-0.00005969,-0.00004935,-0.00001560,-0.00001131,0.00001344,0.000000
 37,-0.00003673,0.00000805,-0.00002198,0.00002184,-0.00002041,0.0000177
 3,0.00000644,0.00000986,0.00001577,0.00002995,-0.00002236,0.00004400,0
 .00002153,0.00003301,-0.00001052,-0.00021432,-0.00022352,0.00001381,0.
 00002624,-0.00000823,0.00004617,-0.00000263,0.00008012,-0.00002647,0.0
 0005196,0.00001731,-0.00003380,0.00001118,-0.00002459,0.00002097,0.000
 00753,0.00001307,0.00003943,0.00001473,-0.00001053,0.00002067,0.000115
 69,0.00008844,0.00002176,-0.00000723,-0.00000773,0.00007769,-0.0000085
 7,0.00003168,-0.00002462,-0.00000810,-0.00001779,-0.00001851,0.0000617
 1,-0.00006458,-0.00004467,-0.00000709,0.00000700,-0.00002294,-0.000019
 07,0.00003065,-0.00000592,-0.00000253,0.00000269,-0.00002694,-0.000010
 78,-0.00001530,-0.00002282,-0.00000569,0.00001233,-0.00001543,-0.00000
 781,-0.00000283,-0.00002356\\\@
 The archive entry for this job was punched.


 WORK FAITHFULLY FOR EIGHT HOURS A DAY AND DON'T WORRY.
 IN TIME YOU MAY BECOME BOSS AND WORK TWELVE HOURS A DAY
 AND HAVE ALL THE WORRY.
 Job cpu time:       3 days  9 hours 20 minutes 25.3 seconds.
 Elapsed time:       0 days  1 hours 43 minutes 19.1 seconds.
 File lengths (MBytes):  RWF=   3343 Int=      0 D2E=      0 Chk=     80 Scr=      1
 Normal termination of Gaussian 16 at Wed Jun  8 14:10:06 2022.
