 Entering Gaussian System, Link 0=g16
 Input=TS_NCNPtMePh_NCNPtPhMe_interconversion.com
 Output=TS_NCNPtMePh_NCNPtPhMe_interconversion.log
 Initial command:
 /usr/local/g16/l1.exe "/hdd/Gau-91866.inp" -scrdir="/hdd/"
 Entering Link 1 = /usr/local/g16/l1.exe PID=     91868.
  
 Copyright (c) 1988-2019, Gaussian, Inc.  All Rights Reserved.
  
 This is part of the Gaussian(R) 16 program.  It is based on
 the Gaussian(R) 09 system (copyright 2009, Gaussian, Inc.),
 the Gaussian(R) 03 system (copyright 2003, Gaussian, Inc.),
 the Gaussian(R) 98 system (copyright 1998, Gaussian, Inc.),
 the Gaussian(R) 94 system (copyright 1995, Gaussian, Inc.),
 the Gaussian 92(TM) system (copyright 1992, Gaussian, Inc.),
 the Gaussian 90(TM) system (copyright 1990, Gaussian, Inc.),
 the Gaussian 88(TM) system (copyright 1988, Gaussian, Inc.),
 the Gaussian 86(TM) system (copyright 1986, Carnegie Mellon
 University), and the Gaussian 82(TM) system (copyright 1983,
 Carnegie Mellon University). Gaussian is a federally registered
 trademark of Gaussian, Inc.
  
 This software contains proprietary and confidential information,
 including trade secrets, belonging to Gaussian, Inc.
  
 This software is provided under written license and may be
 used, copied, transmitted, or stored only in accord with that
 written license.
  
 The following legend is applicable only to US Government
 contracts under FAR:
  
                    RESTRICTED RIGHTS LEGEND
  
 Use, reproduction and disclosure by the US Government is
 subject to restrictions as set forth in subparagraphs (a)
 and (c) of the Commercial Computer Software - Restricted
 Rights clause in FAR 52.227-19.
  
 Gaussian, Inc.
 340 Quinnipiac St., Bldg. 40, Wallingford CT 06492
  
  
 ---------------------------------------------------------------
 Warning -- This program may not be used in any manner that
 competes with the business of Gaussian, Inc. or will provide
 assistance to any competitor of Gaussian, Inc.  The licensee
 of this program is prohibited from giving any competitor of
 Gaussian, Inc. access to this program.  By using this program,
 the user acknowledges that Gaussian, Inc. is engaged in the
 business of creating and licensing software in the field of
 computational chemistry and represents and warrants to the
 licensee that it is not a competitor of Gaussian, Inc. and that
 it will not use this program in any manner prohibited above.
 ---------------------------------------------------------------
  

 Cite this work as:
 Gaussian 16, Revision C.01,
 M. J. Frisch, G. W. Trucks, H. B. Schlegel, G. E. Scuseria, 
 M. A. Robb, J. R. Cheeseman, G. Scalmani, V. Barone, 
 G. A. Petersson, H. Nakatsuji, X. Li, M. Caricato, A. V. Marenich, 
 J. Bloino, B. G. Janesko, R. Gomperts, B. Mennucci, H. P. Hratchian, 
 J. V. Ortiz, A. F. Izmaylov, J. L. Sonnenberg, D. Williams-Young, 
 F. Ding, F. Lipparini, F. Egidi, J. Goings, B. Peng, A. Petrone, 
 T. Henderson, D. Ranasinghe, V. G. Zakrzewski, J. Gao, N. Rega, 
 G. Zheng, W. Liang, M. Hada, M. Ehara, K. Toyota, R. Fukuda, 
 J. Hasegawa, M. Ishida, T. Nakajima, Y. Honda, O. Kitao, H. Nakai, 
 T. Vreven, K. Throssell, J. A. Montgomery, Jr., J. E. Peralta, 
 F. Ogliaro, M. J. Bearpark, J. J. Heyd, E. N. Brothers, K. N. Kudin, 
 V. N. Staroverov, T. A. Keith, R. Kobayashi, J. Normand, 
 K. Raghavachari, A. P. Rendell, J. C. Burant, S. S. Iyengar, 
 J. Tomasi, M. Cossi, J. M. Millam, M. Klene, C. Adamo, R. Cammi, 
 J. W. Ochterski, R. L. Martin, K. Morokuma, O. Farkas, 
 J. B. Foresman, and D. J. Fox, Gaussian, Inc., Wallingford CT, 2019.
 
 ******************************************
 Gaussian 16:  ES64L-G16RevC.01  3-Jul-2019
                 3-Jun-2022 
 ******************************************
 %nprocshared=20
 Will use up to   20 processors via shared memory.
 %mem=512MW
 %chk=TS_NCNPtMePh_NCNPtPhMe_interconversion.chk
 ----------------------------------------------------------------------
 # freq gen scrf=(iefpcm,solvent=thf) m06 EmpiricalDispersion=GD3 Pseud
 o=Read
 ----------------------------------------------------------------------
 1/10=4,30=1,38=1/1,3;
 2/12=2,17=6,18=5,40=1/2;
 3/5=7,11=2,16=1,17=8,25=1,30=1,70=2201,71=2,72=20,74=-54,124=31,140=1/1,2,3;
 4//1;
 5/5=2,38=5,53=20,98=1/2;
 8/6=4,10=90,11=11/1;
 11/6=1,8=1,9=11,15=111,16=1/1,2,10;
 10/6=1/2;
 6/7=2,8=2,9=2,10=2,28=1/1;
 7/8=1,10=1,25=1/1,2,3,16;
 1/10=4,30=1/3;
 99//99;
 ----------------------------------------------------------------------
 TS for interconversion between (NCN)PtMe[eq]Ph[ax] and (NCN)PtPh[eq]Me
 [ax]; M06 with Custom Lanl2tz(f)+6-311g(d,p) basis set
 ----------------------------------------------------------------------
 Symbolic Z-matrix:
 Charge =  1 Multiplicity = 1
 Pt                    0.09698  -0.01814   0.0643 
 C                    -1.87279   0.28585  -0.27652 
 C                    -2.33587   1.59235  -0.47102 
 C                    -2.69958  -0.82042  -0.51474 
 C                    -3.70764   1.8085   -0.67081 
 C                    -4.07324  -0.6179   -0.71295 
 C                    -4.57335   0.69934  -0.7376 
 H                    -4.10051   2.8124   -0.81279 
 H                    -4.74208  -1.45727  -0.88842 
 H                    -5.63769   0.86246  -0.87743 
 N                    -0.65464  -2.12521   0.0204 
 N                     0.01726   2.22492   0.0594 
 C                     0.52097  -0.13544   2.10979 
 H                    -0.44194   0.08371   2.58229 
 H                     0.87533  -1.14044   2.33399 
 H                     1.28082   0.59734   2.3732 
 C                    -1.2411    2.59468  -0.71688 
 H                    -0.97713   2.54499  -1.7817 
 H                    -1.5241    3.63087  -0.50153 
 C                    -1.93805  -2.08563  -0.79972 
 H                    -1.62634  -2.0685   -1.85313 
 H                    -2.51465  -3.00332  -0.65202 
 C                     0.40466  -2.95349  -0.67864 
 C                     0.06025  -4.41537  -0.94911 
 H                     1.3113   -2.88166  -0.06781 
 H                     0.6094   -2.43588  -1.62493 
 H                     0.84163  -4.83306  -1.59205 
 H                     0.03891  -5.01362  -0.03371 
 H                    -0.89342  -4.53168  -1.47526 
 C                    -0.96022  -2.64057   1.42206 
 C                    -2.00013  -3.75768   1.55189 
 H                    -1.31956  -1.79163   2.00775 
 H                    -0.00465  -2.96993   1.84437 
 H                    -1.96509  -4.11281   2.58708 
 H                    -3.01707  -3.39307   1.37303 
 H                    -1.81283  -4.61583   0.90179 
 C                    -0.13198   2.72509   1.48574 
 C                    -0.22442   4.2358    1.70855 
 H                     0.72993   2.36021   2.0454 
 H                    -1.03075   2.23661   1.87921 
 H                    -0.51014   4.39186   2.75404 
 H                     0.73757   4.73268   1.55779 
 H                    -0.98052   4.73126   1.09171 
 C                     1.27007   2.75     -0.61592 
 C                     1.22465   4.16708  -1.1909 
 H                     1.49281   2.05462  -1.43089 
 H                     2.07738   2.64716   0.11886 
 H                     2.19164   4.35678  -1.66851 
 H                     0.45665   4.27526  -1.96302 
 H                     1.07078   4.94313  -0.43955 
 C                     2.22543  -0.34285   0.06347 
 C                     3.2165   -0.543     1.04206 
 C                     2.64107  -0.36137  -1.29076 
 C                     4.56406  -0.74185   0.68633 
 H                     2.97764  -0.55362   2.10301 
 C                     3.9822   -0.5568   -1.65388 
 H                     1.90306  -0.22894  -2.0916 
 C                     4.95444  -0.74625  -0.65864 
 H                     5.30495  -0.89303   1.46726 
 H                     4.26492  -0.56241  -2.70315 
 H                     5.99543  -0.898    -0.92813 
 

 GradGradGradGradGradGradGradGradGradGradGradGradGradGradGradGradGradGrad
 Berny optimization.
 Initialization pass.
 Trust Radius=3.00D-01 FncErr=1.00D-07 GrdErr=1.00D-07 EigMax=2.50D+02 EigMin=1.00D-04
 Number of steps in this run=      2 maximum allowed number of steps=      2.
 GradGradGradGradGradGradGradGradGradGradGradGradGradGradGradGradGradGrad

 Stoichiometry    C23H35N2Pt(1+)
 Framework group  C1[X(C23H35N2Pt)]
 Deg. of freedom   177
 Full point group                 C1      NOp   1
 Largest Abelian subgroup         C1      NOp   1
 Largest concise Abelian subgroup C1      NOp   1
                         Standard orientation:                         
 ---------------------------------------------------------------------
 Center     Atomic      Atomic             Coordinates (Angstroms)
 Number     Number       Type             X           Y           Z
 ---------------------------------------------------------------------
      1         78           0        0.096982   -0.018142    0.064300
      2          6           0       -1.872790    0.285853   -0.276516
      3          6           0       -2.335870    1.592352   -0.471020
      4          6           0       -2.699584   -0.820416   -0.514738
      5          6           0       -3.707636    1.808495   -0.670809
      6          6           0       -4.073244   -0.617901   -0.712953
      7          6           0       -4.573346    0.699339   -0.737604
      8          1           0       -4.100508    2.812403   -0.812789
      9          1           0       -4.742079   -1.457266   -0.888421
     10          1           0       -5.637688    0.862462   -0.877426
     11          7           0       -0.654642   -2.125211    0.020401
     12          7           0        0.017257    2.224915    0.059403
     13          6           0        0.520969   -0.135443    2.109786
     14          1           0       -0.441937    0.083708    2.582294
     15          1           0        0.875330   -1.140440    2.333991
     16          1           0        1.280816    0.597344    2.373204
     17          6           0       -1.241104    2.594675   -0.716881
     18          1           0       -0.977125    2.544994   -1.781704
     19          1           0       -1.524104    3.630866   -0.501534
     20          6           0       -1.938051   -2.085628   -0.799719
     21          1           0       -1.626342   -2.068496   -1.853126
     22          1           0       -2.514647   -3.003319   -0.652015
     23          6           0        0.404659   -2.953491   -0.678636
     24          6           0        0.060250   -4.415368   -0.949114
     25          1           0        1.311296   -2.881663   -0.067810
     26          1           0        0.609401   -2.435879   -1.624934
     27          1           0        0.841627   -4.833055   -1.592051
     28          1           0        0.038905   -5.013618   -0.033707
     29          1           0       -0.893415   -4.531682   -1.475261
     30          6           0       -0.960224   -2.640570    1.422063
     31          6           0       -2.000126   -3.757679    1.551892
     32          1           0       -1.319560   -1.791628    2.007751
     33          1           0       -0.004653   -2.969926    1.844367
     34          1           0       -1.965086   -4.112807    2.587081
     35          1           0       -3.017073   -3.393068    1.373028
     36          1           0       -1.812825   -4.615826    0.901788
     37          6           0       -0.131975    2.725088    1.485736
     38          6           0       -0.224416    4.235798    1.708552
     39          1           0        0.729934    2.360206    2.045403
     40          1           0       -1.030750    2.236614    1.879208
     41          1           0       -0.510142    4.391861    2.754039
     42          1           0        0.737572    4.732682    1.557789
     43          1           0       -0.980523    4.731257    1.091713
     44          6           0        1.270067    2.750003   -0.615916
     45          6           0        1.224645    4.167077   -1.190903
     46          1           0        1.492806    2.054623   -1.430887
     47          1           0        2.077383    2.647158    0.118855
     48          1           0        2.191642    4.356784   -1.668509
     49          1           0        0.456652    4.275262   -1.963023
     50          1           0        1.070774    4.943129   -0.439553
     51          6           0        2.225426   -0.342848    0.063469
     52          6           0        3.216495   -0.543001    1.042063
     53          6           0        2.641067   -0.361368   -1.290758
     54          6           0        4.564061   -0.741848    0.686333
     55          1           0        2.977641   -0.553618    2.103009
     56          6           0        3.982195   -0.556796   -1.653882
     57          1           0        1.903059   -0.228937   -2.091602
     58          6           0        4.954437   -0.746246   -0.658642
     59          1           0        5.304947   -0.893030    1.467263
     60          1           0        4.264915   -0.562407   -2.703152
     61          1           0        5.995426   -0.898000   -0.928127
 ---------------------------------------------------------------------
 Rotational constants (GHZ):           0.2163232           0.1922066           0.1225788
 General basis read from cards:  (5D, 7F)
 ======================================================================================================
                                       Pseudopotential Parameters
 ======================================================================================================
  Center     Atomic      Valence      Angular      Power
  Number     Number     Electrons     Momentum     of R      Exponent        Coefficient   SO-Coeffient
 ======================================================================================================
    1         78           18
                                      G and up 
                                                     1      728.9394056       -0.16192680    0.00000000
                                                     2      320.6567800    -1320.28738520    0.00000000
                                                     2       52.8680174     -298.31781350    0.00000000
                                                     2       12.0280128      -87.58370650    0.00000000
                                                     2        3.5238913       -8.14932740    0.00000000
                                      S - G
                                                     0      409.4437358        2.73342180    0.00000000
                                                     1      274.5419231       59.70243290    0.00000000
                                                     2      127.5658570      891.45895500    0.00000000
                                                     2       32.9036631      368.44676560    0.00000000
                                                     2        5.0593880      238.02630900    0.00000000
                                                     2        4.1506556     -107.05564540    0.00000000
                                      P - G
                                                     0      466.1728892        1.88785680    0.00000000
                                                     1      120.7888259       76.01386290    0.00000000
                                                     2       36.4118791      343.55111160    0.00000000
                                                     2        5.6985408      119.49117860    0.00000000
                                      D - G
                                                     0      249.5650763        2.93436780    0.00000000
                                                     1      126.6678585       59.33065710    0.00000000
                                                     2       63.1430586      452.44451940    0.00000000
                                                     2       17.9059470      210.47694790    0.00000000
                                                     2        4.2239373       58.62541120    0.00000000
                                      F - G
                                                     0      121.8158799        3.95342530    0.00000000
                                                     1       60.8757030       53.85551820    0.00000000
                                                     2       31.4767147      247.43051330    0.00000000
                                                     2        9.8811751      127.81879760    0.00000000
                                                     2        2.7319874       15.37720460    0.00000000
    2          6
                                   No pseudopotential on this center.
    3          6
                                   No pseudopotential on this center.
    4          6
                                   No pseudopotential on this center.
    5          6
                                   No pseudopotential on this center.
    6          6
                                   No pseudopotential on this center.
    7          6
                                   No pseudopotential on this center.
    8          1
                                   No pseudopotential on this center.
    9          1
                                   No pseudopotential on this center.
   10          1
                                   No pseudopotential on this center.
   11          7
                                   No pseudopotential on this center.
   12          7
                                   No pseudopotential on this center.
   13          6
                                   No pseudopotential on this center.
   14          1
                                   No pseudopotential on this center.
   15          1
                                   No pseudopotential on this center.
   16          1
                                   No pseudopotential on this center.
   17          6
                                   No pseudopotential on this center.
   18          1
                                   No pseudopotential on this center.
   19          1
                                   No pseudopotential on this center.
   20          6
                                   No pseudopotential on this center.
   21          1
                                   No pseudopotential on this center.
   22          1
                                   No pseudopotential on this center.
   23          6
                                   No pseudopotential on this center.
   24          6
                                   No pseudopotential on this center.
   25          1
                                   No pseudopotential on this center.
   26          1
                                   No pseudopotential on this center.
   27          1
                                   No pseudopotential on this center.
   28          1
                                   No pseudopotential on this center.
   29          1
                                   No pseudopotential on this center.
   30          6
                                   No pseudopotential on this center.
   31          6
                                   No pseudopotential on this center.
   32          1
                                   No pseudopotential on this center.
   33          1
                                   No pseudopotential on this center.
   34          1
                                   No pseudopotential on this center.
   35          1
                                   No pseudopotential on this center.
   36          1
                                   No pseudopotential on this center.
   37          6
                                   No pseudopotential on this center.
   38          6
                                   No pseudopotential on this center.
   39          1
                                   No pseudopotential on this center.
   40          1
                                   No pseudopotential on this center.
   41          1
                                   No pseudopotential on this center.
   42          1
                                   No pseudopotential on this center.
   43          1
                                   No pseudopotential on this center.
   44          6
                                   No pseudopotential on this center.
   45          6
                                   No pseudopotential on this center.
   46          1
                                   No pseudopotential on this center.
   47          1
                                   No pseudopotential on this center.
   48          1
                                   No pseudopotential on this center.
   49          1
                                   No pseudopotential on this center.
   50          1
                                   No pseudopotential on this center.
   51          6
                                   No pseudopotential on this center.
   52          6
                                   No pseudopotential on this center.
   53          6
                                   No pseudopotential on this center.
   54          6
                                   No pseudopotential on this center.
   55          1
                                   No pseudopotential on this center.
   56          6
                                   No pseudopotential on this center.
   57          1
                                   No pseudopotential on this center.
   58          6
                                   No pseudopotential on this center.
   59          1
                                   No pseudopotential on this center.
   60          1
                                   No pseudopotential on this center.
   61          1
                                   No pseudopotential on this center.
 ======================================================================================================
 There are   883 symmetry adapted cartesian basis functions of A   symmetry.
 There are   827 symmetry adapted basis functions of A   symmetry.
   827 basis functions,  1278 primitive gaussians,   883 cartesian basis functions
   102 alpha electrons      102 beta electrons
       nuclear repulsion energy      2821.6035771239 Hartrees.
 NAtoms=   61 NActive=   61 NUniq=   61 SFac= 1.00D+00 NAtFMM=   60 NAOKFM=T Big=T
 Integral buffers will be    131072 words long.
 Raffenetti 2 integral format.
 Two-electron integral symmetry is turned on.
 Nuclear repulsion after empirical dispersion term =     2821.5865038668 Hartrees.
 Force inversion solution in PCM.
 ------------------------------------------------------------------------------
 Polarizable Continuum Model (PCM)
 =================================
 Model                : PCM.
 Atomic radii         : UFF (Universal Force Field).
 Polarization charges : Total charges.
 Charge compensation  : None.
 Solution method      : Matrix inversion.
 Cavity type          : Scaled VdW (van der Waals Surface) (Alpha=1.100).
 Cavity algorithm     : GePol (No added spheres)
                        Default sphere list used, NSphG=   61.
                        Lebedev-Laikov grids with approx.  5.0 points / Ang**2.
                        Smoothing algorithm: York/Karplus (Gamma=1.0000).
                        Polarization charges: spherical gaussians, with
                                              point-specific exponents (IZeta= 3).
                        Self-potential: point-specific (ISelfS= 7).
                        Self-field    : sphere-specific E.n sum rule (ISelfD= 2).
 1st derivatives      : Analytical E(r).r(x)/FMM algorithm (CHGder, D1EAlg=3).
                        Cavity 1st derivative terms included.
 2nd derivatives      : Analytical E(r).r(xy)/FMM algorithm (CHGder, D2EAlg=3).
                        Cavity 2nd derivative terms included.
 Solvent              : TetraHydroFuran, Eps=   7.425700 Eps(inf)=   1.974025
 ------------------------------------------------------------------------------
 One-electron integrals computed using PRISM.
   1 Symmetry operations used in ECPInt.
 ECPInt:  NShTT=   46360 NPrTT=  151530 LenC2=   39422 LenP2D=   84734.
 LDataN:  DoStor=T MaxTD1= 7 Len=  274
 NBasis=   827 RedAO= T EigKep=  5.57D-05  NBF=   827
 NBsUse=   827 1.00D-06 EigRej= -1.00D+00 NBFU=   827
 Defaulting to unpruned grid for atomic number  78.
 ExpMin= 2.90D-02 ExpMax= 6.29D+03 ExpMxC= 9.49D+02 IAcc=3 IRadAn=         5 AccDes= 0.00D+00
 Harris functional with IExCor= 1009 and IRadAn=       5 diagonalized for initial guess.
 HarFok:  IExCor= 1009 AccDes= 0.00D+00 IRadAn=         5 IDoV= 1 UseB2=F ITyADJ=14
 ICtDFT=  3500011 ScaDFX=  1.000000  1.000000  1.000000  1.000000
 Defaulting to unpruned grid for atomic number  78.
 FoFCou: FMM=F IPFlag=           0 FMFlag=      100000 FMFlg1=        2001
         NFxFlg=           0 DoJE=T BraDBF=F KetDBF=T FulRan=T
         wScrn=  0.000000 ICntrl=       500 IOpCl=  0 I1Cent=   200000004 NGrid=           0
         NMat0=    1 NMatS0=      1 NMatT0=    0 NMatD0=    1 NMtDS0=    0 NMtDT0=    0
 Petite list used in FoFCou.
 Requested convergence on RMS density matrix=1.00D-08 within 128 cycles.
 Requested convergence on MAX density matrix=1.00D-06.
 Requested convergence on             energy=1.00D-06.
 No special actions if energy rises.
 Defaulting to unpruned grid for atomic number  78.
 Defaulting to unpruned grid for atomic number  78.
 Defaulting to unpruned grid for atomic number  78.
 Defaulting to unpruned grid for atomic number  78.
 Defaulting to unpruned grid for atomic number  78.
 Defaulting to unpruned grid for atomic number  78.
 Defaulting to unpruned grid for atomic number  78.
 Defaulting to unpruned grid for atomic number  78.
 Defaulting to unpruned grid for atomic number  78.
 Defaulting to unpruned grid for atomic number  78.
 Defaulting to unpruned grid for atomic number  78.
 Defaulting to unpruned grid for atomic number  78.
 Defaulting to unpruned grid for atomic number  78.
 Defaulting to unpruned grid for atomic number  78.
 Defaulting to unpruned grid for atomic number  78.
 Defaulting to unpruned grid for atomic number  78.
 Defaulting to unpruned grid for atomic number  78.
 Defaulting to unpruned grid for atomic number  78.
 Defaulting to unpruned grid for atomic number  78.
 Defaulting to unpruned grid for atomic number  78.
 Inv3:  Mode=1 IEnd=    38944827.
 Iteration    1 A*A^-1 deviation from unit magnitude is 3.66D-15 for   1485.
 Iteration    1 A*A^-1 deviation from orthogonality  is 3.64D-15 for   3307   2998.
 Iteration    1 A^-1*A deviation from unit magnitude is 3.66D-15 for   1485.
 Iteration    1 A^-1*A deviation from orthogonality  is 2.20D-15 for   2897   2532.
 Error on total polarization charges =  0.02222
 SCF Done:  E(RM06) =  -1125.43884818     A.U. after   16 cycles
            NFock= 16  Conv=0.56D-08     -V/T= 2.0834
 DoSCS=F DFT=T ScalE2(SS,OS)=  1.000000  1.000000
 Range of M.O.s used for correlation:     1   827
 NBasis=   827 NAE=   102 NBE=   102 NFC=     0 NFV=     0
 NROrb=    827 NOA=   102 NOB=   102 NVA=   725 NVB=   725

 **** Warning!!: The largest alpha MO coefficient is  0.16387457D+02

 PrsmSu:  requested number of processors reduced to:   6 ShMem   1 Linda.
   1 Symmetry operations used in ECPInt.
 ECPInt:  NShTT=   46360 NPrTT=  151530 LenC2=   39422 LenP2D=   84734.
 LDataN:  DoStor=T MaxTD1= 8 Len=  415
 Number of processors reduced to   2 by ecpmxn.
 Symmetrizing basis deriv contribution to polar:
 IMax=3 JMax=2 DiffMx= 0.00D+00
 G2DrvN: will do    16 centers at a time, making    4 passes.
 Calling FoFCou, ICntrl=  3107 FMM=T I1Cent=   0 AccDes= 0.00D+00.
 Defaulting to unpruned grid for atomic number  78.
 Defaulting to unpruned grid for atomic number  78.
 Defaulting to unpruned grid for atomic number  78.
 Defaulting to unpruned grid for atomic number  78.
 Defaulting to unpruned grid for atomic number  78.
 Defaulting to unpruned grid for atomic number  78.
 Defaulting to unpruned grid for atomic number  78.
 Defaulting to unpruned grid for atomic number  78.
 Defaulting to unpruned grid for atomic number  78.
 Defaulting to unpruned grid for atomic number  78.
 Defaulting to unpruned grid for atomic number  78.
 Defaulting to unpruned grid for atomic number  78.
 Defaulting to unpruned grid for atomic number  78.
 Defaulting to unpruned grid for atomic number  78.
 Defaulting to unpruned grid for atomic number  78.
 Defaulting to unpruned grid for atomic number  78.
 Defaulting to unpruned grid for atomic number  78.
 Defaulting to unpruned grid for atomic number  78.
 Defaulting to unpruned grid for atomic number  78.
 Defaulting to unpruned grid for atomic number  78.
 Calling FoFCou, ICntrl=  3107 FMM=T I1Cent=   0 AccDes= 0.00D+00.
 Calling FoFCou, ICntrl=  3107 FMM=T I1Cent=   0 AccDes= 0.00D+00.
 Calling FoFCou, ICntrl=  3107 FMM=T I1Cent=   0 AccDes= 0.00D+00.
 NEqPCM:  Using equilibrium solvation (IEInf=0, Eps=   7.4257, EpsInf=   1.9740)
 G2PCM: DoFxE=T DoFxN=T DoGrad=T DoDP/DQ/DG/TGxP=FFFF NFrqRd=   0 IEInf=0 SqF1=F DoCFld=F IF1Alg=4.
 CoulSu:  requested number of processors reduced to:  18 ShMem   1 Linda.
 CoulSu:  requested number of processors reduced to:  19 ShMem   1 Linda.
 CoulSu:  requested number of processors reduced to:  18 ShMem   1 Linda.
 CoulSu:  requested number of processors reduced to:  19 ShMem   1 Linda.
 CoulSu:  requested number of processors reduced to:  18 ShMem   1 Linda.
 CoulSu:  requested number of processors reduced to:  19 ShMem   1 Linda.
 End of G2Drv F.D. properties file   721 does not exist.
 End of G2Drv F.D. properties file   722 does not exist.
 End of G2Drv F.D. properties file   788 does not exist.
          IDoAtm=11111111111111111111111111111111111111111111111111
          IDoAtm=11111111111
 NEqPCM:  Using equilibrium solvation (IEInf=0, Eps=   7.4257, EpsInf=   1.9740)
          Differentiating once with respect to electric field.
                with respect to dipole field.
          Differentiating once with respect to nuclear coordinates.
 Defaulting to unpruned grid for atomic number  78.
 CalDSu exits because no D1Ps are significant.
 Defaulting to unpruned grid for atomic number  78.
 Defaulting to unpruned grid for atomic number  78.
 Defaulting to unpruned grid for atomic number  78.
 Defaulting to unpruned grid for atomic number  78.
 Defaulting to unpruned grid for atomic number  78.
 Defaulting to unpruned grid for atomic number  78.
 Defaulting to unpruned grid for atomic number  78.
 Defaulting to unpruned grid for atomic number  78.
 Defaulting to unpruned grid for atomic number  78.
 Defaulting to unpruned grid for atomic number  78.
 Defaulting to unpruned grid for atomic number  78.
 Defaulting to unpruned grid for atomic number  78.
 Defaulting to unpruned grid for atomic number  78.
 Defaulting to unpruned grid for atomic number  78.
 Defaulting to unpruned grid for atomic number  78.
 Defaulting to unpruned grid for atomic number  78.
 Defaulting to unpruned grid for atomic number  78.
 Defaulting to unpruned grid for atomic number  78.
 Defaulting to unpruned grid for atomic number  78.
 Defaulting to unpruned grid for atomic number  78.
          There are   186 degrees of freedom in the 1st order CPHF.  IDoFFX=6 NUNeed=     3.
    186 vectors produced by pass  0 Test12= 7.40D-14 1.00D-09 XBig12= 4.33D+02 7.85D+00.
 AX will form    24 AO Fock derivatives at one time.
    183 vectors produced by pass  1 Test12= 7.40D-14 1.00D-09 XBig12= 4.98D+01 1.02D+00.
    183 vectors produced by pass  2 Test12= 7.40D-14 1.00D-09 XBig12= 6.03D-01 1.02D-01.
    183 vectors produced by pass  3 Test12= 7.40D-14 1.00D-09 XBig12= 7.04D-03 8.19D-03.
    183 vectors produced by pass  4 Test12= 7.40D-14 1.00D-09 XBig12= 3.90D-05 4.96D-04.
    183 vectors produced by pass  5 Test12= 7.40D-14 1.00D-09 XBig12= 1.31D-07 3.09D-05.
     89 vectors produced by pass  6 Test12= 7.40D-14 1.00D-09 XBig12= 3.32D-10 1.08D-06.
     10 vectors produced by pass  7 Test12= 7.40D-14 1.00D-09 XBig12= 7.71D-13 6.33D-08.
      3 vectors produced by pass  8 Test12= 7.40D-14 1.00D-09 XBig12= 1.83D-15 4.42D-09.
 InvSVY:  IOpt=1 It=  1 EMax= 4.74D-15
 Solved reduced A of dimension  1203 with   186 vectors.
 Isotropic polarizability for W=    0.000000      433.81 Bohr**3.
 End of Minotr F.D. properties file   721 does not exist.
 End of Minotr F.D. properties file   722 does not exist.
 End of Minotr F.D. properties file   788 does not exist.

 **********************************************************************

            Population analysis using the SCF Density.

 **********************************************************************

 Orbital symmetries:
       Occupied  (A) (A) (A) (A) (A) (A) (A) (A) (A) (A) (A) (A)
                 (A) (A) (A) (A) (A) (A) (A) (A) (A) (A) (A) (A)
                 (A) (A) (A) (A) (A) (A) (A) (A) (A) (A) (A) (A)
                 (A) (A) (A) (A) (A) (A) (A) (A) (A) (A) (A) (A)
                 (A) (A) (A) (A) (A) (A) (A) (A) (A) (A) (A) (A)
                 (A) (A) (A) (A) (A) (A) (A) (A) (A) (A) (A) (A)
                 (A) (A) (A) (A) (A) (A) (A) (A) (A) (A) (A) (A)
                 (A) (A) (A) (A) (A) (A) (A) (A) (A) (A) (A) (A)
                 (A) (A) (A) (A) (A) (A)
       Virtual   (A) (A) (A) (A) (A) (A) (A) (A) (A) (A) (A) (A)
                 (A) (A) (A) (A) (A) (A) (A) (A) (A) (A) (A) (A)
                 (A) (A) (A) (A) (A) (A) (A) (A) (A) (A) (A) (A)
                 (A) (A) (A) (A) (A) (A) (A) (A) (A) (A) (A) (A)
                 (A) (A) (A) (A) (A) (A) (A) (A) (A) (A) (A) (A)
                 (A) (A) (A) (A) (A) (A) (A) (A) (A) (A) (A) (A)
                 (A) (A) (A) (A) (A) (A) (A) (A) (A) (A) (A) (A)
                 (A) (A) (A) (A) (A) (A) (A) (A) (A) (A) (A) (A)
                 (A) (A) (A) (A) (A) (A) (A) (A) (A) (A) (A) (A)
                 (A) (A) (A) (A) (A) (A) (A) (A) (A) (A) (A) (A)
                 (A) (A) (A) (A) (A) (A) (A) (A) (A) (A) (A) (A)
                 (A) (A) (A) (A) (A) (A) (A) (A) (A) (A) (A) (A)
                 (A) (A) (A) (A) (A) (A) (A) (A) (A) (A) (A) (A)
                 (A) (A) (A) (A) (A) (A) (A) (A) (A) (A) (A) (A)
                 (A) (A) (A) (A) (A) (A) (A) (A) (A) (A) (A) (A)
                 (A) (A) (A) (A) (A) (A) (A) (A) (A) (A) (A) (A)
                 (A) (A) (A) (A) (A) (A) (A) (A) (A) (A) (A) (A)
                 (A) (A) (A) (A) (A) (A) (A) (A) (A) (A) (A) (A)
                 (A) (A) (A) (A) (A) (A) (A) (A) (A) (A) (A) (A)
                 (A) (A) (A) (A) (A) (A) (A) (A) (A) (A) (A) (A)
                 (A) (A) (A) (A) (A) (A) (A) (A) (A) (A) (A) (A)
                 (A) (A) (A) (A) (A) (A) (A) (A) (A) (A) (A) (A)
                 (A) (A) (A) (A) (A) (A) (A) (A) (A) (A) (A) (A)
                 (A) (A) (A) (A) (A) (A) (A) (A) (A) (A) (A) (A)
                 (A) (A) (A) (A) (A) (A) (A) (A) (A) (A) (A) (A)
                 (A) (A) (A) (A) (A) (A) (A) (A) (A) (A) (A) (A)
                 (A) (A) (A) (A) (A) (A) (A) (A) (A) (A) (A) (A)
                 (A) (A) (A) (A) (A) (A) (A) (A) (A) (A) (A) (A)
                 (A) (A) (A) (A) (A) (A) (A) (A) (A) (A) (A) (A)
                 (A) (A) (A) (A) (A) (A) (A) (A) (A) (A) (A) (A)
                 (A) (A) (A) (A) (A) (A) (A) (A) (A) (A) (A) (A)
                 (A) (A) (A) (A) (A) (A) (A) (A) (A) (A) (A) (A)
                 (A) (A) (A) (A) (A) (A) (A) (A) (A) (A) (A) (A)
                 (A) (A) (A) (A) (A) (A) (A) (A) (A) (A) (A) (A)
                 (A) (A) (A) (A) (A) (A) (A) (A) (A) (A) (A) (A)
                 (A) (A) (A) (A) (A) (A) (A) (A) (A) (A) (A) (A)
                 (A) (A) (A) (A) (A) (A) (A) (A) (A) (A) (A) (A)
                 (A) (A) (A) (A) (A) (A) (A) (A) (A) (A) (A) (A)
                 (A) (A) (A) (A) (A) (A) (A) (A) (A) (A) (A) (A)
                 (A) (A) (A) (A) (A) (A) (A) (A) (A) (A) (A) (A)
                 (A) (A) (A) (A) (A) (A) (A) (A) (A) (A) (A) (A)
                 (A) (A) (A) (A) (A) (A) (A) (A) (A) (A) (A) (A)
                 (A) (A) (A) (A) (A) (A) (A) (A) (A) (A) (A) (A)
                 (A) (A) (A) (A) (A) (A) (A) (A) (A) (A) (A) (A)
                 (A) (A) (A) (A) (A) (A) (A) (A) (A) (A) (A) (A)
                 (A) (A) (A) (A) (A) (A) (A) (A) (A) (A) (A) (A)
                 (A) (A) (A) (A) (A) (A) (A) (A) (A) (A) (A) (A)
                 (A) (A) (A) (A) (A) (A) (A) (A) (A) (A) (A) (A)
                 (A) (A) (A) (A) (A) (A) (A) (A) (A) (A) (A) (A)
                 (A) (A) (A) (A) (A) (A) (A) (A) (A) (A) (A) (A)
                 (A) (A) (A) (A) (A) (A) (A) (A) (A) (A) (A) (A)
                 (A) (A) (A) (A) (A) (A) (A) (A) (A) (A) (A) (A)
                 (A) (A) (A) (A) (A) (A) (A) (A) (A) (A) (A) (A)
                 (A) (A) (A) (A) (A) (A) (A) (A) (A) (A) (A) (A)
                 (A) (A) (A) (A) (A) (A) (A) (A) (A) (A) (A) (A)
                 (A) (A) (A) (A) (A) (A) (A) (A) (A) (A) (A) (A)
                 (A) (A) (A) (A) (A) (A) (A) (A) (A) (A) (A) (A)
                 (A) (A) (A) (A) (A) (A) (A) (A) (A) (A) (A) (A)
                 (A) (A) (A) (A) (A) (A) (A) (A) (A) (A) (A) (A)
                 (A) (A) (A) (A) (A) (A) (A) (A) (A) (A) (A) (A)
                 (A) (A) (A) (A) (A)
 The electronic state is 1-A.
 Alpha  occ. eigenvalues --  -14.49331 -14.49278 -10.30832 -10.30743 -10.30430
 Alpha  occ. eigenvalues --  -10.30261 -10.30192 -10.30172 -10.28732 -10.27426
 Alpha  occ. eigenvalues --  -10.27422 -10.26424 -10.26329 -10.26304 -10.25529
 Alpha  occ. eigenvalues --  -10.25418 -10.25391 -10.25361 -10.25244 -10.25233
 Alpha  occ. eigenvalues --  -10.25141 -10.25102 -10.25083 -10.24813 -10.24760
 Alpha  occ. eigenvalues --   -3.97949  -2.21165  -2.20717  -2.19616  -0.99395
 Alpha  occ. eigenvalues --   -0.99046  -0.89447  -0.86986  -0.82567  -0.80799
 Alpha  occ. eigenvalues --   -0.80684  -0.80335  -0.77186  -0.76832  -0.76571
 Alpha  occ. eigenvalues --   -0.76214  -0.73692  -0.72341  -0.72233  -0.67464
 Alpha  occ. eigenvalues --   -0.67177  -0.64072  -0.63600  -0.62311  -0.61360
 Alpha  occ. eigenvalues --   -0.60600  -0.60517  -0.55267  -0.54893  -0.53902
 Alpha  occ. eigenvalues --   -0.53481  -0.53333  -0.53121  -0.50782  -0.50514
 Alpha  occ. eigenvalues --   -0.49452  -0.48281  -0.47427  -0.47330  -0.46601
 Alpha  occ. eigenvalues --   -0.46461  -0.46098  -0.45916  -0.45670  -0.45469
 Alpha  occ. eigenvalues --   -0.44961  -0.44210  -0.43842  -0.43817  -0.43416
 Alpha  occ. eigenvalues --   -0.43161  -0.42924  -0.42552  -0.42065  -0.40940
 Alpha  occ. eigenvalues --   -0.40467  -0.40353  -0.40018  -0.39008  -0.38896
 Alpha  occ. eigenvalues --   -0.38600  -0.38427  -0.38233  -0.37915  -0.37592
 Alpha  occ. eigenvalues --   -0.37093  -0.36967  -0.36115  -0.35464  -0.33107
 Alpha  occ. eigenvalues --   -0.32817  -0.31145  -0.27881  -0.27579  -0.27516
 Alpha  occ. eigenvalues --   -0.26479  -0.26137
 Alpha virt. eigenvalues --   -0.11276  -0.08672  -0.03630  -0.02909  -0.02412
 Alpha virt. eigenvalues --   -0.01999  -0.01852  -0.00554  -0.00079   0.01317
 Alpha virt. eigenvalues --    0.03574   0.03966   0.04469   0.04598   0.05209
 Alpha virt. eigenvalues --    0.06145   0.06271   0.06541   0.06848   0.07104
 Alpha virt. eigenvalues --    0.07230   0.07494   0.07817   0.08000   0.08491
 Alpha virt. eigenvalues --    0.09025   0.09436   0.09602   0.09949   0.10015
 Alpha virt. eigenvalues --    0.10216   0.10783   0.11092   0.11429   0.11857
 Alpha virt. eigenvalues --    0.12164   0.12444   0.12669   0.12981   0.13373
 Alpha virt. eigenvalues --    0.13926   0.14514   0.14701   0.14962   0.15250
 Alpha virt. eigenvalues --    0.15320   0.15807   0.16114   0.16823   0.17090
 Alpha virt. eigenvalues --    0.17856   0.18797   0.19229   0.19644   0.20082
 Alpha virt. eigenvalues --    0.21030   0.21464   0.21988   0.22687   0.22815
 Alpha virt. eigenvalues --    0.23466   0.24151   0.25071   0.25230   0.25763
 Alpha virt. eigenvalues --    0.26075   0.26092   0.26478   0.26911   0.27242
 Alpha virt. eigenvalues --    0.27422   0.27758   0.28650   0.28894   0.28991
 Alpha virt. eigenvalues --    0.30182   0.30540   0.31099   0.31263   0.31932
 Alpha virt. eigenvalues --    0.32453   0.32959   0.33416   0.34023   0.34635
 Alpha virt. eigenvalues --    0.34883   0.35238   0.36349   0.36475   0.36779
 Alpha virt. eigenvalues --    0.37230   0.37455   0.37745   0.38355   0.38979
 Alpha virt. eigenvalues --    0.39234   0.39790   0.40163   0.40323   0.40636
 Alpha virt. eigenvalues --    0.40758   0.41488   0.42022   0.42288   0.42662
 Alpha virt. eigenvalues --    0.43721   0.43968   0.44253   0.44705   0.45001
 Alpha virt. eigenvalues --    0.45232   0.45705   0.46211   0.46423   0.46734
 Alpha virt. eigenvalues --    0.46929   0.47438   0.48054   0.48155   0.48674
 Alpha virt. eigenvalues --    0.48925   0.49727   0.50271   0.50544   0.50711
 Alpha virt. eigenvalues --    0.51038   0.51374   0.51649   0.51955   0.52438
 Alpha virt. eigenvalues --    0.52492   0.52646   0.53048   0.53186   0.53497
 Alpha virt. eigenvalues --    0.53804   0.54134   0.54269   0.54380   0.54694
 Alpha virt. eigenvalues --    0.54825   0.55253   0.55467   0.55944   0.56068
 Alpha virt. eigenvalues --    0.56208   0.56479   0.56548   0.57170   0.57264
 Alpha virt. eigenvalues --    0.57651   0.57881   0.58044   0.58603   0.58759
 Alpha virt. eigenvalues --    0.59442   0.59522   0.60206   0.60945   0.61329
 Alpha virt. eigenvalues --    0.61553   0.62077   0.62452   0.62574   0.63494
 Alpha virt. eigenvalues --    0.63989   0.64233   0.64778   0.65144   0.65407
 Alpha virt. eigenvalues --    0.66022   0.66661   0.67000   0.67219   0.67518
 Alpha virt. eigenvalues --    0.68086   0.68498   0.68647   0.68890   0.69391
 Alpha virt. eigenvalues --    0.70971   0.71027   0.71133   0.71533   0.72367
 Alpha virt. eigenvalues --    0.73391   0.73588   0.74142   0.74505   0.74790
 Alpha virt. eigenvalues --    0.75441   0.75552   0.75856   0.76604   0.77055
 Alpha virt. eigenvalues --    0.78055   0.78439   0.78714   0.79349   0.79491
 Alpha virt. eigenvalues --    0.80099   0.80446   0.80981   0.81483   0.81842
 Alpha virt. eigenvalues --    0.82545   0.83797   0.84487   0.84732   0.86181
 Alpha virt. eigenvalues --    0.86476   0.87194   0.87808   0.87951   0.88672
 Alpha virt. eigenvalues --    0.89404   0.89787   0.90654   0.91100   0.92370
 Alpha virt. eigenvalues --    0.92708   0.93220   0.93491   0.94649   0.95144
 Alpha virt. eigenvalues --    0.95666   0.95725   0.96167   0.97331   0.98468
 Alpha virt. eigenvalues --    0.98729   0.99280   1.00184   1.01411   1.01811
 Alpha virt. eigenvalues --    1.02416   1.02662   1.03639   1.03856   1.04358
 Alpha virt. eigenvalues --    1.05150   1.05436   1.05766   1.06647   1.06755
 Alpha virt. eigenvalues --    1.06934   1.08150   1.08855   1.09488   1.09650
 Alpha virt. eigenvalues --    1.10413   1.10637   1.11364   1.11915   1.12740
 Alpha virt. eigenvalues --    1.13562   1.13824   1.14270   1.14868   1.15327
 Alpha virt. eigenvalues --    1.15906   1.16648   1.16810   1.17294   1.17760
 Alpha virt. eigenvalues --    1.18777   1.19375   1.20145   1.20595   1.21190
 Alpha virt. eigenvalues --    1.21751   1.22128   1.22614   1.23202   1.23417
 Alpha virt. eigenvalues --    1.23786   1.24378   1.24429   1.24627   1.25037
 Alpha virt. eigenvalues --    1.25737   1.26113   1.26686   1.27046   1.27871
 Alpha virt. eigenvalues --    1.28525   1.28843   1.29235   1.30169   1.30798
 Alpha virt. eigenvalues --    1.31719   1.31896   1.32921   1.33553   1.34308
 Alpha virt. eigenvalues --    1.35032   1.36256   1.36888   1.37530   1.38342
 Alpha virt. eigenvalues --    1.38498   1.39395   1.40254   1.40839   1.41185
 Alpha virt. eigenvalues --    1.41609   1.43138   1.43536   1.44226   1.44859
 Alpha virt. eigenvalues --    1.45607   1.46159   1.47089   1.47737   1.48593
 Alpha virt. eigenvalues --    1.49424   1.50098   1.50283   1.51216   1.51426
 Alpha virt. eigenvalues --    1.51986   1.52194   1.53710   1.54947   1.55090
 Alpha virt. eigenvalues --    1.55800   1.56181   1.58142   1.59228   1.59535
 Alpha virt. eigenvalues --    1.60039   1.61667   1.62775   1.63196   1.64673
 Alpha virt. eigenvalues --    1.65596   1.66361   1.66535   1.66995   1.67682
 Alpha virt. eigenvalues --    1.68458   1.69272   1.69779   1.70217   1.70658
 Alpha virt. eigenvalues --    1.71152   1.72300   1.72731   1.73653   1.74185
 Alpha virt. eigenvalues --    1.74708   1.75260   1.75947   1.76903   1.78087
 Alpha virt. eigenvalues --    1.78601   1.78748   1.79886   1.81447   1.82122
 Alpha virt. eigenvalues --    1.83869   1.84330   1.85237   1.85713   1.86167
 Alpha virt. eigenvalues --    1.86763   1.87559   1.87953   1.89416   1.90881
 Alpha virt. eigenvalues --    1.92158   1.94604   1.95047   1.95201   1.96098
 Alpha virt. eigenvalues --    1.97140   1.98729   1.98773   1.99768   2.00997
 Alpha virt. eigenvalues --    2.02937   2.03583   2.03968   2.05363   2.05384
 Alpha virt. eigenvalues --    2.06684   2.07063   2.07641   2.07825   2.08778
 Alpha virt. eigenvalues --    2.09744   2.10061   2.10552   2.11295   2.11681
 Alpha virt. eigenvalues --    2.11973   2.12977   2.13507   2.13884   2.14031
 Alpha virt. eigenvalues --    2.14316   2.14904   2.15071   2.15215   2.16538
 Alpha virt. eigenvalues --    2.16953   2.17388   2.17579   2.18038   2.18941
 Alpha virt. eigenvalues --    2.19392   2.19667   2.20551   2.21470   2.22315
 Alpha virt. eigenvalues --    2.22636   2.23865   2.24427   2.25328   2.25950
 Alpha virt. eigenvalues --    2.26676   2.28077   2.29618   2.30336   2.31447
 Alpha virt. eigenvalues --    2.31925   2.32684   2.32762   2.34349   2.35185
 Alpha virt. eigenvalues --    2.35749   2.36685   2.37675   2.38242   2.38607
 Alpha virt. eigenvalues --    2.40022   2.40594   2.41250   2.41876   2.43021
 Alpha virt. eigenvalues --    2.43666   2.44152   2.44796   2.46058   2.46217
 Alpha virt. eigenvalues --    2.47000   2.48248   2.48996   2.49096   2.50466
 Alpha virt. eigenvalues --    2.51234   2.51969   2.52580   2.53890   2.54120
 Alpha virt. eigenvalues --    2.55502   2.56041   2.56519   2.56959   2.57414
 Alpha virt. eigenvalues --    2.57833   2.58870   2.59084   2.60463   2.60704
 Alpha virt. eigenvalues --    2.61240   2.61391   2.61966   2.62723   2.63999
 Alpha virt. eigenvalues --    2.65250   2.65928   2.66795   2.67347   2.68399
 Alpha virt. eigenvalues --    2.68676   2.69801   2.71634   2.73402   2.75442
 Alpha virt. eigenvalues --    2.75578   2.75964   2.76454   2.77090   2.77753
 Alpha virt. eigenvalues --    2.78540   2.79059   2.79999   2.80268   2.81462
 Alpha virt. eigenvalues --    2.81902   2.82745   2.83906   2.84751   2.85706
 Alpha virt. eigenvalues --    2.86579   2.87335   2.88002   2.88797   2.89372
 Alpha virt. eigenvalues --    2.90872   2.91714   2.95711   2.98346   2.99560
 Alpha virt. eigenvalues --    3.00089   3.03588   3.05666   3.06476   3.06945
 Alpha virt. eigenvalues --    3.07837   3.07968   3.09334   3.09351   3.09907
 Alpha virt. eigenvalues --    3.11588   3.12457   3.13429   3.14338   3.14854
 Alpha virt. eigenvalues --    3.16024   3.16745   3.16997   3.18004   3.18538
 Alpha virt. eigenvalues --    3.19252   3.19474   3.19928   3.20692   3.21040
 Alpha virt. eigenvalues --    3.21209   3.21949   3.22670   3.23087   3.23470
 Alpha virt. eigenvalues --    3.24730   3.25403   3.25977   3.27467   3.28181
 Alpha virt. eigenvalues --    3.28908   3.29089   3.29876   3.29986   3.31150
 Alpha virt. eigenvalues --    3.32263   3.32387   3.32770   3.33282   3.33882
 Alpha virt. eigenvalues --    3.34865   3.35274   3.36511   3.36970   3.37300
 Alpha virt. eigenvalues --    3.37848   3.38469   3.38727   3.39686   3.39951
 Alpha virt. eigenvalues --    3.40578   3.41122   3.42519   3.42903   3.43401
 Alpha virt. eigenvalues --    3.44034   3.44138   3.44853   3.45367   3.45555
 Alpha virt. eigenvalues --    3.46761   3.47202   3.47585   3.47959   3.48496
 Alpha virt. eigenvalues --    3.48810   3.49530   3.50080   3.50343   3.51099
 Alpha virt. eigenvalues --    3.51877   3.52152   3.52351   3.53502   3.53681
 Alpha virt. eigenvalues --    3.54315   3.54579   3.55384   3.56008   3.56360
 Alpha virt. eigenvalues --    3.56929   3.57408   3.58051   3.58970   3.59576
 Alpha virt. eigenvalues --    3.60105   3.60591   3.61066   3.61862   3.62476
 Alpha virt. eigenvalues --    3.63641   3.63958   3.64723   3.64805   3.65731
 Alpha virt. eigenvalues --    3.66309   3.66810   3.67125   3.67465   3.68773
 Alpha virt. eigenvalues --    3.69657   3.70498   3.70787   3.72431   3.73091
 Alpha virt. eigenvalues --    3.73975   3.74189   3.75041   3.76464   3.76830
 Alpha virt. eigenvalues --    3.77007   3.78101   3.79171   3.80497   3.80668
 Alpha virt. eigenvalues --    3.81929   3.82860   3.83782   3.83898   3.84910
 Alpha virt. eigenvalues --    3.86469   3.86945   3.88073   3.88571   3.89222
 Alpha virt. eigenvalues --    3.89847   3.91591   3.92419   3.95715   3.96244
 Alpha virt. eigenvalues --    4.01230   4.02286   4.03312   4.07526   4.07859
 Alpha virt. eigenvalues --    4.08480   4.09231   4.09983   4.10799   4.11112
 Alpha virt. eigenvalues --    4.11564   4.12030   4.13232   4.13571   4.14083
 Alpha virt. eigenvalues --    4.15004   4.15853   4.16987   4.17460   4.18492
 Alpha virt. eigenvalues --    4.19256   4.20697   4.21629   4.28698   4.35468
 Alpha virt. eigenvalues --    4.36019   4.37324   4.38628   4.42355   4.44861
 Alpha virt. eigenvalues --    4.46895   4.48443   4.52412   4.54260   4.59195
 Alpha virt. eigenvalues --    4.63019   4.73122   4.73770   4.75113   4.76524
 Alpha virt. eigenvalues --    4.77011   4.77728   4.84053   4.85535   5.20364
 Alpha virt. eigenvalues --    5.20586   5.25175   5.27057   5.27368   5.28929
 Alpha virt. eigenvalues --    5.34008   5.43880   5.45357   5.48558   5.53212
 Alpha virt. eigenvalues --    5.57011  13.36811  13.46647  13.66427  23.54981
 Alpha virt. eigenvalues --   23.62028  23.79814  23.80456  23.88781  23.89578
 Alpha virt. eigenvalues --   23.91732  23.91814  23.92036  23.92972  23.94695
 Alpha virt. eigenvalues --   23.95246  23.96002  23.96891  23.97280  23.97665
 Alpha virt. eigenvalues --   23.99701  24.00492  24.03699  24.04477  24.07022
 Alpha virt. eigenvalues --   24.07585  24.21590  35.45238  35.50236  39.07339
          Condensed to atoms (all electrons):
 Mulliken charges:
               1
     1  Pt   1.068288
     2  C   -0.422580
     3  C    0.090162
     4  C    0.091053
     5  C   -0.170171
     6  C   -0.171039
     7  C   -0.059117
     8  H    0.092721
     9  H    0.095228
    10  H    0.091835
    11  N   -0.608631
    12  N   -0.598433
    13  C   -0.510512
    14  H    0.174364
    15  H    0.154161
    16  H    0.147847
    17  C   -0.087374
    18  H    0.174795
    19  H    0.144219
    20  C   -0.079850
    21  H    0.171598
    22  H    0.149736
    23  C   -0.082992
    24  C   -0.283842
    25  H    0.161043
    26  H    0.148560
    27  H    0.137542
    28  H    0.122755
    29  H    0.121137
    30  C   -0.067231
    31  C   -0.288509
    32  H    0.161518
    33  H    0.153704
    34  H    0.136440
    35  H    0.122946
    36  H    0.117416
    37  C   -0.060381
    38  C   -0.285816
    39  H    0.148849
    40  H    0.157610
    41  H    0.138307
    42  H    0.122629
    43  H    0.120559
    44  C   -0.076940
    45  C   -0.277574
    46  H    0.149297
    47  H    0.157733
    48  H    0.135692
    49  H    0.118395
    50  H    0.112947
    51  C   -0.086157
    52  C   -0.212802
    53  C   -0.112850
    54  C   -0.098791
    55  H    0.086022
    56  C   -0.101392
    57  H    0.099471
    58  C   -0.073720
    59  H    0.080819
    60  H    0.079512
    61  H    0.079794
 Sum of Mulliken charges =   1.00000
 Mulliken charges with hydrogens summed into heavy atoms:
               1
     1  Pt   1.068288
     2  C   -0.422580
     3  C    0.090162
     4  C    0.091053
     5  C   -0.077450
     6  C   -0.075811
     7  C    0.032718
    11  N   -0.608631
    12  N   -0.598433
    13  C   -0.034139
    17  C    0.231639
    20  C    0.241485
    23  C    0.226612
    24  C    0.097593
    30  C    0.247992
    31  C    0.088294
    37  C    0.246078
    38  C    0.095678
    44  C    0.230089
    45  C    0.089459
    51  C   -0.086157
    52  C   -0.126779
    53  C   -0.013379
    54  C   -0.017972
    56  C   -0.021880
    58  C    0.006074
 APT charges:
               1
     1  Pt   0.853885
     2  C   -0.211329
     3  C   -0.007506
     4  C   -0.007908
     5  C   -0.096137
     6  C   -0.096938
     7  C   -0.033144
     8  H    0.017800
     9  H    0.018790
    10  H    0.025155
    11  N   -0.608452
    12  N   -0.569492
    13  C    0.343387
    14  H   -0.038615
    15  H    0.000906
    16  H    0.004016
    17  C    0.293086
    18  H   -0.007730
    19  H   -0.004939
    20  C    0.285295
    21  H   -0.013639
    22  H    0.002661
    23  C    0.311348
    24  C   -0.006984
    25  H    0.006942
    26  H   -0.004789
    27  H   -0.009310
    28  H   -0.002413
    29  H    0.007590
    30  C    0.294519
    31  C    0.007059
    32  H    0.009172
    33  H   -0.007256
    34  H   -0.001024
    35  H   -0.002645
    36  H    0.013403
    37  C    0.284333
    38  C    0.012334
    39  H    0.009604
    40  H    0.004832
    41  H   -0.009394
    42  H   -0.003004
    43  H    0.008292
    44  C    0.308222
    45  C   -0.008447
    46  H   -0.009584
    47  H   -0.009786
    48  H   -0.009453
    49  H    0.005779
    50  H    0.008049
    51  C    0.169935
    52  C   -0.238256
    53  C   -0.362882
    54  C    0.034171
    55  H    0.047332
    56  C    0.070916
    57  H    0.032718
    58  C   -0.122363
    59  H   -0.004809
    60  H   -0.005066
    61  H    0.021763
 Sum of APT charges =   1.00000
 APT charges with hydrogens summed into heavy atoms:
               1
     1  Pt   0.853885
     2  C   -0.211329
     3  C   -0.007506
     4  C   -0.007908
     5  C   -0.078338
     6  C   -0.078147
     7  C   -0.007990
    11  N   -0.608452
    12  N   -0.569492
    13  C    0.309694
    17  C    0.280417
    20  C    0.274318
    23  C    0.313501
    24  C   -0.011116
    30  C    0.296435
    31  C    0.016793
    37  C    0.298769
    38  C    0.008228
    44  C    0.288851
    45  C   -0.004072
    51  C    0.169935
    52  C   -0.190924
    53  C   -0.330164
    54  C    0.029362
    56  C    0.065850
    58  C   -0.100599
 Electronic spatial extent (au):  <R**2>=           9604.8383
 Charge=              1.0000 electrons
 Dipole moment (field-independent basis, Debye):
    X=             -2.6601    Y=              0.3137    Z=              0.4103  Tot=              2.7098
 Quadrupole moment (field-independent basis, Debye-Ang):
   XX=           -157.6864   YY=           -127.5576   ZZ=           -159.9473
   XY=              4.6556   XZ=              1.2934   YZ=             -0.1229
 Traceless Quadrupole moment (field-independent basis, Debye-Ang):
   XX=             -9.2893   YY=             20.8395   ZZ=            -11.5502
   XY=              4.6556   XZ=              1.2934   YZ=             -0.1229
 Octapole moment (field-independent basis, Debye-Ang**2):
  XXX=            -22.0421  YYY=             13.6910  ZZZ=             24.9851  XYY=            -32.7741
  XXY=             -7.6073  XXZ=            -14.5616  XZZ=             19.3332  YZZ=             -2.9162
  YYZ=              9.1447  XYZ=              2.6159
 Hexadecapole moment (field-independent basis, Debye-Ang**3):
 XXXX=          -5539.8882 YYYY=          -4973.1625 ZZZZ=          -1355.3178 XXXY=            -50.6885
 XXXZ=             68.0354 YYYX=             76.4441 YYYZ=              8.5182 ZZZX=            -43.1011
 ZZZY=              5.9717 XXYY=          -1871.2909 XXZZ=          -1226.5748 YYZZ=          -1063.1385
 XXYZ=            -16.9203 YYXZ=             -7.7717 ZZXY=             13.6110
 N-N= 2.821586503867D+03 E-N=-8.196666639139D+03  KE= 1.038821044451D+03
  Exact polarizability:     540.086     -17.027     424.412      10.557      -3.878     336.936
 Approx polarizability:     580.974     -17.288     472.248      16.441      -4.920     440.052
   1 Symmetry operations used in ECPInt.
 ECPInt:  NShTT=   46360 NPrTT=  151530 LenC2=   39422 LenP2D=   84734.
 LDataN:  DoStor=T MaxTD1= 9 Len=  602
 D2PCM: PCM CHGder 2nd derivatives, FixD1E=F FixD2E=F DoIter=F DoCFld=F I1PDM=0
 Calling FoFJK, ICntrl=    100127 FMM=F ISym2X=0 I1Cent= 0 IOpClX= 0 NMat=1 NMatS=1 NMatT=0.
 Defaulting to unpruned grid for atomic number  78.
 Defaulting to unpruned grid for atomic number  78.
 Defaulting to unpruned grid for atomic number  78.
 Defaulting to unpruned grid for atomic number  78.
 Defaulting to unpruned grid for atomic number  78.
 Defaulting to unpruned grid for atomic number  78.
 Defaulting to unpruned grid for atomic number  78.
 Defaulting to unpruned grid for atomic number  78.
 Defaulting to unpruned grid for atomic number  78.
 Defaulting to unpruned grid for atomic number  78.
 Defaulting to unpruned grid for atomic number  78.
 Defaulting to unpruned grid for atomic number  78.
 Defaulting to unpruned grid for atomic number  78.
 Defaulting to unpruned grid for atomic number  78.
 Defaulting to unpruned grid for atomic number  78.
 Defaulting to unpruned grid for atomic number  78.
 Defaulting to unpruned grid for atomic number  78.
 Defaulting to unpruned grid for atomic number  78.
 Defaulting to unpruned grid for atomic number  78.
 Defaulting to unpruned grid for atomic number  78.
 Full mass-weighted force constant matrix:
 Low frequencies ---   -0.0001    0.0002    0.0004   29.4659   33.9845   36.7970
 Low frequencies ---   54.2221   60.5422   77.1917
 Diagonal vibrational polarizability:
       32.8719675      46.1445026      28.6404178
 Harmonic frequencies (cm**-1), IR intensities (KM/Mole), Raman scattering
 activities (A**4/AMU), depolarization ratios for plane and unpolarized
 incident light, reduced masses (AMU), force constants (mDyne/A),
 and normal coordinates:
                      1                      2                      3
                      A                      A                      A
 Frequencies --     49.0317                60.0152                75.7725
 Red. masses --      4.0580                 4.5613                 3.6839
 Frc consts  --      0.0057                 0.0097                 0.0125
 IR Inten    --      0.8776                 0.3987                 0.6434
  Atom  AN      X      Y      Z        X      Y      Z        X      Y      Z
     1  78     0.01   0.01   0.01    -0.01  -0.04   0.00     0.00   0.03   0.00
     2   6     0.02  -0.00  -0.05     0.00  -0.01  -0.01    -0.00  -0.01  -0.00
     3   6     0.01  -0.00  -0.06     0.02   0.00   0.01    -0.04  -0.02   0.06
     4   6     0.02  -0.01  -0.05    -0.01   0.00  -0.03     0.04  -0.03  -0.06
     5   6     0.02  -0.01  -0.09     0.02   0.02  -0.00    -0.05  -0.06   0.06
     6   6     0.03  -0.01  -0.08    -0.00   0.02  -0.04     0.03  -0.07  -0.06
     7   6     0.02  -0.02  -0.10     0.01   0.03  -0.03    -0.01  -0.08   0.00
     8   1     0.02  -0.01  -0.10     0.03   0.02   0.01    -0.08  -0.06   0.10
     9   1     0.03  -0.02  -0.08    -0.01   0.03  -0.06     0.06  -0.08  -0.09
    10   1     0.03  -0.02  -0.12     0.01   0.04  -0.03    -0.02  -0.11   0.00
    11   7     0.01   0.01   0.03    -0.05  -0.01   0.02     0.03   0.01  -0.02
    12   7    -0.02   0.01   0.04     0.04  -0.03  -0.00    -0.03   0.02   0.01
    13   6     0.10   0.01  -0.01     0.00  -0.09  -0.00    -0.01  -0.02   0.00
    14   1     0.12   0.02   0.03     0.00  -0.12   0.01    -0.01  -0.01   0.00
    15   1     0.10   0.00  -0.01     0.01  -0.10  -0.04    -0.03  -0.03  -0.02
    16   1     0.12   0.00  -0.04    -0.01  -0.10   0.02     0.00  -0.04   0.03
    17   6     0.02   0.00  -0.02     0.03  -0.00   0.03    -0.08   0.03   0.09
    18   1     0.06   0.01  -0.01     0.01   0.03   0.03    -0.13   0.12   0.08
    19   1    -0.00   0.00  -0.03     0.04  -0.01   0.07    -0.10   0.00   0.18
    20   6     0.03  -0.01  -0.01    -0.01   0.00  -0.03     0.08   0.01  -0.09
    21   1     0.07  -0.03   0.00     0.04   0.02  -0.02     0.14   0.07  -0.07
    22   1     0.03  -0.01  -0.01    -0.02   0.01  -0.07     0.10  -0.01  -0.17
    23   6     0.02  -0.02   0.10    -0.03  -0.04   0.09     0.07  -0.00   0.06
    24   6     0.02  -0.03   0.16    -0.04  -0.04   0.11     0.11  -0.02   0.10
    25   1     0.01  -0.01   0.12    -0.05  -0.04   0.13     0.05   0.03   0.10
    26   1     0.05  -0.07   0.08     0.02  -0.06   0.09     0.11  -0.04   0.05
    27   1     0.03  -0.07   0.20    -0.02  -0.07   0.15     0.15  -0.04   0.16
    28   1    -0.02   0.01   0.18    -0.09  -0.02   0.12     0.06   0.02   0.13
    29   1     0.03  -0.05   0.13    -0.02  -0.04   0.07     0.14  -0.05   0.05
    30   6    -0.04   0.07   0.05    -0.13   0.01   0.01    -0.06   0.02  -0.03
    31   6    -0.07   0.10   0.06    -0.18   0.05  -0.03    -0.11   0.05  -0.10
    32   1    -0.03   0.09   0.01    -0.12   0.02  -0.01    -0.07   0.03  -0.05
    33   1    -0.05   0.05   0.08    -0.16  -0.03   0.06    -0.10  -0.01   0.02
    34   1    -0.10   0.13   0.07    -0.24   0.06  -0.02    -0.19   0.06  -0.10
    35   1    -0.05   0.11   0.02    -0.16   0.08  -0.08    -0.08   0.08  -0.17
    36   1    -0.07   0.07   0.09    -0.18   0.03  -0.01    -0.09   0.04  -0.08
    37   6    -0.10  -0.03   0.04     0.09  -0.05   0.01     0.07   0.01   0.02
    38   6    -0.16  -0.04   0.08     0.14  -0.05   0.03     0.16   0.01   0.04
    39   1    -0.12  -0.02   0.08     0.10  -0.09  -0.02     0.08  -0.04  -0.03
    40   1    -0.11  -0.07  -0.01     0.09  -0.03   0.02     0.07   0.05   0.06
    41   1    -0.22  -0.08   0.07     0.17  -0.06   0.04     0.22   0.02   0.06
    42   1    -0.17  -0.00   0.14     0.15  -0.08   0.01     0.19  -0.04  -0.00
    43   1    -0.14  -0.05   0.05     0.14  -0.02   0.06     0.16   0.06   0.08
    44   6     0.01   0.03   0.11     0.03  -0.04  -0.03    -0.07   0.03  -0.06
    45   6     0.03   0.06   0.17     0.03  -0.03  -0.02    -0.13   0.02  -0.08
    46   1     0.04   0.07   0.08     0.01  -0.03  -0.04    -0.11   0.02  -0.07
    47   1    -0.02  -0.00   0.13     0.05  -0.05  -0.05    -0.03   0.05  -0.11
    48   1     0.04   0.07   0.19     0.02  -0.03  -0.03    -0.15   0.04  -0.11
    49   1     0.04   0.10   0.16     0.02  -0.02  -0.01    -0.16   0.00  -0.05
    50   1     0.03   0.03   0.20     0.04  -0.04  -0.01    -0.11   0.03  -0.08
    51   6     0.01  -0.01  -0.05     0.01   0.04  -0.01    -0.00   0.01   0.00
    52   6     0.03  -0.04  -0.08     0.03   0.12  -0.02    -0.01  -0.03   0.00
    53   6    -0.04  -0.01  -0.06    -0.00   0.06  -0.02    -0.01  -0.02   0.00
    54   6     0.02  -0.05  -0.13     0.04   0.22  -0.03    -0.02  -0.10  -0.00
    55   1     0.07  -0.04  -0.07     0.04   0.11  -0.02    -0.01  -0.02   0.00
    56   6    -0.05  -0.02  -0.10     0.01   0.16  -0.03    -0.02  -0.08  -0.00
    57   1    -0.06   0.02  -0.03    -0.02  -0.00  -0.01    -0.00   0.01   0.00
    58   6    -0.02  -0.05  -0.14     0.03   0.24  -0.03    -0.02  -0.12  -0.00
    59   1     0.04  -0.07  -0.15     0.06   0.28  -0.03    -0.02  -0.13  -0.00
    60   1    -0.09  -0.02  -0.11     0.00   0.18  -0.03    -0.02  -0.10  -0.00
    61   1    -0.03  -0.06  -0.17     0.04   0.32  -0.04    -0.03  -0.17  -0.01
                      4                      5                      6
                      A                      A                      A
 Frequencies --     79.3187               117.7459               121.9325
 Red. masses --      5.3215                 3.2942                 3.7089
 Frc consts  --      0.0197                 0.0269                 0.0325
 IR Inten    --      1.1255                 0.5610                 0.7358
  Atom  AN      X      Y      Z        X      Y      Z        X      Y      Z
     1  78    -0.03   0.00   0.08     0.03  -0.01   0.04     0.00  -0.02  -0.02
     2   6    -0.00  -0.00  -0.04     0.02  -0.01   0.00    -0.01   0.00   0.04
     3   6     0.01  -0.00  -0.07     0.01  -0.01   0.00    -0.01  -0.00   0.01
     4   6     0.01  -0.01  -0.06     0.02  -0.00  -0.02    -0.02   0.00   0.02
     5   6     0.02  -0.00  -0.15     0.01  -0.02   0.02    -0.00  -0.00  -0.06
     6   6     0.02  -0.00  -0.14     0.02  -0.01  -0.01    -0.01   0.00  -0.05
     7   6     0.03   0.00  -0.19     0.01  -0.02   0.02    -0.00   0.00  -0.10
     8   1     0.03  -0.00  -0.18     0.01  -0.01   0.03     0.01  -0.00  -0.10
     9   1     0.02   0.00  -0.17     0.03  -0.02  -0.02     0.00  -0.00  -0.08
    10   1     0.04   0.00  -0.26     0.01  -0.02   0.03     0.01   0.00  -0.17
    11   7     0.01   0.00   0.00     0.00  -0.00  -0.03    -0.01   0.01   0.05
    12   7     0.01  -0.01   0.01    -0.01   0.01   0.00    -0.01   0.02   0.01
    13   6     0.05  -0.00   0.07     0.06   0.02   0.04     0.01   0.02  -0.03
    14   1     0.06  -0.00   0.09     0.07   0.03   0.05     0.03   0.07  -0.02
    15   1     0.05  -0.01   0.07     0.06   0.02   0.06    -0.03   0.02  -0.01
    16   1     0.06  -0.01   0.06     0.07   0.02   0.02     0.05  -0.00  -0.06
    17   6     0.02   0.01   0.00     0.01  -0.03  -0.03    -0.03   0.02   0.04
    18   1     0.04   0.06   0.01     0.02  -0.09  -0.03    -0.04   0.07   0.04
    19   1     0.01  -0.00   0.04     0.01  -0.01  -0.10    -0.04   0.00   0.09
    20   6     0.00  -0.02   0.01     0.03   0.02  -0.06    -0.03  -0.01   0.07
    21   1     0.00  -0.07   0.01     0.05   0.06  -0.05    -0.05  -0.06   0.06
    22   1     0.00  -0.01   0.05     0.03   0.01  -0.10    -0.03  -0.00   0.12
    23   6     0.03   0.05  -0.04    -0.02  -0.03  -0.04    -0.03   0.00   0.03
    24   6     0.07   0.05  -0.09    -0.14   0.01  -0.13    -0.07   0.02  -0.00
    25   1     0.03   0.05  -0.05    -0.04  -0.13   0.00    -0.03  -0.03   0.03
    26   1    -0.00   0.09  -0.02     0.05   0.01   0.00    -0.02   0.02   0.04
    27   1     0.06   0.10  -0.12    -0.15  -0.02  -0.12    -0.09   0.01  -0.02
    28   1     0.11   0.02  -0.11    -0.22  -0.03  -0.16    -0.07  -0.00  -0.01
    29   1     0.06   0.04  -0.07    -0.13   0.12  -0.17    -0.08   0.05   0.01
    30   6     0.06  -0.04  -0.00    -0.04   0.01  -0.04     0.03   0.04   0.07
    31   6     0.13  -0.10   0.00    -0.12   0.09  -0.05     0.04   0.03   0.13
    32   1     0.03  -0.06   0.02     0.02   0.04  -0.03     0.04   0.05   0.06
    33   1     0.09   0.01  -0.03    -0.06  -0.06  -0.03     0.04   0.05   0.04
    34   1     0.18  -0.12  -0.01    -0.19   0.11  -0.05     0.08   0.07   0.14
    35   1     0.10  -0.15   0.04    -0.09   0.17  -0.09     0.03   0.02   0.15
    36   1     0.16  -0.07  -0.02    -0.16   0.07  -0.03     0.03   0.01   0.15
    37   6     0.04   0.03  -0.00    -0.04   0.04  -0.02     0.02  -0.01   0.02
    38   6     0.17   0.04  -0.04    -0.12   0.04  -0.07     0.10  -0.01   0.05
    39   1     0.01  -0.03   0.01    -0.03   0.09   0.00     0.01  -0.05   0.00
    40   1    -0.00   0.11  -0.00    -0.03   0.01  -0.01     0.01   0.03   0.02
    41   1     0.18   0.10  -0.05    -0.06   0.07  -0.06     0.13  -0.01   0.06
    42   1     0.22  -0.05  -0.05    -0.17   0.10  -0.17     0.13  -0.06   0.04
    43   1     0.23   0.10  -0.06    -0.21  -0.04  -0.04     0.12   0.05   0.07
    44   6     0.02  -0.05  -0.02    -0.01   0.03   0.00    -0.04   0.07  -0.01
    45   6     0.05  -0.07  -0.07    -0.10  -0.03  -0.14    -0.12   0.07  -0.01
    46   1     0.01  -0.08   0.01     0.07  -0.03   0.08    -0.01   0.07  -0.00
    47   1     0.02  -0.04  -0.02    -0.04   0.17   0.04    -0.03   0.11  -0.01
    48   1     0.05  -0.11  -0.07    -0.07   0.03  -0.05    -0.12   0.12   0.00
    49   1     0.05  -0.08  -0.07    -0.03  -0.18  -0.24    -0.11   0.02  -0.03
    50   1     0.06  -0.04  -0.10    -0.27   0.03  -0.23    -0.18   0.06  -0.02
    51   6    -0.04   0.01   0.01     0.02  -0.01   0.02     0.01  -0.03  -0.03
    52   6    -0.00  -0.01  -0.03     0.04  -0.05  -0.00    -0.03  -0.18  -0.01
    53   6    -0.10   0.04  -0.01     0.00   0.04   0.01     0.06   0.14  -0.01
    54   6    -0.02  -0.01  -0.10     0.03  -0.04  -0.03    -0.02  -0.15   0.02
    55   1     0.04  -0.03  -0.02     0.05  -0.09   0.00    -0.08  -0.32  -0.02
    56   6    -0.12   0.04  -0.07    -0.00   0.05  -0.01     0.08   0.18   0.02
    57   1    -0.12   0.07   0.03    -0.01   0.07   0.03     0.10   0.22  -0.03
    58   6    -0.08   0.01  -0.11     0.01   0.02  -0.04     0.04   0.04   0.04
    59   1     0.01  -0.03  -0.13     0.04  -0.07  -0.05    -0.06  -0.28   0.04
    60   1    -0.17   0.06  -0.08    -0.02   0.09  -0.02     0.13   0.32   0.04
    61   1    -0.09   0.01  -0.16     0.01   0.03  -0.06     0.05   0.07   0.06
                      7                      8                      9
                      A                      A                      A
 Frequencies --    123.4553               133.9984               145.1743
 Red. masses --      3.5241                 2.5564                 1.8725
 Frc consts  --      0.0316                 0.0270                 0.0233
 IR Inten    --      0.5614                 0.3489                 0.2055
  Atom  AN      X      Y      Z        X      Y      Z        X      Y      Z
     1  78    -0.01  -0.01   0.00    -0.01   0.00  -0.00    -0.01  -0.01  -0.01
     2   6     0.00   0.01  -0.02     0.00  -0.03  -0.04    -0.01   0.00   0.01
     3   6     0.02   0.01  -0.01    -0.02  -0.03  -0.02     0.00   0.01   0.02
     4   6     0.00   0.01   0.01     0.01  -0.04  -0.03    -0.01   0.01  -0.00
     5   6     0.01   0.03   0.07    -0.04  -0.06   0.04     0.01   0.02   0.02
     6   6    -0.01   0.02   0.08     0.00  -0.07   0.03    -0.01   0.02  -0.01
     7   6     0.00   0.03   0.12    -0.02  -0.08   0.06     0.00   0.03   0.00
     8   1     0.01   0.03   0.09    -0.06  -0.07   0.07     0.01   0.03   0.02
     9   1    -0.03   0.03   0.11     0.01  -0.08   0.05    -0.02   0.03  -0.02
    10   1    -0.01   0.03   0.19    -0.03  -0.09   0.11     0.00   0.03   0.00
    11   7     0.00   0.02   0.01     0.03  -0.00  -0.04    -0.00   0.01  -0.02
    12   7     0.02  -0.01  -0.03    -0.04  -0.00   0.02    -0.01  -0.01   0.06
    13   6    -0.03   0.00   0.01     0.04   0.07  -0.00     0.01   0.01  -0.02
    14   1    -0.03   0.03  -0.00     0.05   0.12   0.00     0.02   0.03  -0.01
    15   1    -0.05  -0.00   0.02     0.01   0.07   0.03     0.00   0.01  -0.01
    16   1    -0.01  -0.01   0.00     0.07   0.05  -0.05     0.02   0.01  -0.04
    17   6     0.04  -0.02  -0.06    -0.03  -0.01   0.00     0.02  -0.01   0.02
    18   1     0.05  -0.09  -0.06    -0.02   0.03   0.01     0.05  -0.04   0.03
    19   1     0.06   0.00  -0.13    -0.06  -0.02   0.03     0.03   0.00  -0.01
    20   6     0.02   0.02  -0.03     0.03  -0.02  -0.04    -0.01   0.00  -0.01
    21   1     0.05   0.06  -0.02     0.02  -0.01  -0.04    -0.02  -0.00  -0.01
    22   1     0.03   0.01  -0.07     0.04  -0.03  -0.04    -0.01   0.00   0.00
    23   6     0.07   0.06   0.05     0.00  -0.04  -0.04     0.00   0.00  -0.02
    24   6     0.19   0.03   0.09    -0.07  -0.02  -0.05     0.04  -0.02   0.05
    25   1     0.05   0.14   0.07     0.00  -0.07  -0.03     0.01   0.05  -0.04
    26   1     0.05   0.05   0.04     0.03  -0.04  -0.04    -0.03  -0.03  -0.04
    27   1     0.24   0.07   0.14    -0.08  -0.06  -0.03     0.05  -0.02   0.06
    28   1     0.19   0.07   0.11    -0.11  -0.02  -0.04     0.08   0.02   0.08
    29   1     0.22  -0.06   0.05    -0.06   0.03  -0.06     0.04  -0.07   0.07
    30   6    -0.05  -0.00  -0.01     0.03   0.04  -0.02     0.02   0.02  -0.02
    31   6    -0.03  -0.03  -0.09    -0.02   0.11   0.03     0.03   0.01   0.00
    32   1    -0.09  -0.02  -0.02     0.09   0.07  -0.04     0.01   0.02  -0.02
    33   1    -0.06   0.01   0.03     0.03   0.01  -0.04     0.02   0.04  -0.02
    34   1    -0.06  -0.07  -0.11    -0.04   0.16   0.05     0.05   0.02   0.01
    35   1    -0.03  -0.04  -0.11    -0.00   0.15   0.01     0.03  -0.00   0.02
    36   1     0.01   0.00  -0.12    -0.06   0.07   0.07     0.03   0.01   0.01
    37   6    -0.02   0.01  -0.04    -0.08   0.06  -0.00    -0.09   0.01   0.05
    38   6    -0.06   0.02  -0.08     0.12   0.08  -0.06     0.06   0.02   0.00
    39   1    -0.03   0.04  -0.01    -0.17  -0.03   0.09    -0.17  -0.06   0.13
    40   1    -0.02   0.01  -0.05    -0.17   0.18  -0.06    -0.17   0.10  -0.02
    41   1    -0.08   0.04  -0.09    -0.05   0.16  -0.12     0.12   0.09   0.01
    42   1    -0.07   0.04  -0.08     0.23  -0.09   0.11     0.11  -0.08  -0.06
    43   1    -0.06  -0.02  -0.11     0.32   0.19  -0.22     0.09   0.07   0.01
    44   6     0.05  -0.03   0.01    -0.00  -0.05   0.05     0.03   0.02   0.15
    45   6     0.10  -0.05  -0.03     0.12  -0.03   0.10    -0.05  -0.07  -0.07
    46   1     0.08  -0.05   0.03    -0.05  -0.04   0.02     0.23  -0.07   0.29
    47   1     0.02  -0.03   0.04    -0.02  -0.15   0.05    -0.06   0.21   0.29
    48   1     0.12  -0.08  -0.00     0.09  -0.15  -0.00     0.05   0.02   0.16
    49   1     0.13  -0.05  -0.05     0.05   0.09   0.19     0.15  -0.32  -0.29
    50   1     0.09  -0.03  -0.05     0.31  -0.03   0.14    -0.38   0.02  -0.23
    51   6    -0.02  -0.01  -0.00    -0.00  -0.02   0.01     0.01  -0.01  -0.01
    52   6    -0.04  -0.14  -0.01    -0.00  -0.03   0.01     0.01   0.02  -0.01
    53   6    -0.01   0.13  -0.00     0.00   0.00   0.01     0.01  -0.03  -0.01
    54   6    -0.04  -0.13  -0.02     0.00   0.00   0.01     0.01   0.03  -0.00
    55   1    -0.06  -0.26  -0.02    -0.00  -0.05   0.01     0.01   0.04  -0.01
    56   6    -0.01   0.16  -0.01     0.01   0.04   0.01     0.01  -0.03  -0.00
    57   1     0.00   0.21  -0.00     0.00   0.00   0.01     0.01  -0.05  -0.01
    58   6    -0.03   0.03  -0.01     0.01   0.04   0.01     0.02   0.00   0.00
    59   1    -0.06  -0.24  -0.03    -0.00  -0.00   0.01     0.01   0.06   0.00
    60   1     0.00   0.28  -0.00     0.01   0.07   0.01     0.02  -0.05  -0.00
    61   1    -0.02   0.05  -0.02     0.01   0.07   0.01     0.02   0.01   0.01
                     10                     11                     12
                      A                      A                      A
 Frequencies --    158.2553               160.3549               165.3868
 Red. masses --      3.3779                 4.0049                 4.1540
 Frc consts  --      0.0498                 0.0607                 0.0669
 IR Inten    --      1.7536                 2.8492                 3.2918
  Atom  AN      X      Y      Z        X      Y      Z        X      Y      Z
     1  78     0.02  -0.03   0.01     0.01   0.06  -0.00     0.01  -0.02  -0.00
     2   6     0.03   0.01  -0.06    -0.01  -0.01   0.03    -0.05  -0.00   0.25
     3   6     0.04   0.01  -0.06    -0.01  -0.02  -0.06    -0.03  -0.01   0.16
     4   6     0.01   0.01  -0.01    -0.00  -0.03   0.09    -0.02   0.00   0.12
     5   6     0.03   0.02  -0.01    -0.01  -0.05  -0.09    -0.01  -0.01  -0.02
     6   6     0.00   0.03   0.05    -0.00  -0.05   0.09     0.01  -0.00  -0.07
     7   6     0.01   0.03   0.05    -0.01  -0.06  -0.00     0.00  -0.01  -0.14
     8   1     0.04   0.02   0.00    -0.02  -0.06  -0.17     0.02  -0.01  -0.12
     9   1    -0.02   0.03   0.11     0.00  -0.07   0.15     0.04  -0.00  -0.21
    10   1     0.01   0.04   0.10    -0.01  -0.07  -0.01     0.02  -0.01  -0.30
    11   7    -0.03  -0.04   0.02    -0.03  -0.05   0.09     0.00  -0.01   0.04
    12   7    -0.00   0.08  -0.02    -0.02  -0.04  -0.02    -0.01   0.02   0.07
    13   6    -0.04  -0.01   0.02    -0.02  -0.09  -0.02    -0.15   0.07  -0.00
    14   1    -0.06  -0.01  -0.02    -0.03  -0.13  -0.00    -0.15   0.08  -0.03
    15   1    -0.04  -0.01   0.04    -0.03  -0.12  -0.12    -0.14   0.07   0.03
    16   1    -0.05  -0.00   0.03    -0.02  -0.13   0.07    -0.14   0.08  -0.03
    17   6     0.01   0.03  -0.06    -0.00  -0.03  -0.07    -0.02  -0.03   0.08
    18   1     0.04   0.03  -0.05     0.03  -0.05  -0.06    -0.05  -0.09   0.08
    19   1    -0.03   0.02  -0.07     0.01  -0.03  -0.08    -0.02  -0.01   0.02
    20   6    -0.02  -0.01   0.00    -0.00  -0.02   0.08     0.01   0.04   0.03
    21   1    -0.01  -0.02   0.01     0.01   0.01   0.08     0.02   0.12   0.04
    22   1    -0.05   0.01   0.00    -0.02  -0.02   0.04     0.03   0.01  -0.05
    23   6    -0.02  -0.04   0.02    -0.02  -0.03   0.08     0.01   0.00   0.03
    24   6    -0.01  -0.05   0.02    -0.06   0.01  -0.07     0.01   0.01  -0.00
    25   1    -0.03  -0.04   0.03    -0.05  -0.11   0.13    -0.00  -0.01   0.05
    26   1    -0.02  -0.04   0.03     0.05   0.04   0.13     0.03   0.02   0.05
    27   1    -0.01  -0.03   0.00    -0.06   0.03  -0.08     0.03   0.03   0.00
    28   1     0.03  -0.06   0.02    -0.12  -0.08  -0.12    -0.00  -0.01  -0.02
    29   1    -0.01  -0.06   0.04    -0.05   0.09  -0.10     0.03   0.02  -0.03
    30   6    -0.05  -0.06   0.00    -0.08  -0.11   0.05    -0.03  -0.05   0.01
    31   6    -0.01  -0.12  -0.05    -0.09  -0.13  -0.04    -0.06  -0.04  -0.08
    32   1    -0.11  -0.08  -0.00    -0.10  -0.14   0.08    -0.04  -0.07   0.04
    33   1    -0.05  -0.02   0.03    -0.10  -0.14   0.08    -0.05  -0.08   0.03
    34   1     0.00  -0.16  -0.07    -0.11  -0.19  -0.06    -0.09  -0.11  -0.10
    35   1    -0.02  -0.17  -0.05    -0.09  -0.12  -0.04    -0.05  -0.02  -0.08
    36   1     0.04  -0.09  -0.08    -0.07  -0.08  -0.09    -0.05  -0.01  -0.12
    37   6    -0.07   0.09  -0.04    -0.09  -0.08  -0.02    -0.00   0.12   0.04
    38   6     0.09   0.10  -0.05     0.07  -0.07  -0.01    -0.05   0.15  -0.09
    39   1    -0.16  -0.00   0.04    -0.18  -0.18   0.04     0.00   0.18   0.07
    40   1    -0.15   0.18  -0.12    -0.17   0.01  -0.11     0.01   0.14   0.08
    41   1    -0.10   0.15  -0.11     0.03  -0.04  -0.02    -0.14   0.23  -0.12
    42   1     0.19  -0.03   0.13     0.14  -0.19   0.04    -0.05   0.15  -0.05
    43   1     0.28   0.21  -0.21     0.17   0.02  -0.05    -0.00   0.09  -0.19
    44   6    -0.02   0.17   0.02     0.02  -0.03   0.05    -0.00  -0.02   0.04
    45   6    -0.09   0.20   0.07     0.03  -0.06  -0.00     0.06  -0.02   0.03
    46   1     0.03   0.21  -0.01     0.10  -0.06   0.10    -0.05  -0.03   0.04
    47   1    -0.02   0.19   0.02    -0.04   0.01   0.12     0.01  -0.05   0.02
    48   1    -0.11   0.25   0.04     0.08  -0.04   0.10     0.01  -0.12  -0.09
    49   1    -0.12   0.20   0.10     0.12  -0.12  -0.09    -0.03   0.04   0.13
    50   1    -0.09   0.17   0.10    -0.08  -0.03  -0.05     0.23   0.00   0.04
    51   6    -0.01  -0.00   0.02     0.03   0.08  -0.02     0.00  -0.01  -0.09
    52   6     0.00   0.02   0.01     0.02   0.02  -0.02    -0.01   0.01  -0.07
    53   6    -0.04  -0.01   0.02     0.05   0.08  -0.02     0.04  -0.02  -0.08
    54   6    -0.00   0.02  -0.01     0.02  -0.05  -0.02    -0.00   0.02  -0.04
    55   1     0.01   0.03   0.02     0.02   0.02  -0.02    -0.05   0.03  -0.08
    56   6    -0.05  -0.02  -0.01     0.04   0.02  -0.02     0.05  -0.02  -0.05
    57   1    -0.06  -0.02   0.03     0.06   0.13  -0.02     0.06  -0.03  -0.10
    58   6    -0.03  -0.00  -0.02     0.03  -0.05  -0.01     0.03  -0.00  -0.03
    59   1     0.01   0.03  -0.03     0.00  -0.10  -0.01    -0.02   0.03  -0.02
    60   1    -0.07  -0.03  -0.01     0.05   0.02  -0.01     0.08  -0.03  -0.05
    61   1    -0.04  -0.01  -0.04     0.02  -0.11  -0.01     0.04  -0.00   0.00
                     13                     14                     15
                      A                      A                      A
[...]
 0000469,0.00000993,-0.00000731,-0.00000380,0.00000215,-0.00000029,-0.0
 0000454,0.00000958,0.00000085,-0.00415339,0.00164188,0.00193478,-0.015
 03716,0.00381341,-0.02182685,-0.00078945,-0.00001878,0.00109692,-0.182
 11627,0.02898149,-0.13333542,0.00120957,-0.00081950,-0.00007030,0.0010
 2521,0.00086302,0.00227221,-0.00003209,-0.00016483,-0.00011586,0.00895
 778,-0.00123781,0.00742994,0.19024771,-0.00005493,0.00001497,0.0000490
 5,0.00004741,-0.00005247,0.00005761,0.00004930,0.00002383,0.00000107,0
 .00001066,-0.00001837,0.00000204,-0.00000076,-0.00001679,-0.00000232,0
 .00000394,0.00000651,-0.00000163,0.00000472,0.00000022,0.00000173,0.00
 000722,-0.00000367,0.00000111,0.00000547,0.00000052,0.00000016,0.00000
 157,-0.00000018,0.00000066,0.00000422,-0.00002628,0.00000820,-0.000021
 84,-0.00001234,-0.00000836,-0.00008732,-0.00002722,0.00002588,0.000012
 67,0.00001974,0.00000287,-0.00004551,0.00004753,0.00001843,0.00006525,
 0.00005773,-0.00005295,-0.00000571,0.00000162,-0.00000485,-0.00000168,
 0.00000116,0.00000015,0.00000110,-0.00000502,0.00000198,0.00000104,0.0
 0000272,-0.00000104,-0.00000284,0.00000114,-0.00000041,0.00000284,0.00
 000324,0.00000161,-0.00000543,-0.00000733,-0.00000575,-0.00000157,0.00
 000260,0.00000250,-0.00000393,0.00000216,-0.00000409,0.00000645,-0.000
 00428,0.00000797,-0.00000049,0.00000068,-0.00000294,-0.00000256,-0.000
 00138,0.00000109,0.00000268,-0.00000113,0.00000101,-0.00000386,-0.0000
 0376,0.00000760,-0.00000049,0.00000100,-0.00000177,-0.00000230,-0.0000
 0192,0.00000295,0.00000104,0.00000012,0.00000117,-0.00000053,0.0000015
 8,-0.00000027,0.00000175,0.00000011,0.00000100,-0.00000021,0.00000041,
 -0.00000030,-0.00000121,-0.00000546,0.00001963,0.00000293,0.00000345,-
 0.00000518,0.00000478,0.00001050,-0.00000168,-0.00000188,0.00000100,-0
 .00000056,0.00000170,-0.00000281,-0.00000126,-0.00000034,-0.00000412,0
 .00000299,-0.00000185,-0.00000102,-0.00000019,0.00001590,0.00000159,-0
 .00001880,-0.00000365,0.00000286,-0.00000184,-0.00001180,0.00001585,0.
 00000186,0.00000853,-0.00000096,0.00000189,-0.00000105,-0.00000271,0.0
 0000538,-0.00000073,-0.00000164,-0.00000046,0.00000277,-0.00000363,0.0
 0000060,0.00164139,0.00645520,-0.00020539,0.00273692,0.00245987,0.0032
 8615,-0.00008960,-0.00057980,-0.00014136,0.02889205,-0.04114338,0.0283
 5504,-0.00082627,-0.00372846,-0.00020900,0.00082806,0.00690932,0.00013
 242,-0.00015914,-0.00109101,-0.00000918,0.00002991,0.00310400,-0.00048
 003,-0.03243297,0.03114733,0.00024763,-0.00004678,0.00011329,0.0000729
 1,-0.00001346,0.00003323,-0.00000262,0.00000018,0.00000157,-0.00000256
 ,0.00000182,0.00000143,-0.00000634,-0.00000907,-0.00000237,-0.00000393
 ,0.00001115,-0.00000174,-0.00001042,0.00000098,-0.00000204,-0.00000200
 ,0.00000476,-0.00000089,-0.00000358,-0.00000371,-0.00000131,0.00000053
 ,-0.00000013,0.00000075,0.00000196,-0.00002259,0.00000315,0.00000282,0
 .00002008,0.00001572,-0.00006570,0.00001632,0.00000583,-0.00002352,0.0
 0000190,-0.00000331,0.00000819,0.00003084,-0.00002922,0.00000638,-0.00
 003574,-0.00004081,0.00001124,-0.00000830,0.00001075,0.00000289,-0.000
 00122,-0.00000099,-0.00000335,0.00000346,-0.00000174,0.00001380,0.0000
 0573,0.00001129,0.00000330,-0.00000002,-0.00000128,-0.00000391,-0.0000
 0229,-0.00000216,0.00000368,0.00000212,-0.00000500,-0.00000559,0.00000
 185,0.00000082,0.00000045,0.00002866,-0.00000848,0.00001483,0.00000253
 ,0.00001474,0.00000016,0.00000042,-0.00000241,-0.00000320,-0.00000512,
 0.00000285,-0.00000283,-0.00000609,-0.00000111,-0.00000057,0.00000428,
 -0.00001950,0.00000262,-0.00000089,0.00000423,0.00000257,0.00000082,0.
 00000198,0.00000068,0.00000397,-0.00000098,-0.00000195,-0.00000181,0.0
 0000249,-0.00000200,-0.00000044,-0.00000072,-0.00000066,-0.00000101,-0
 .00000200,0.00000313,-0.00000454,-0.00001814,-0.00000167,-0.00000136,0
 .00000419,0.00000119,-0.00000660,-0.00000221,0.00000014,-0.00000051,0.
 00000174,-0.00000037,0.00000230,0.00000242,0.00000026,0.00000064,-0.00
 000153,-0.00000022,0.00000195,-0.00000178,0.00000329,-0.00000240,-0.00
 000578,-0.00000433,0.00000149,0.00000622,0.00001399,-0.00001529,0.0000
 1046,-0.00000574,-0.00001130,-0.00000808,0.00000002,-0.00000120,-0.000
 00233,-0.00000066,0.00000305,-0.00000275,-0.00000178,0.00000650,0.0000
 0027,0.00185667,-0.00005858,0.00117374,0.00708525,-0.00136203,0.007987
 76,0.00083126,-0.00014076,-0.00030342,-0.13297988,0.02818625,-0.197273
 71,-0.00052787,-0.00007248,0.00070310,0.00288662,0.00003552,-0.0043590
 8,-0.00013228,-0.00002967,0.00000547,-0.02183696,0.00423047,-0.0152775
 2,0.14350633,-0.03070382,0.20688696,-0.00001588,-0.00003921,0.00084822
 ,-0.00009179,0.00004586,-0.00074134,-0.00011485,-0.00009215,0.00002899
 ,-0.00007457,0.00011520,0.00003210,-0.00001526,0.00003228,0.00005284,-
 0.00002658,-0.00002498,0.00004937,-0.00003284,0.00000323,-0.00001947,-
 0.00002429,0.00001299,-0.00000103,-0.00002710,-0.00000504,-0.00000027,
 -0.00000903,0.00000141,-0.00000719,0.00002440,0.00004554,-0.00005089,0
 .00000276,-0.00004109,-0.00000370,0.00056132,-0.00006389,-0.00004467,-
 0.00003912,0.00000716,-0.00002215,0.00003867,0.00002817,0.00014298,-0.
 00001192,-0.00005747,0.00018470,0.00002275,-0.00002352,-0.00000487,0.0
 0001832,0.00000174,-0.00000701,-0.00000953,0.00001924,-0.00000721,0.00
 002753,0.00001235,-0.00000371,0.00001731,-0.00000380,-0.00001070,-0.00
 001358,-0.00001491,-0.00000802,-0.00006954,0.00001818,0.00006328,0.000
 01740,0.00000076,-0.00001844,0.00000163,0.00001259,-0.00000143,0.00000
 312,0.00000636,-0.00000080,0.00000367,-0.00001985,-0.00000236,-0.00000
 158,-0.00000073,-0.00000138,-0.00000540,-0.00000064,0.00000301,0.00000
 043,-0.00000319,-0.00005017,0.00000757,-0.00000202,0.00001073,0.000018
 08,0.00000770,-0.00000710,-0.00000273,0.00000939,0.00000410,-0.0000049
 5,-0.00000588,0.00000395,-0.00000251,-0.00000137,-0.00000194,-0.000004
 83,-0.00000621,-0.00000255,0.00001740,0.00001108,-0.00004926,-0.000009
 00,-0.00000497,0.00001093,-0.00000624,-0.00002287,-0.00000068,0.000008
 50,-0.00000698,-0.00000738,0.00000006,0.00000887,0.00000376,0.00000416
 ,0.00000639,-0.00000039,-0.00000134,0.00000529,-0.00000272,-0.00006875
 ,0.00000487,0.00005840,0.00002292,-0.00000691,-0.00001272,-0.00000256,
 -0.00002019,-0.00001658,0.00000361,-0.00000214,-0.00000519,0.00000747,
 0.00001496,-0.00000151,-0.00000824,0.00000155,0.00000251,-0.00000157,0
 .00000018,-0.00000076,-0.00395594,0.00163538,0.00144945,-0.00143612,0.
 00017050,-0.00050591,-0.00375715,0.00006701,0.02821578,-0.00223986,0.0
 0153964,-0.00318956,0.00005706,-0.00020748,0.00010127,-0.07397589,0.00
 349917,0.06878013,0.00131158,-0.00082956,-0.00044971,0.00958429,-0.000
 30597,-0.02058911,0.00026989,0.00005156,-0.00110029,0.07323339,0.00001
 669,-0.00009858,-0.00010367,0.00002304,0.00009503,0.00010167,-0.000010
 34,0.00000233,-0.00001138,0.00002298,-0.00002590,0.00000108,0.00000605
 ,0.00000284,-0.00000761,0.00000244,0.00000553,-0.00000863,0.00000450,-
 0.00000375,0.00000270,0.00000181,-0.00000213,-0.00000068,0.00000333,0.
 00000008,0.00000093,0.00000094,-0.00000049,0.00000119,-0.00000653,-0.0
 0001989,0.00001174,0.00000132,-0.00001594,-0.00001190,-0.00005230,0.00
 010829,0.00002974,0.00000094,-0.00001422,-0.00000085,0.00005743,-0.000
 05559,-0.00008484,-0.00009846,-0.00003181,0.00003297,-0.00000137,0.000
 00076,0.00000639,-0.00000419,0.00000111,0.00000174,0.00000255,-0.00000
 332,0.00000082,-0.00000495,-0.00000517,-0.00000189,-0.00000125,0.00000
 074,-0.00000034,0.00000041,0.00000106,0.00000115,-0.00001669,-0.000006
 82,-0.00000823,-0.00000796,0.00000098,0.00000920,0.00000463,0.00000086
 ,0.00000060,0.00001009,0.00001927,0.00000298,-0.00000021,-0.00000717,-
 0.00000213,0.00000052,-0.00000238,-0.00000235,0.00000291,-0.00000124,-
 0.00000033,-0.00000357,0.00000087,0.00000594,0.00000069,-0.00000005,-0
 .00000010,-0.00000159,-0.00000083,-0.00000288,0.00000095,-0.00000163,0
 .00000187,0.00000005,0.00000030,-0.00000076,0.00000140,-0.00000006,0.0
 0000038,-0.00000077,-0.00000099,0.00000026,-0.00000104,-0.00000125,0.0
 0000801,0.00000223,0.00000190,-0.00000258,-0.00000041,0.00000403,-0.00
 000106,-0.00000187,0.00000216,0.00000314,-0.00000057,-0.00000248,0.000
 00022,-0.00000176,-0.00000216,-0.00000060,0.00000047,-0.00000082,-0.00
 000004,0.00003456,-0.00001543,-0.00000502,0.00000414,-0.00000268,-0.00
 000767,0.00002109,0.00003685,0.00000689,-0.00000476,0.00000546,-0.0000
 0328,-0.00000347,-0.00001189,0.00000115,0.00000012,-0.00000132,-0.0000
 0204,-0.00000221,-0.00000429,0.00000425,0.00162092,0.00665722,0.000101
 85,0.00005381,-0.00045217,0.00000025,0.00132711,0.00318971,-0.00425865
 ,0.00159965,0.00655954,0.00072067,-0.00021680,-0.00123021,-0.00007237,
 0.00328915,-0.03599353,-0.00067917,-0.00083710,-0.00388035,-0.00002915
 ,-0.00127283,0.00297347,0.00400955,-0.00002136,0.00019975,0.00020095,-
 0.00485314,0.02557388,-0.00030121,0.00006937,-0.00035987,0.00007221,-0
 .00001498,0.00028478,0.00007680,0.00005790,0.,0.00005633,-0.00007758,0
 .00000018,0.00001339,-0.00001956,-0.00001659,0.00001766,0.00001506,-0.
 00001497,0.00001912,-0.00000311,0.00001125,0.00001754,-0.00001152,0.00
 000040,0.00002051,0.00000549,0.00000009,0.00000511,-0.00000085,0.00000
 267,-0.00002610,0.00000675,0.00002931,-0.00002712,-0.00001115,-0.00000
 938,-0.00016530,0.00002068,0.00008397,0.00003296,-0.00000512,-0.000002
 22,-0.00002356,-0.00003237,-0.00004157,-0.00001582,0.00004285,-0.00003
 845,-0.00002368,0.00001418,-0.00001202,-0.00001051,0.00000091,0.000002
 95,0.00000916,-0.00001485,0.00000509,-0.00002832,-0.00000714,-0.000013
 67,-0.00000971,0.00000147,0.00000549,0.00001166,0.00001063,0.00000611,
 0.00003694,-0.00000627,-0.00002932,0.00000373,-0.00000245,0.00000342,-
 0.00000151,-0.00003616,0.00001119,-0.00002035,-0.00001318,-0.00002043,
 -0.00000154,0.00001307,0.00000270,0.00000260,0.00000653,-0.00000026,0.
 00000634,0.00000762,0.00000106,-0.00000525,-0.00000372,0.00004553,-0.0
 0000594,0.00000028,-0.00000935,-0.00001149,-0.00000519,0.00000034,0.00
 000162,-0.00000839,-0.00000059,0.00000374,0.00000511,-0.00000405,0.000
 00416,0.00000129,0.00000194,0.00000272,0.00000403,0.00000276,-0.000013
 40,0.00000203,0.00004499,0.00000645,0.00000430,-0.00000953,0.00000197,
 0.00001756,0.00000202,-0.00000480,0.00000428,0.00000148,0.,-0.00000736
 ,-0.00000445,-0.00000320,-0.00000359,0.00000100,0.00000172,-0.00000467
 ,0.00000343,0.00004794,-0.00001842,-0.00002444,0.00000138,-0.00000082,
 -0.00000603,-0.00000629,0.00004542,-0.00000704,0.00000116,0.00001549,0
 .00001065,-0.00000489,-0.00001284,0.00000288,0.00000471,-0.00000481,0.
 00000194,0.00000064,-0.00000986,0.00000224,0.00125396,0.00000459,0.001
 53917,-0.00019831,-0.00000316,0.00043491,-0.00063005,0.00038270,-0.004
 10025,-0.00387411,0.00089795,-0.00094320,0.00006191,-0.00005106,-0.000
 09616,0.06822992,-0.00053387,-0.31159127,0.00019921,-0.00021516,0.0005
 8104,0.00860384,-0.00066888,-0.01570869,0.00048813,-0.00002441,-0.0008
 8314,-0.07392633,0.00035364,0.32992847,0.00024561,-0.00014341,-0.00000
 067,-0.00005429,0.00003263,-0.00014834,-0.00004714,-0.00004163,0.00000
 632,-0.00002342,0.00004573,0.00000727,-0.00000995,0.00000589,0.0000099
 6,-0.00001224,0.00000061,0.00000741,-0.00001638,0.00000112,-0.00000653
 ,-0.00001055,0.00000796,-0.00000160,-0.00001168,-0.00000392,-0.0000012
 8,-0.00000406,0.00000058,-0.00000170,0.00001275,-0.00000885,-0.0000127
 3,0.00001668,0.00002702,0.00004151,0.00001367,0.00000674,-0.00001118,-
 0.00002280,-0.00000785,0.00001905,0.00002878,0.00002546,0.00001981,0.0
 0001064,-0.00004359,-0.00000679,0.00002570,-0.00001494,0.00001407,0.00
 000851,-0.00000490,-0.00000140,-0.00000655,0.00001021,-0.00000289,0.00
 002617,0.00000723,0.00001140,0.00000904,0.00000176,-0.00000416,-0.0000
 0905,-0.00000716,-0.00000359,-0.00001647,0.00002196,-0.00001147,-0.000
 00322,0.00000119,0.00000721,0.00000405,0.00003242,-0.00000759,0.000028
 68,0.00001123,0.00003072,0.00000176,-0.00000599,-0.00000518,-0.0000048
 5,-0.00000938,0.00000237,-0.00000534,-0.00000697,-0.00000187,0.0000006
 5,0.00000925,-0.00003773,0.00000496,-0.00000095,0.00000751,0.00000960,
 0.00000464,0.00000132,-0.00000131,0.00000686,0.00000010,-0.00000351,-0
 .00000388,0.00000350,-0.00000319,-0.00000146,-0.00000139,-0.00000241,-
 0.00000306,-0.00000305,0.00000608,-0.00000150,-0.00003953,-0.00000505,
 -0.00000469,0.00000948,-0.00000135,-0.00001426,-0.00000169,0.00000208,
 -0.00000397,0.00000158,-0.00000081,0.00000602,0.00000400,0.00000224,0.
 00000270,-0.00000246,-0.00000097,0.00000435,-0.00000324,-0.00002529,-0
 .00000080,-0.00001623,-0.00000428,0.00000535,0.00001798,0.00001947,-0.
 00004616,0.00001061,-0.00000163,-0.00001302,-0.00000273,0.00000339,0.0
 0000291,-0.00000446,-0.00000267,0.00000341,-0.00000339,-0.00000284,0.0
 0001353,-0.00000193,0.00053588,-0.00025933,-0.00033181,0.00171818,0.00
 075024,0.00149267,-0.00073737,0.00124064,-0.00354292,-0.00415351,0.001
 07218,-0.00067378,-0.00032991,0.00008168,-0.00005739,-0.01510656,0.002
 41944,0.00800167,-0.00094481,0.00017582,0.00031459,-0.30910434,0.04027
 998,0.06572751,0.00039783,-0.00067340,0.00015199,0.00077525,-0.0006914
 2,0.00002156,0.32678211,-0.00014312,-0.00057642,-0.00000437,0.00002474
 ,0.00012619,0.00001919,-0.00002747,-0.00000732,-0.00000559,0.00002907,
 -0.00002895,0.00000136,0.00000587,0.00000992,0.00000384,0.00000035,0.0
 0000809,-0.00000396,0.00000254,-0.00000531,0.00000140,-0.00000098,-0.0
 0000047,0.00000034,0.00000419,0.00000080,-0.00000003,0.00000058,-0.000
 00060,-0.00000023,0.00000549,0.00004097,-0.00005222,0.00001481,0.00003
 546,0.00004490,-0.00001037,-0.00002859,0.00000953,-0.00001190,-0.00003
 967,-0.00000778,0.00001108,-0.00001987,0.00006046,-0.00002182,-0.00000
 512,-0.00006688,0.00001016,-0.00000530,0.00000493,-0.00000083,0.000000
 32,0.00000034,0.00000265,-0.00000304,0.00000027,-0.00001998,-0.0000028
 7,-0.00001112,-0.00000279,-0.00000104,0.00000075,-0.00000006,-0.000000
 06,0.00000024,0.00000583,0.00000750,0.00001991,0.00000644,0.00000290,-
 0.00001002,0.00000257,-0.00000136,0.00000722,-0.00001724,-0.00000235,-
 0.00002083,-0.00000118,-0.00000421,-0.00000276,0.00000126,0.00000338,0
 .00000098,0.00000157,0.00000041,-0.00000115,0.00000174,0.00000983,0.00
 000798,-0.00000164,0.00000072,-0.00000389,0.00000356,-0.00000161,-0.00
 000243,-0.00000055,-0.00000020,0.00000100,0.00000058,0.00000180,-0.000
 00058,0.00000147,-0.00000045,0.00000070,-0.00000087,-0.00000021,-0.000
 00012,0.00000294,0.00001476,0.00000405,-0.00000022,-0.00000001,0.00000
 228,0.00000422,0.00000368,-0.00000089,-0.00000435,-0.00000031,0.000001
 22,-0.00000001,-0.00000005,0.00000011,-0.00000049,-0.00000220,0.000000
 55,-0.00000034,-0.00000062,0.00000005,-0.00000464,0.00002468,-0.000013
 62,-0.00000305,0.00000406,0.00000517,0.00000029,0.00000729,0.00000975,
 0.00000574,-0.00000374,0.00000240,-0.00000030,-0.00000472,0.00000390,-
 0.00000018,-0.00000088,0.00000089,-0.00000047,0.00000080,-0.00000161,-
 0.00022397,-0.00112950,0.00006466,0.00079226,0.00681080,0.00028702,0.0
 0126035,0.00628150,0.00087537,-0.00014330,0.00252544,0.00027348,0.0000
 2645,0.00016739,0.00003264,0.00353211,0.00188980,-0.00154624,0.0002360
 2,0.00015191,-0.00005865,0.04031952,-0.03981608,-0.00860382,-0.0006416
 7,-0.00375316,-0.00024178,-0.00073041,-0.00354751,-0.00017869,-0.04430
 225,0.03086339,0.00016012,-0.00005488,-0.00002161,0.00001882,0.0000038
 4,0.00000014,0.00001812,0.00000704,0.00000631,0.00001815,-0.00001396,0
 .00000630,-0.00000165,-0.00000998,0.00000139,0.00000129,0.00001079,0.0
 0000177,-0.00000156,0.00000007,-0.00000125,0.00000288,-0.00000068,0.00
 000054,0.00000320,-0.00000023,0.00000032,0.00000027,-0.00000012,0.0000
 0041,-0.00000276,-0.00000961,0.00000535,0.00000262,0.00001784,0.000014
 67,-0.00000595,-0.00001998,-0.00008351,0.00006570,-0.00000818,0.000029
 88,-0.00003322,-0.00004642,0.00005070,-0.00001932,0.00006699,0.0000569
 4,-0.00000365,-0.00000311,-0.00000348,0.00000287,-0.00000381,0.0000002
 0,0.00000108,-0.00000211,0.00000124,-0.00000238,0.00000482,-0.00000696
 ,0.00000297,0.00000229,-0.00000054,0.00000146,0.00000141,0.00000148,-0
 .00000689,0.00000522,-0.00001639,-0.00000047,-0.00000172,0.00000983,-0
 .00000357,-0.00001345,-0.00000501,0.00001132,0.00000744,0.00001139,-0.
 00000012,0.00000090,0.00000056,-0.00000051,-0.00000260,-0.00000142,0.0
 0000090,0.00000170,0.00000001,-0.00000430,0.00000270,-0.00000084,0.000
 00055,-0.00000079,0.00000229,-0.00000527,-0.00000144,0.00000068,0.0000
 0046,-0.00000602,0.00000122,0.00000010,-0.00000011,-0.00000038,0.00000
 173,0.00000119,0.00000015,0.00000105,0.00000126,0.00000047,-0.00000668
 ,0.00000027,-0.00000311,0.00000261,-0.00000034,0.00000259,0.00000081,0
 .00000983,0.00000258,-0.00000260,0.00000109,0.00000101,-0.00000010,0.0
 0000002,-0.00000030,-0.00000068,-0.00000089,0.00000005,0.00000063,-0.0
 0000254,0.00000050,-0.00000274,0.00000156,-0.00001349,-0.00000259,0.00
 000363,0.00000949,-0.00000059,-0.00001904,0.00000009,0.00000059,0.0000
 0652,0.00000296,-0.00000015,-0.00000102,0.00000093,0.00000024,-0.00000
 161,0.00000018,0.00000021,0.00000285,-0.00000226,-0.00038948,0.0000652
 0,-0.00126353,0.00068630,0.00041175,-0.00493434,-0.00299985,0.00079013
 ,-0.00227952,0.02876663,-0.00433510,-0.00201151,0.00134644,-0.00019616
 ,-0.00037102,-0.02115639,0.00304945,0.00931839,-0.00119746,0.00019154,
 0.00015075,0.06554190,-0.00857611,-0.07347860,-0.00065062,-0.00011393,
 0.00126106,0.00083002,-0.00031374,0.00089148,-0.07099050,0.00909038,0.
 07265278\\0.00415358,-0.00120587,-0.02111722,0.00728279,-0.00098449,0.
 01188189,0.00409070,0.00631206,0.00175715,0.00242296,-0.00748324,0.001
 43104,-0.00394537,0.01339225,-0.00134092,-0.00791278,-0.01151020,-0.00
 172697,-0.01493804,0.00237988,-0.00100652,-0.00034787,0.00048277,-0.00
 021762,-0.00044146,-0.00031870,-0.00023152,-0.00069402,0.00011044,-0.0
 0012150,-0.00041324,0.00383518,0.00035402,-0.00072230,-0.00282739,-0.0
 0020384,0.00030384,0.00002347,0.00357613,-0.00184961,0.00050465,0.0010
 0345,0.00079115,-0.00236051,-0.00010961,0.00169502,0.00182309,0.000233
 26,-0.00277940,0.00518877,-0.00555130,-0.00006682,-0.00018402,-0.00166
 784,-0.00029023,0.00134122,0.00014912,-0.00391424,-0.00414115,-0.00574
 478,0.00008234,-0.00011996,-0.00174503,-0.00060788,-0.00139709,0.00024
 493,0.00809136,0.00377864,-0.00251611,-0.00120787,-0.00560001,-0.00097
 765,0.00183974,-0.00072557,0.00052198,0.00099853,0.00031180,-0.0018325
 3,0.00081313,-0.00079753,-0.00089988,0.00012279,-0.00106928,0.00100676
 ,-0.00153387,-0.00014126,-0.00071436,0.00322134,0.00355420,0.00665025,
 -0.00419111,-0.00423858,0.00101840,-0.00105663,0.00099600,0.00112912,0
 .00114409,-0.00113047,0.00107760,-0.00023553,-0.00079155,0.00123383,-0
 .00154856,0.00022230,-0.00000518,0.00036046,-0.00136290,-0.00119664,-0
 .00047758,-0.00520296,0.00684709,-0.00027921,0.00575884,0.00182107,0.0
 0129267,0.00007609,0.00138287,-0.00147769,-0.00061159,0.00081421,-0.00
 049347,0.00059636,0.00131788,0.00131040,0.00079900,-0.00023118,-0.0011
 2395,0.00092996,-0.00096872,0.00691497,-0.00472661,-0.00065010,0.00034
 732,0.00546322,-0.00258567,0.00108177,-0.00065083,-0.00188587,0.001514
 35,0.00024189,0.00073766,0.00128496,0.00057079,-0.00065873,-0.00116277
 ,0.00036485,-0.00095538,-0.00016028,0.00112366,0.00088515,-0.01246775,
 0.00164514,0.01245478,-0.00332599,-0.00023131,0.01453254,-0.00991135,0
 .00211897,-0.01031332,0.00968765,-0.00205418,0.01164836,0.00000279,-0.
 00007838,0.00099099,0.00321614,0.00015793,-0.01440743,-0.00084494,0.00
 010678,-0.00096859,0.01505659,-0.00208558,-0.00413630,0.00044405,-0.00
 008923,0.00045262,0.00021381,0.00001094,-0.00044479,0.00064055,-0.0001
 0072,-0.00002106\\\@
 The archive entry for this job was punched.


 THE ONLY TROUBLE WITH A SURE THING IS THE UNCERTAINTY.
     -- FROM A TEABAG (BELONGING TO W.H.?)
 Job cpu time:       2 days 23 hours 10 minutes  8.6 seconds.
 Elapsed time:       0 days  3 hours 33 minutes 37.9 seconds.
 File lengths (MBytes):  RWF=   3348 Int=      0 D2E=      0 Chk=     80 Scr=      1
 Normal termination of Gaussian 16 at Fri Jun  3 16:52:46 2022.
