 Entering Gaussian System, Link 0=/cm/shared/apps//g16/g16
 Input=TS_NCNPtMePh_rotatePh.com
 Output=TS_NCNPtMePh_rotatePh.log
 Initial command:
 /cm/shared/apps//g16/l1.exe "/var/tmp/pbs.68.josephine/Gau-444826.inp" -scrdir="/var/tmp/pbs.68.josephine/"
 Entering Link 1 = /cm/shared/apps//g16/l1.exe PID=    444830.
  
 Copyright (c) 1988-2019, Gaussian, Inc.  All Rights Reserved.
  
 This is part of the Gaussian(R) 16 program.  It is based on
 the Gaussian(R) 09 system (copyright 2009, Gaussian, Inc.),
 the Gaussian(R) 03 system (copyright 2003, Gaussian, Inc.),
 the Gaussian(R) 98 system (copyright 1998, Gaussian, Inc.),
 the Gaussian(R) 94 system (copyright 1995, Gaussian, Inc.),
 the Gaussian 92(TM) system (copyright 1992, Gaussian, Inc.),
 the Gaussian 90(TM) system (copyright 1990, Gaussian, Inc.),
 the Gaussian 88(TM) system (copyright 1988, Gaussian, Inc.),
 the Gaussian 86(TM) system (copyright 1986, Carnegie Mellon
 University), and the Gaussian 82(TM) system (copyright 1983,
 Carnegie Mellon University). Gaussian is a federally registered
 trademark of Gaussian, Inc.
  
 This software contains proprietary and confidential information,
 including trade secrets, belonging to Gaussian, Inc.
  
 This software is provided under written license and may be
 used, copied, transmitted, or stored only in accord with that
 written license.
  
 The following legend is applicable only to US Government
 contracts under FAR:
  
                    RESTRICTED RIGHTS LEGEND
  
 Use, reproduction and disclosure by the US Government is
 subject to restrictions as set forth in subparagraphs (a)
 and (c) of the Commercial Computer Software - Restricted
 Rights clause in FAR 52.227-19.
  
 Gaussian, Inc.
 340 Quinnipiac St., Bldg. 40, Wallingford CT 06492
  
  
 ---------------------------------------------------------------
 Warning -- This program may not be used in any manner that
 competes with the business of Gaussian, Inc. or will provide
 assistance to any competitor of Gaussian, Inc.  The licensee
 of this program is prohibited from giving any competitor of
 Gaussian, Inc. access to this program.  By using this program,
 the user acknowledges that Gaussian, Inc. is engaged in the
 business of creating and licensing software in the field of
 computational chemistry and represents and warrants to the
 licensee that it is not a competitor of Gaussian, Inc. and that
 it will not use this program in any manner prohibited above.
 ---------------------------------------------------------------
  

 Cite this work as:
 Gaussian 16, Revision C.01,
 M. J. Frisch, G. W. Trucks, H. B. Schlegel, G. E. Scuseria, 
 M. A. Robb, J. R. Cheeseman, G. Scalmani, V. Barone, 
 G. A. Petersson, H. Nakatsuji, X. Li, M. Caricato, A. V. Marenich, 
 J. Bloino, B. G. Janesko, R. Gomperts, B. Mennucci, H. P. Hratchian, 
 J. V. Ortiz, A. F. Izmaylov, J. L. Sonnenberg, D. Williams-Young, 
 F. Ding, F. Lipparini, F. Egidi, J. Goings, B. Peng, A. Petrone, 
 T. Henderson, D. Ranasinghe, V. G. Zakrzewski, J. Gao, N. Rega, 
 G. Zheng, W. Liang, M. Hada, M. Ehara, K. Toyota, R. Fukuda, 
 J. Hasegawa, M. Ishida, T. Nakajima, Y. Honda, O. Kitao, H. Nakai, 
 T. Vreven, K. Throssell, J. A. Montgomery, Jr., J. E. Peralta, 
 F. Ogliaro, M. J. Bearpark, J. J. Heyd, E. N. Brothers, K. N. Kudin, 
 V. N. Staroverov, T. A. Keith, R. Kobayashi, J. Normand, 
 K. Raghavachari, A. P. Rendell, J. C. Burant, S. S. Iyengar, 
 J. Tomasi, M. Cossi, J. M. Millam, M. Klene, C. Adamo, R. Cammi, 
 J. W. Ochterski, R. L. Martin, K. Morokuma, O. Farkas, 
 J. B. Foresman, and D. J. Fox, Gaussian, Inc., Wallingford CT, 2019.
 
 ******************************************
 Gaussian 16:  ES64L-G16RevC.01  3-Jul-2019
                 1-Jun-2022 
 ******************************************
 %nprocshared=24
 Will use up to   24 processors via shared memory.
 %mem=512MW
 %chk=TS_NCNPtMePh_rotatePh.chk
 ----------------------------------------------------------------------
 # opt=(ts,calcFC,noeigentest) freq gen scrf=(iefpcm,solvent=thf) m06 E
 mpiricalDispersion=GD3 Pseudo=Read
 ----------------------------------------------------------------------
 1/5=1,10=4,11=1,18=20,26=3,38=1/1,3;
 2/9=110,12=2,17=6,18=5,40=1/2;
 3/5=7,11=2,16=1,17=8,25=1,30=1,70=2201,71=2,72=20,74=-54,124=31,140=1/1,2,3;
 4//1;
 5/5=2,38=5,53=20/2;
 8/6=4,10=90,11=11/1;
 11/6=1,8=1,9=11,15=111,16=1/1,2,10;
 10/6=1,13=1/2;
 6/7=2,8=2,9=2,10=2,28=1/1;
 7/10=1,25=1/1,2,3,16;
 1/5=1,10=4,11=1,18=20,26=3/3(2);
 2/9=110/2;
 99//99;
 2/9=110/2;
 3/5=7,6=1,11=2,16=1,17=8,25=1,30=1,70=2205,71=1,72=20,74=-54,82=7,124=31/1,2,3;
 4/5=5,16=3,69=1/1;
 5/5=2,38=5,53=20/2;
 7//1,2,3,16;
 1/5=1,11=1,18=20,26=3/3(-5);
 2/9=110/2;
 6/7=2,8=2,9=2,10=2,19=2,28=1/1;
 99/9=1/99;
 ----------------------------------------------------------------------
 TS for phenyl rotation in (NCN)PtMe[eq]Ph[ax]; M06 with Custom Lanl2tz
 (f)+6-311g(2d,p) basis set
 ----------------------------------------------------------------------
 Symbolic Z-matrix:
 Charge =  1 Multiplicity = 1
 Pt                   -0.03209   0.08215  -0.61457 
 C                    -0.14364  -0.78655   1.21033 
 C                     1.02992  -1.27828   1.78678 
 C                    -1.39896  -0.90476   1.81145 
 C                     0.94188  -1.95084   3.01482 
 C                    -1.49233  -1.57909   3.03942 
 C                    -0.32055  -2.09854   3.62494 
 H                     1.82701  -2.3556    3.49977 
 H                    -2.44946  -1.70382   3.54077 
 H                    -0.39135  -2.62365   4.57281 
 N                    -2.19404  -0.15827  -0.42622 
 N                     1.9628   -0.80751  -0.47114 
 C                     0.03436   0.98114  -2.57856 
 H                    -0.41075   0.27898  -3.3058 
 H                    -0.54618   1.91581  -2.59496 
 H                     1.06006   1.20875  -2.89927 
 C                     2.28951  -0.95745   1.01688 
 H                     2.69378  -0.00041   1.36375 
 H                     3.08157  -1.70561   1.14259 
 C                    -2.52253  -0.22687   1.06406 
 H                    -2.62553   0.81353   1.40003 
 H                    -3.49389  -0.71152   1.21319 
 C                    -3.07431   0.82113  -1.16736 
 C                    -4.56591   0.49362  -1.17519 
 H                    -2.6877    0.87009  -2.19024 
 H                    -2.92657   1.80632  -0.72114 
 H                    -5.09194   1.32121  -1.661 
 H                    -4.79296  -0.41285  -1.74417 
 H                    -4.97672   0.3934   -0.1652 
 C                    -2.26483  -1.53122  -1.10599 
 C                    -3.27268  -2.5266   -0.53156 
 H                    -1.2752   -2.00929  -1.03802 
 H                    -2.4573   -1.33753  -2.16612 
 H                    -3.25757  -3.4211   -1.16162 
 H                    -3.0066   -2.83407   0.48474 
 H                    -4.29451  -2.13796  -0.52785 
 C                     1.66729  -2.19125  -1.05588 
 C                     2.86449  -3.13072  -1.19003 
 H                     1.22708  -2.02437  -2.04883 
 H                     0.91678  -2.65588  -0.40738 
 H                     2.49605  -4.08493  -1.57906 
 H                     3.6142   -2.75737  -1.89328 
 H                     3.34539  -3.33562  -0.2284 
 C                     3.04818  -0.13057  -1.29733 
 C                     4.47493  -0.24941  -0.76405 
 H                     2.78122   0.92256  -1.40365 
 H                     2.9747   -0.55906  -2.30259 
 H                     5.14775   0.20365  -1.49898 
 H                     4.61557   0.29059   0.17829 
 H                     4.79442  -1.28454  -0.61683 
 C                     0.35508   1.90832   0.21376 
 C                    -0.72003   2.73913   0.55328 
 C                     1.66378   2.32553   0.49183 
 C                    -0.48728   3.98732   1.15221 
 H                    -1.74562   2.44782   0.37102 
 C                     1.88783   3.57647   1.09078 
 H                     2.53311   1.72462   0.2612 
 C                     0.81796   4.41491   1.42228 
 H                    -1.33605   4.61538   1.40467 
 H                     2.90932   3.88263   1.2948 
 H                     0.99695   5.38023   1.88387 
 

 GradGradGradGradGradGradGradGradGradGradGradGradGradGradGradGradGradGrad
 Berny optimization.
 Initialization pass.
                           ----------------------------
                           !    Initial Parameters    !
                           ! (Angstroms and Degrees)  !
 --------------------------                            --------------------------
 ! Name  Definition              Value          Derivative Info.                !
 --------------------------------------------------------------------------------
 ! R1    R(1,2)                  2.0242         calculate D2E/DX2 analytically  !
 ! R2    R(1,11)                 2.1834         calculate D2E/DX2 analytically  !
 ! R3    R(1,12)                 2.189          calculate D2E/DX2 analytically  !
 ! R4    R(1,13)                 2.161          calculate D2E/DX2 analytically  !
 ! R5    R(1,51)                 2.0423         calculate D2E/DX2 analytically  !
 ! R6    R(2,3)                  1.3969         calculate D2E/DX2 analytically  !
 ! R7    R(2,4)                  1.3968         calculate D2E/DX2 analytically  !
 ! R8    R(3,5)                  1.4029         calculate D2E/DX2 analytically  !
 ! R9    R(3,17)                 1.5107         calculate D2E/DX2 analytically  !
 ! R10   R(4,6)                  1.404          calculate D2E/DX2 analytically  !
 ! R11   R(4,20)                 1.5101         calculate D2E/DX2 analytically  !
 ! R12   R(5,7)                  1.4099         calculate D2E/DX2 analytically  !
 ! R13   R(5,8)                  1.0874         calculate D2E/DX2 analytically  !
 ! R14   R(6,7)                  1.4092         calculate D2E/DX2 analytically  !
 ! R15   R(6,9)                  1.0877         calculate D2E/DX2 analytically  !
 ! R16   R(7,10)                 1.0859         calculate D2E/DX2 analytically  !
 ! R17   R(11,20)                1.5276         calculate D2E/DX2 analytically  !
 ! R18   R(11,23)                1.5111         calculate D2E/DX2 analytically  !
 ! R19   R(11,30)                1.5337         calculate D2E/DX2 analytically  !
 ! R20   R(12,17)                1.5308         calculate D2E/DX2 analytically  !
 ! R21   R(12,37)                1.531          calculate D2E/DX2 analytically  !
 ! R22   R(12,44)                1.5228         calculate D2E/DX2 analytically  !
 ! R23   R(13,14)                1.1046         calculate D2E/DX2 analytically  !
 ! R24   R(13,15)                1.1004         calculate D2E/DX2 analytically  !
 ! R25   R(13,16)                1.0985         calculate D2E/DX2 analytically  !
 ! R26   R(17,18)                1.0953         calculate D2E/DX2 analytically  !
 ! R27   R(17,19)                1.0968         calculate D2E/DX2 analytically  !
 ! R28   R(20,21)                1.0981         calculate D2E/DX2 analytically  !
 ! R29   R(20,22)                1.0957         calculate D2E/DX2 analytically  !
 ! R30   R(23,24)                1.5272         calculate D2E/DX2 analytically  !
 ! R31   R(23,25)                1.0946         calculate D2E/DX2 analytically  !
 ! R32   R(23,26)                1.0916         calculate D2E/DX2 analytically  !
 ! R33   R(24,27)                1.0944         calculate D2E/DX2 analytically  !
 ! R34   R(24,28)                1.0941         calculate D2E/DX2 analytically  !
 ! R35   R(24,29)                1.0949         calculate D2E/DX2 analytically  !
 ! R36   R(30,31)                1.5286         calculate D2E/DX2 analytically  !
 ! R37   R(30,32)                1.1012         calculate D2E/DX2 analytically  !
 ! R38   R(30,33)                1.0947         calculate D2E/DX2 analytically  !
 ! R39   R(31,34)                1.0942         calculate D2E/DX2 analytically  !
 ! R40   R(31,35)                1.0946         calculate D2E/DX2 analytically  !
 ! R41   R(31,36)                1.0932         calculate D2E/DX2 analytically  !
 ! R42   R(37,38)                1.5277         calculate D2E/DX2 analytically  !
 ! R43   R(37,39)                1.0989         calculate D2E/DX2 analytically  !
 ! R44   R(37,40)                1.0953         calculate D2E/DX2 analytically  !
 ! R45   R(38,41)                1.0943         calculate D2E/DX2 analytically  !
 ! R46   R(38,42)                1.0936         calculate D2E/DX2 analytically  !
 ! R47   R(38,43)                1.0945         calculate D2E/DX2 analytically  !
 ! R48   R(44,45)                1.5278         calculate D2E/DX2 analytically  !
 ! R49   R(44,46)                1.0916         calculate D2E/DX2 analytically  !
 ! R50   R(44,47)                1.0952         calculate D2E/DX2 analytically  !
 ! R51   R(45,48)                1.0946         calculate D2E/DX2 analytically  !
 ! R52   R(45,49)                1.0952         calculate D2E/DX2 analytically  !
 ! R53   R(45,50)                1.0933         calculate D2E/DX2 analytically  !
 ! R54   R(51,52)                1.4005         calculate D2E/DX2 analytically  !
 ! R55   R(51,53)                1.4015         calculate D2E/DX2 analytically  !
 ! R56   R(52,54)                1.4039         calculate D2E/DX2 analytically  !
 ! R57   R(52,55)                1.0816         calculate D2E/DX2 analytically  !
 ! R58   R(53,56)                1.4049         calculate D2E/DX2 analytically  !
 ! R59   R(53,57)                1.0817         calculate D2E/DX2 analytically  !
 ! R60   R(54,58)                1.3998         calculate D2E/DX2 analytically  !
 ! R61   R(54,59)                1.0856         calculate D2E/DX2 analytically  !
 ! R62   R(56,58)                1.3991         calculate D2E/DX2 analytically  !
 ! R63   R(56,60)                1.0857         calculate D2E/DX2 analytically  !
 ! R64   R(58,61)                1.0849         calculate D2E/DX2 analytically  !
 ! A1    A(2,1,11)              79.654          calculate D2E/DX2 analytically  !
 ! A2    A(2,1,12)              79.4397         calculate D2E/DX2 analytically  !
 ! A3    A(2,1,51)              91.6349         calculate D2E/DX2 analytically  !
 ! A4    A(11,1,12)            148.4265         calculate D2E/DX2 analytically  !
 ! A5    A(11,1,13)             98.8969         calculate D2E/DX2 analytically  !
 ! A6    A(11,1,51)            104.5476         calculate D2E/DX2 analytically  !
 ! A7    A(12,1,13)            101.5722         calculate D2E/DX2 analytically  !
 ! A8    A(12,1,51)             99.4433         calculate D2E/DX2 analytically  !
 ! A9    A(13,1,51)             89.4728         calculate D2E/DX2 analytically  !
 ! A10   A(1,2,3)              118.4772         calculate D2E/DX2 analytically  !
 ! A11   A(1,2,4)              118.2825         calculate D2E/DX2 analytically  !
 ! A12   A(3,2,4)              123.2042         calculate D2E/DX2 analytically  !
 ! A13   A(2,3,5)              118.5066         calculate D2E/DX2 analytically  !
 ! A14   A(2,3,17)             114.5449         calculate D2E/DX2 analytically  !
 ! A15   A(5,3,17)             126.8867         calculate D2E/DX2 analytically  !
 ! A16   A(2,4,6)              118.4754         calculate D2E/DX2 analytically  !
 ! A17   A(2,4,20)             114.6873         calculate D2E/DX2 analytically  !
 ! A18   A(6,4,20)             126.7958         calculate D2E/DX2 analytically  !
 ! A19   A(3,5,7)              119.0267         calculate D2E/DX2 analytically  !
 ! A20   A(3,5,8)              121.1808         calculate D2E/DX2 analytically  !
 ! A21   A(7,5,8)              119.7924         calculate D2E/DX2 analytically  !
 ! A22   A(4,6,7)              119.0221         calculate D2E/DX2 analytically  !
 ! A23   A(4,6,9)              121.1133         calculate D2E/DX2 analytically  !
 ! A24   A(7,6,9)              119.8646         calculate D2E/DX2 analytically  !
 ! A25   A(5,7,6)              121.7455         calculate D2E/DX2 analytically  !
 ! A26   A(5,7,10)             119.1289         calculate D2E/DX2 analytically  !
 ! A27   A(6,7,10)             119.1254         calculate D2E/DX2 analytically  !
 ! A28   A(1,11,20)            107.5793         calculate D2E/DX2 analytically  !
 ! A29   A(1,11,23)            117.5897         calculate D2E/DX2 analytically  !
 ! A30   A(1,11,30)             96.0871         calculate D2E/DX2 analytically  !
 ! A31   A(20,11,23)           112.4779         calculate D2E/DX2 analytically  !
 ! A32   A(20,11,30)           112.4748         calculate D2E/DX2 analytically  !
 ! A33   A(23,11,30)           109.6302         calculate D2E/DX2 analytically  !
 ! A34   A(1,12,17)            107.3374         calculate D2E/DX2 analytically  !
 ! A35   A(1,12,37)             99.5788         calculate D2E/DX2 analytically  !
 ! A36   A(1,12,44)            115.6796         calculate D2E/DX2 analytically  !
 ! A37   A(17,12,37)           108.9            calculate D2E/DX2 analytically  !
 ! A38   A(17,12,44)           114.7589         calculate D2E/DX2 analytically  !
 ! A39   A(37,12,44)           109.3987         calculate D2E/DX2 analytically  !
 ! A40   A(1,13,14)            108.7558         calculate D2E/DX2 analytically  !
 ! A41   A(1,13,15)            110.529          calculate D2E/DX2 analytically  !
 ! A42   A(1,13,16)            112.3494         calculate D2E/DX2 analytically  !
 ! A43   A(14,13,15)           108.5135         calculate D2E/DX2 analytically  !
 ! A44   A(14,13,16)           108.4067         calculate D2E/DX2 analytically  !
 ! A45   A(15,13,16)           108.1952         calculate D2E/DX2 analytically  !
 ! A46   A(3,17,12)            109.7692         calculate D2E/DX2 analytically  !
 ! A47   A(3,17,18)            109.3846         calculate D2E/DX2 analytically  !
 ! A48   A(3,17,19)            113.5066         calculate D2E/DX2 analytically  !
 ! A49   A(12,17,18)           107.519          calculate D2E/DX2 analytically  !
 ! A50   A(12,17,19)           109.4118         calculate D2E/DX2 analytically  !
 ! A51   A(18,17,19)           107.0492         calculate D2E/DX2 analytically  !
 ! A52   A(4,20,11)            110.0593         calculate D2E/DX2 analytically  !
 ! A53   A(4,20,21)            110.0998         calculate D2E/DX2 analytically  !
 ! A54   A(4,20,22)            113.1818         calculate D2E/DX2 analytically  !
 ! A55   A(11,20,21)           106.0271         calculate D2E/DX2 analytically  !
 ! A56   A(11,20,22)           110.0763         calculate D2E/DX2 analytically  !
 ! A57   A(21,20,22)           107.1128         calculate D2E/DX2 analytically  !
 ! A58   A(11,23,24)           115.6261         calculate D2E/DX2 analytically  !
 ! A59   A(11,23,25)           106.3541         calculate D2E/DX2 analytically  !
 ! A60   A(11,23,26)           107.7967         calculate D2E/DX2 analytically  !
 ! A61   A(24,23,25)           110.4734         calculate D2E/DX2 analytically  !
 ! A62   A(24,23,26)           109.1378         calculate D2E/DX2 analytically  !
 ! A63   A(25,23,26)           107.0871         calculate D2E/DX2 analytically  !
 ! A64   A(23,24,27)           108.0341         calculate D2E/DX2 analytically  !
 ! A65   A(23,24,28)           112.5226         calculate D2E/DX2 analytically  !
 ! A66   A(23,24,29)           112.4175         calculate D2E/DX2 analytically  !
 ! A67   A(27,24,28)           107.2142         calculate D2E/DX2 analytically  !
 ! A68   A(27,24,29)           107.3587         calculate D2E/DX2 analytically  !
 ! A69   A(28,24,29)           109.0272         calculate D2E/DX2 analytically  !
 ! A70   A(11,30,31)           116.5402         calculate D2E/DX2 analytically  !
 ! A71   A(11,30,32)           108.6521         calculate D2E/DX2 analytically  !
 ! A72   A(11,30,33)           106.1977         calculate D2E/DX2 analytically  !
 ! A73   A(31,30,32)           106.6576         calculate D2E/DX2 analytically  !
 ! A74   A(31,30,33)           111.2974         calculate D2E/DX2 analytically  !
 ! A75   A(32,30,33)           107.1331         calculate D2E/DX2 analytically  !
 ! A76   A(30,31,34)           107.8694         calculate D2E/DX2 analytically  !
 ! A77   A(30,31,35)           111.8109         calculate D2E/DX2 analytically  !
 ! A78   A(30,31,36)           112.7089         calculate D2E/DX2 analytically  !
 ! A79   A(34,31,35)           107.5555         calculate D2E/DX2 analytically  !
 ! A80   A(34,31,36)           107.7859         calculate D2E/DX2 analytically  !
 ! A81   A(35,31,36)           108.8988         calculate D2E/DX2 analytically  !
 ! A82   A(12,37,38)           115.9819         calculate D2E/DX2 analytically  !
 ! A83   A(12,37,39)           106.5691         calculate D2E/DX2 analytically  !
 ! A84   A(12,37,40)           106.8295         calculate D2E/DX2 analytically  !
 ! A85   A(38,37,39)           109.1452         calculate D2E/DX2 analytically  !
 ! A86   A(38,37,40)           109.153          calculate D2E/DX2 analytically  !
 ! A87   A(39,37,40)           108.9607         calculate D2E/DX2 analytically  !
 ! A88   A(37,38,41)           107.6734         calculate D2E/DX2 analytically  !
 ! A89   A(37,38,42)           112.5662         calculate D2E/DX2 analytically  !
 ! A90   A(37,38,43)           112.4752         calculate D2E/DX2 analytically  !
 ! A91   A(41,38,42)           107.4502         calculate D2E/DX2 analytically  !
 ! A92   A(41,38,43)           107.2788         calculate D2E/DX2 analytically  !
 ! A93   A(42,38,43)           109.1273         calculate D2E/DX2 analytically  !
 ! A94   A(12,44,45)           116.2104         calculate D2E/DX2 analytically  !
 ! A95   A(12,44,46)           107.9027         calculate D2E/DX2 analytically  !
 ! A96   A(12,44,47)           106.0359         calculate D2E/DX2 analytically  !
 ! A97   A(45,44,46)           109.7194         calculate D2E/DX2 analytically  !
 ! A98   A(45,44,47)           110.6464         calculate D2E/DX2 analytically  !
 ! A99   A(46,44,47)           105.761          calculate D2E/DX2 analytically  !
 ! A100  A(44,45,48)           107.9072         calculate D2E/DX2 analytically  !
 ! A101  A(44,45,49)           112.4522         calculate D2E/DX2 analytically  !
 ! A102  A(44,45,50)           113.1759         calculate D2E/DX2 analytically  !
 ! A103  A(48,45,49)           107.1406         calculate D2E/DX2 analytically  !
 ! A104  A(48,45,50)           107.6191         calculate D2E/DX2 analytically  !
 ! A105  A(49,45,50)           108.2678         calculate D2E/DX2 analytically  !
 ! A106  A(1,51,52)            118.8975         calculate D2E/DX2 analytically  !
 ! A107  A(1,51,53)            121.5808         calculate D2E/DX2 analytically  !
 ! A108  A(52,51,53)           119.4823         calculate D2E/DX2 analytically  !
 ! A109  A(51,52,54)           120.2379         calculate D2E/DX2 analytically  !
 ! A110  A(51,52,55)           121.8217         calculate D2E/DX2 analytically  !
 ! A111  A(54,52,55)           117.94           calculate D2E/DX2 analytically  !
 ! A112  A(51,53,56)           119.906          calculate D2E/DX2 analytically  !
 ! A113  A(51,53,57)           122.8748         calculate D2E/DX2 analytically  !
 ! A114  A(56,53,57)           117.2187         calculate D2E/DX2 analytically  !
 ! A115  A(52,54,58)           120.5638         calculate D2E/DX2 analytically  !
 ! A116  A(52,54,59)           118.9438         calculate D2E/DX2 analytically  !
 ! A117  A(58,54,59)           120.4923         calculate D2E/DX2 analytically  !
 ! A118  A(53,56,58)           120.8409         calculate D2E/DX2 analytically  !
 ! A119  A(53,56,60)           118.766          calculate D2E/DX2 analytically  !
 ! A120  A(58,56,60)           120.393          calculate D2E/DX2 analytically  !
 ! A121  A(54,58,56)           118.9637         calculate D2E/DX2 analytically  !
 ! A122  A(54,58,61)           120.5133         calculate D2E/DX2 analytically  !
 ! A123  A(56,58,61)           120.5228         calculate D2E/DX2 analytically  !
 ! A124  L(2,1,13,11,-1)       178.5509         calculate D2E/DX2 analytically  !
 ! A125  L(2,1,13,11,-2)       180.7788         calculate D2E/DX2 analytically  !
 ! D1    D(11,1,2,3)           167.1709         calculate D2E/DX2 analytically  !
 ! D2    D(11,1,2,4)           -10.7142         calculate D2E/DX2 analytically  !
 ! D3    D(12,1,2,3)            10.9644         calculate D2E/DX2 analytically  !
 ! D4    D(12,1,2,4)          -166.9208         calculate D2E/DX2 analytically  !
 ! D5    D(51,1,2,3)           -88.338          calculate D2E/DX2 analytically  !
 ! D6    D(51,1,2,4)            93.7768         calculate D2E/DX2 analytically  !
 ! D7    D(2,1,11,20)           24.0475         calculate D2E/DX2 analytically  !
 ! D8    D(2,1,11,23)          152.2228         calculate D2E/DX2 analytically  !
 ! D9    D(2,1,11,30)          -91.8693         calculate D2E/DX2 analytically  !
 ! D10   D(12,1,11,20)          73.2895         calculate D2E/DX2 analytically  !
 ! D11   D(12,1,11,23)        -158.5352         calculate D2E/DX2 analytically  !
 ! D12   D(12,1,11,30)         -42.6273         calculate D2E/DX2 analytically  !
 ! D13   D(13,1,11,20)        -156.7314         calculate D2E/DX2 analytically  !
 ! D14   D(13,1,11,23)         -28.556          calculate D2E/DX2 analytically  !
 ! D15   D(13,1,11,30)          87.3519         calculate D2E/DX2 analytically  !
 ! D16   D(51,1,11,20)         -64.9548         calculate D2E/DX2 analytically  !
 ! D17   D(51,1,11,23)          63.2205         calculate D2E/DX2 analytically  !
 ! D18   D(51,1,11,30)         179.1285         calculate D2E/DX2 analytically  !
 ! D19   D(2,1,12,17)          -24.7796         calculate D2E/DX2 analytically  !
 ! D20   D(2,1,12,37)           88.5996         calculate D2E/DX2 analytically  !
 ! D21   D(2,1,12,44)         -154.3423         calculate D2E/DX2 analytically  !
 ! D22   D(11,1,12,17)         -74.0675         calculate D2E/DX2 analytically  !
 ! D23   D(11,1,12,37)          39.3117         calculate D2E/DX2 analytically  !
 ! D24   D(11,1,12,44)         156.3698         calculate D2E/DX2 analytically  !
 ! D25   D(13,1,12,17)         156.5354         calculate D2E/DX2 analytically  !
 ! D26   D(13,1,12,37)         -90.0854         calculate D2E/DX2 analytically  !
 ! D27   D(13,1,12,44)          26.9728         calculate D2E/DX2 analytically  !
 ! D28   D(51,1,12,17)          65.1295         calculate D2E/DX2 analytically  !
 ! D29   D(51,1,12,37)         178.5087         calculate D2E/DX2 analytically  !
 ! D30   D(51,1,12,44)         -64.4332         calculate D2E/DX2 analytically  !
 ! D31   D(11,1,13,14)         -60.4098         calculate D2E/DX2 analytically  !
 ! D32   D(11,1,13,15)          58.6178         calculate D2E/DX2 analytically  !
 ! D33   D(11,1,13,16)         179.5795         calculate D2E/DX2 analytically  !
 ! D34   D(12,1,13,14)          95.4141         calculate D2E/DX2 analytically  !
 ! D35   D(12,1,13,15)        -145.5583         calculate D2E/DX2 analytically  !
 ! D36   D(12,1,13,16)         -24.5966         calculate D2E/DX2 analytically  !
 ! D37   D(51,1,13,14)        -165.0538         calculate D2E/DX2 analytically  !
 ! D38   D(51,1,13,15)         -46.0263         calculate D2E/DX2 analytically  !
 ! D39   D(51,1,13,16)          74.9355         calculate D2E/DX2 analytically  !
 ! D40   D(2,1,51,52)          -88.6863         calculate D2E/DX2 analytically  !
 ! D41   D(2,1,51,53)           89.0179         calculate D2E/DX2 analytically  !
 ! D42   D(11,1,51,52)          -8.9518         calculate D2E/DX2 analytically  !
 ! D43   D(11,1,51,53)         168.7524         calculate D2E/DX2 analytically  !
 ! D44   D(12,1,51,52)        -168.2515         calculate D2E/DX2 analytically  !
 ! D45   D(12,1,51,53)           9.4527         calculate D2E/DX2 analytically  !
 ! D46   D(13,1,51,52)          90.1041         calculate D2E/DX2 analytically  !
 ! D47   D(13,1,51,53)         -92.1917         calculate D2E/DX2 analytically  !
 ! D48   D(1,2,3,5)           -176.2717         calculate D2E/DX2 analytically  !
 ! D49   D(1,2,3,17)             6.3901         calculate D2E/DX2 analytically  !
 ! D50   D(4,2,3,5)              1.5024         calculate D2E/DX2 analytically  !
 ! D51   D(4,2,3,17)          -175.8358         calculate D2E/DX2 analytically  !
 ! D52   D(1,2,4,6)            176.1698         calculate D2E/DX2 analytically  !
 ! D53   D(1,2,4,20)            -6.0145         calculate D2E/DX2 analytically  !
 ! D54   D(3,2,4,6)             -1.6084         calculate D2E/DX2 analytically  !
 ! D55   D(3,2,4,20)           176.2073         calculate D2E/DX2 analytically  !
 ! D56   D(2,3,5,7)             -0.3979         calculate D2E/DX2 analytically  !
 ! D57   D(2,3,5,8)            179.6856         calculate D2E/DX2 analytically  !
 ! D58   D(17,3,5,7)           176.5745         calculate D2E/DX2 analytically  !
 ! D59   D(17,3,5,8)            -3.342          calculate D2E/DX2 analytically  !
 ! D60   D(2,3,17,12)          -28.0593         calculate D2E/DX2 analytically  !
 ! D61   D(2,3,17,18)           89.687          calculate D2E/DX2 analytically  !
 ! D62   D(2,3,17,19)         -150.8423         calculate D2E/DX2 analytically  !
 ! D63   D(5,3,17,12)          154.8654         calculate D2E/DX2 analytically  !
 ! D64   D(5,3,17,18)          -87.3882         calculate D2E/DX2 analytically  !
 ! D65   D(5,3,17,19)           32.0824         calculate D2E/DX2 analytically  !
 ! D66   D(2,4,6,7)              0.6068         calculate D2E/DX2 analytically  !
 ! D67   D(2,4,6,9)           -179.4487         calculate D2E/DX2 analytically  !
 ! D68   D(20,4,6,7)          -176.9146         calculate D2E/DX2 analytically  !
 ! D69   D(20,4,6,9)             3.0299         calculate D2E/DX2 analytically  !
 ! D70   D(2,4,20,11)           27.0471         calculate D2E/DX2 analytically  !
 ! D71   D(2,4,20,21)          -89.479          calculate D2E/DX2 analytically  !
 ! D72   D(2,4,20,22)          150.682          calculate D2E/DX2 analytically  !
 ! D73   D(6,4,20,11)         -155.3508         calculate D2E/DX2 analytically  !
 ! D74   D(6,4,20,21)           88.1231         calculate D2E/DX2 analytically  !
 ! D75   D(6,4,20,22)          -31.7158         calculate D2E/DX2 analytically  !
 ! D76   D(3,5,7,6)             -0.541          calculate D2E/DX2 analytically  !
 ! D77   D(3,5,7,10)           179.6641         calculate D2E/DX2 analytically  !
 ! D78   D(8,5,7,6)            179.3767         calculate D2E/DX2 analytically  !
 ! D79   D(8,5,7,10)            -0.4182         calculate D2E/DX2 analytically  !
 ! D80   D(4,6,7,5)              0.4342         calculate D2E/DX2 analytically  !
 ! D81   D(4,6,7,10)          -179.7709         calculate D2E/DX2 analytically  !
 ! D82   D(9,6,7,5)           -179.511          calculate D2E/DX2 analytically  !
 ! D83   D(9,6,7,10)             0.2839         calculate D2E/DX2 analytically  !
 ! D84   D(1,11,20,4)          -33.3313         calculate D2E/DX2 analytically  !
 ! D85   D(1,11,20,21)          85.7162         calculate D2E/DX2 analytically  !
 ! D86   D(1,11,20,22)        -158.7562         calculate D2E/DX2 analytically  !
 ! D87   D(23,11,20,4)        -164.392          calculate D2E/DX2 analytically  !
 ! D88   D(23,11,20,21)        -45.3445         calculate D2E/DX2 analytically  !
 ! D89   D(23,11,20,22)         70.1831         calculate D2E/DX2 analytically  !
 ! D90   D(30,11,20,4)          71.2318         calculate D2E/DX2 analytically  !
 ! D91   D(30,11,20,21)       -169.7207         calculate D2E/DX2 analytically  !
 ! D92   D(30,11,20,22)        -54.1931         calculate D2E/DX2 analytically  !
 ! D93   D(1,11,23,24)         171.3338         calculate D2E/DX2 analytically  !
 ! D94   D(1,11,23,25)          48.3058         calculate D2E/DX2 analytically  !
 ! D95   D(1,11,23,26)         -66.2639         calculate D2E/DX2 analytically  !
 ! D96   D(20,11,23,24)        -62.8626         calculate D2E/DX2 analytically  !
 ! D97   D(20,11,23,25)        174.1095         calculate D2E/DX2 analytically  !
 ! D98   D(20,11,23,26)         59.5397         calculate D2E/DX2 analytically  !
 ! D99   D(30,11,23,24)         63.0688         calculate D2E/DX2 analytically  !
 ! D100  D(30,11,23,25)        -59.9592         calculate D2E/DX2 analytically  !
 ! D101  D(30,11,23,26)       -174.5289         calculate D2E/DX2 analytically  !
 ! D102  D(1,11,30,31)         142.909          calculate D2E/DX2 analytically  !
 ! D103  D(1,11,30,32)          22.4601         calculate D2E/DX2 analytically  !
 ! D104  D(1,11,30,33)         -92.49           calculate D2E/DX2 analytically  !
 ! D105  D(20,11,30,31)         31.0193         calculate D2E/DX2 analytically  !
 ! D106  D(20,11,30,32)        -89.4296         calculate D2E/DX2 analytically  !
 ! D107  D(20,11,30,33)        155.6203         calculate D2E/DX2 analytically  !
 ! D108  D(23,11,30,31)        -94.9138         calculate D2E/DX2 analytically  !
 ! D109  D(23,11,30,32)        144.6373         calculate D2E/DX2 analytically  !
 ! D110  D(23,11,30,33)         29.6872         calculate D2E/DX2 analytically  !
 ! D111  D(1,12,17,3)           34.4305         calculate D2E/DX2 analytically  !
 ! D112  D(1,12,17,18)         -84.4708         calculate D2E/DX2 analytically  !
 ! D113  D(1,12,17,19)         159.6026         calculate D2E/DX2 analytically  !
 ! D114  D(37,12,17,3)         -72.4958         calculate D2E/DX2 analytically  !
 ! D115  D(37,12,17,18)        168.6029         calculate D2E/DX2 analytically  !
 ! D116  D(37,12,17,19)         52.6762         calculate D2E/DX2 analytically  !
 ! D117  D(44,12,17,3)         164.5132         calculate D2E/DX2 analytically  !
 ! D118  D(44,12,17,18)         45.6119         calculate D2E/DX2 analytically  !
 ! D119  D(44,12,17,19)        -70.3148         calculate D2E/DX2 analytically  !
 ! D120  D(1,12,37,38)         177.3485         calculate D2E/DX2 analytically  !
 ! D121  D(1,12,37,39)          55.6373         calculate D2E/DX2 analytically  !
 ! D122  D(1,12,37,40)         -60.7323         calculate D2E/DX2 analytically  !
 ! D123  D(17,12,37,38)        -70.4904         calculate D2E/DX2 analytically  !
 ! D124  D(17,12,37,39)        167.7983         calculate D2E/DX2 analytically  !
 ! D125  D(17,12,37,40)         51.4287         calculate D2E/DX2 analytically  !
 ! D126  D(44,12,37,38)         55.6575         calculate D2E/DX2 analytically  !
 ! D127  D(44,12,37,39)        -66.0538         calculate D2E/DX2 analytically  !
 ! D128  D(44,12,37,40)        177.5766         calculate D2E/DX2 analytically  !
 ! D129  D(1,12,44,45)         152.0357         calculate D2E/DX2 analytically  !
 ! D130  D(1,12,44,46)          28.3766         calculate D2E/DX2 analytically  !
 ! D131  D(1,12,44,47)         -84.5688         calculate D2E/DX2 analytically  !
 ! D132  D(17,12,44,45)         26.1704         calculate D2E/DX2 analytically  !
 ! D133  D(17,12,44,46)        -97.4887         calculate D2E/DX2 analytically  !
 ! D134  D(17,12,44,47)        149.5659         calculate D2E/DX2 analytically  !
 ! D135  D(37,12,44,45)        -96.5525         calculate D2E/DX2 analytically  !
 ! D136  D(37,12,44,46)        139.7884         calculate D2E/DX2 analytically  !
 ! D137  D(37,12,44,47)         26.843          calculate D2E/DX2 analytically  !
 ! D138  D(11,23,24,27)        174.9353         calculate D2E/DX2 analytically  !
 ! D139  D(11,23,24,28)        -66.9042         calculate D2E/DX2 analytically  !
 ! D140  D(11,23,24,29)         56.6587         calculate D2E/DX2 analytically  !
 ! D141  D(25,23,24,27)        -64.2383         calculate D2E/DX2 analytically  !
 ! D142  D(25,23,24,28)         53.9221         calculate D2E/DX2 analytically  !
 ! D143  D(25,23,24,29)        177.4851         calculate D2E/DX2 analytically  !
 ! D144  D(26,23,24,27)         53.2485         calculate D2E/DX2 analytically  !
 ! D145  D(26,23,24,28)        171.409          calculate D2E/DX2 analytically  !
 ! D146  D(26,23,24,29)        -65.028          calculate D2E/DX2 analytically  !
 ! D147  D(11,30,31,34)        175.9016         calculate D2E/DX2 analytically  !
 ! D148  D(11,30,31,35)        -66.0396         calculate D2E/DX2 analytically  !
 ! D149  D(11,30,31,36)         57.0307         calculate D2E/DX2 analytically  !
 ! D150  D(32,30,31,34)        -62.5919         calculate D2E/DX2 analytically  !
 ! D151  D(32,30,31,35)         55.4669         calculate D2E/DX2 analytically  !
 ! D152  D(32,30,31,36)        178.5372         calculate D2E/DX2 analytically  !
 ! D153  D(33,30,31,34)         53.9388         calculate D2E/DX2 analytically  !
 ! D154  D(33,30,31,35)        171.9975         calculate D2E/DX2 analytically  !
 ! D155  D(33,30,31,36)        -64.9322         calculate D2E/DX2 analytically  !
 ! D156  D(12,37,38,41)        177.7166         calculate D2E/DX2 analytically  !
 ! D157  D(12,37,38,42)        -64.0387         calculate D2E/DX2 analytically  !
 ! D158  D(12,37,38,43)         59.7357         calculate D2E/DX2 analytically  !
 ! D159  D(39,37,38,41)        -61.9523         calculate D2E/DX2 analytically  !
 ! D160  D(39,37,38,42)         56.2924         calculate D2E/DX2 analytically  !
 ! D161  D(39,37,38,43)       -179.9332         calculate D2E/DX2 analytically  !
 ! D162  D(40,37,38,41)         57.0387         calculate D2E/DX2 analytically  !
 ! D163  D(40,37,38,42)        175.2835         calculate D2E/DX2 analytically  !
 ! D164  D(40,37,38,43)        -60.9422         calculate D2E/DX2 analytically  !
 ! D165  D(12,44,45,48)        175.1141         calculate D2E/DX2 analytically  !
 ! D166  D(12,44,45,49)        -66.9389         calculate D2E/DX2 analytically  !
 ! D167  D(12,44,45,50)         56.1439         calculate D2E/DX2 analytically  !
 ! D168  D(46,44,45,48)        -62.1731         calculate D2E/DX2 analytically  !
 ! D169  D(46,44,45,49)         55.7739         calculate D2E/DX2 analytically  !
 ! D170  D(46,44,45,50)        178.8567         calculate D2E/DX2 analytically  !
 ! D171  D(47,44,45,48)         54.1485         calculate D2E/DX2 analytically  !
 ! D172  D(47,44,45,49)        172.0955         calculate D2E/DX2 analytically  !
 ! D173  D(47,44,45,50)        -64.8217         calculate D2E/DX2 analytically  !
 ! D174  D(1,51,52,54)         178.5465         calculate D2E/DX2 analytically  !
 ! D175  D(1,51,52,55)          -1.216          calculate D2E/DX2 analytically  !
 ! D176  D(53,51,52,54)          0.7933         calculate D2E/DX2 analytically  !
 ! D177  D(53,51,52,55)       -178.9693         calculate D2E/DX2 analytically  !
 ! D178  D(1,51,53,56)        -178.5151         calculate D2E/DX2 analytically  !
 ! D179  D(1,51,53,57)           1.7642         calculate D2E/DX2 analytically  !
 ! D180  D(52,51,53,56)         -0.824          calculate D2E/DX2 analytically  !
 ! D181  D(52,51,53,57)        179.4552         calculate D2E/DX2 analytically  !
 ! D182  D(51,52,54,58)         -0.2564         calculate D2E/DX2 analytically  !
 ! D183  D(51,52,54,59)        179.8651         calculate D2E/DX2 analytically  !
 ! D184  D(55,52,54,58)        179.5152         calculate D2E/DX2 analytically  !
 ! D185  D(55,52,54,59)         -0.3633         calculate D2E/DX2 analytically  !
 ! D186  D(51,53,56,58)          0.3222         calculate D2E/DX2 analytically  !
 ! D187  D(51,53,56,60)       -179.7874         calculate D2E/DX2 analytically  !
 ! D188  D(57,53,56,58)       -179.9416         calculate D2E/DX2 analytically  !
 ! D189  D(57,53,56,60)         -0.0512         calculate D2E/DX2 analytically  !
 ! D190  D(52,54,58,56)         -0.2493         calculate D2E/DX2 analytically  !
 ! D191  D(52,54,58,61)        179.9141         calculate D2E/DX2 analytically  !
 ! D192  D(59,54,58,56)        179.6273         calculate D2E/DX2 analytically  !
 ! D193  D(59,54,58,61)         -0.2092         calculate D2E/DX2 analytically  !
 ! D194  D(53,56,58,54)          0.2162         calculate D2E/DX2 analytically  !
 ! D195  D(53,56,58,61)       -179.9473         calculate D2E/DX2 analytically  !
 ! D196  D(60,56,58,54)       -179.6724         calculate D2E/DX2 analytically  !
 ! D197  D(60,56,58,61)          0.1641         calculate D2E/DX2 analytically  !
 --------------------------------------------------------------------------------
 Trust Radius=3.00D-01 FncErr=1.00D-07 GrdErr=1.00D-06 EigMax=2.50D+02 EigMin=1.00D-04
 Number of steps in this run=    366 maximum allowed number of steps=    366.
 Search for a saddle point of order  1.
 GradGradGradGradGradGradGradGradGradGradGradGradGradGradGradGradGradGrad

 Stoichiometry    C23H35N2Pt(1+)
 Framework group  C1[X(C23H35N2Pt)]
 Deg. of freedom   177
 Full point group                 C1      NOp   1
 Largest Abelian subgroup         C1      NOp   1
 Largest concise Abelian subgroup C1      NOp   1
                         Standard orientation:                         
 ---------------------------------------------------------------------
 Center     Atomic      Atomic             Coordinates (Angstroms)
 Number     Number       Type             X           Y           Z
 ---------------------------------------------------------------------
      1         78           0       -0.032093    0.082148   -0.614573
      2          6           0       -0.143643   -0.786548    1.210329
      3          6           0        1.029916   -1.278275    1.786783
      4          6           0       -1.398963   -0.904761    1.811448
      5          6           0        0.941875   -1.950837    3.014815
      6          6           0       -1.492327   -1.579091    3.039418
      7          6           0       -0.320548   -2.098536    3.624937
      8          1           0        1.827007   -2.355603    3.499765
      9          1           0       -2.449459   -1.703821    3.540771
     10          1           0       -0.391354   -2.623652    4.572809
     11          7           0       -2.194043   -0.158267   -0.426222
     12          7           0        1.962800   -0.807510   -0.471143
     13          6           0        0.034362    0.981141   -2.578555
     14          1           0       -0.410751    0.278983   -3.305799
     15          1           0       -0.546180    1.915806   -2.594964
     16          1           0        1.060063    1.208754   -2.899274
     17          6           0        2.289512   -0.957451    1.016881
     18          1           0        2.693781   -0.000406    1.363751
     19          1           0        3.081573   -1.705610    1.142590
     20          6           0       -2.522533   -0.226871    1.064056
     21          1           0       -2.625534    0.813532    1.400027
     22          1           0       -3.493890   -0.711518    1.213193
     23          6           0       -3.074308    0.821128   -1.167358
     24          6           0       -4.565912    0.493621   -1.175188
     25          1           0       -2.687701    0.870088   -2.190245
     26          1           0       -2.926572    1.806324   -0.721144
     27          1           0       -5.091945    1.321213   -1.660997
     28          1           0       -4.792962   -0.412849   -1.744168
     29          1           0       -4.976719    0.393403   -0.165195
     30          6           0       -2.264832   -1.531217   -1.105988
     31          6           0       -3.272678   -2.526604   -0.531562
     32          1           0       -1.275196   -2.009290   -1.038020
     33          1           0       -2.457300   -1.337529   -2.166123
     34          1           0       -3.257574   -3.421102   -1.161615
     35          1           0       -3.006603   -2.834065    0.484735
     36          1           0       -4.294508   -2.137962   -0.527852
     37          6           0        1.667292   -2.191248   -1.055877
     38          6           0        2.864487   -3.130723   -1.190034
     39          1           0        1.227082   -2.024368   -2.048831
     40          1           0        0.916779   -2.655880   -0.407375
     41          1           0        2.496053   -4.084930   -1.579062
     42          1           0        3.614203   -2.757372   -1.893277
     43          1           0        3.345394   -3.335621   -0.228395
     44          6           0        3.048176   -0.130571   -1.297326
     45          6           0        4.474933   -0.249408   -0.764048
     46          1           0        2.781217    0.922563   -1.403649
     47          1           0        2.974695   -0.559060   -2.302592
     48          1           0        5.147749    0.203648   -1.498981
     49          1           0        4.615567    0.290589    0.178287
     50          1           0        4.794422   -1.284541   -0.616828
     51          6           0        0.355080    1.908319    0.213763
     52          6           0       -0.720029    2.739127    0.553279
     53          6           0        1.663783    2.325532    0.491826
     54          6           0       -0.487278    3.987316    1.152210
     55          1           0       -1.745619    2.447823    0.371016
     56          6           0        1.887830    3.576466    1.090775
     57          1           0        2.533105    1.724617    0.261203
     58          6           0        0.817958    4.414910    1.422275
     59          1           0       -1.336050    4.615379    1.404666
     60          1           0        2.909318    3.882626    1.294799
     61          1           0        0.996947    5.380234    1.883873
 ---------------------------------------------------------------------
 Rotational constants (GHZ):           0.2099584           0.1839560           0.1556295
 General basis read from cards:  (5D, 7F)
 ======================================================================================================
                                       Pseudopotential Parameters
 ======================================================================================================
  Center     Atomic      Valence      Angular      Power
  Number     Number     Electrons     Momentum     of R      Exponent        Coefficient   SO-Coeffient
 ======================================================================================================
    1         78           18
                                      G and up 
                                                     1      728.9394056       -0.16192680    0.00000000
                                                     2      320.6567800    -1320.28738520    0.00000000
                                                     2       52.8680174     -298.31781350    0.00000000
                                                     2       12.0280128      -87.58370650    0.00000000
                                                     2        3.5238913       -8.14932740    0.00000000
                                      S - G
                                                     0      409.4437358        2.73342180    0.00000000
                                                     1      274.5419231       59.70243290    0.00000000
                                                     2      127.5658570      891.45895500    0.00000000
                                                     2       32.9036631      368.44676560    0.00000000
                                                     2        5.0593880      238.02630900    0.00000000
                                                     2        4.1506556     -107.05564540    0.00000000
                                      P - G
                                                     0      466.1728892        1.88785680    0.00000000
                                                     1      120.7888259       76.01386290    0.00000000
                                                     2       36.4118791      343.55111160    0.00000000
                                                     2        5.6985408      119.49117860    0.00000000
                                      D - G
                                                     0      249.5650763        2.93436780    0.00000000
                                                     1      126.6678585       59.33065710    0.00000000
                                                     2       63.1430586      452.44451940    0.00000000
                                                     2       17.9059470      210.47694790    0.00000000
                                                     2        4.2239373       58.62541120    0.00000000
                                      F - G
                                                     0      121.8158799        3.95342530    0.00000000
                                                     1       60.8757030       53.85551820    0.00000000
                                                     2       31.4767147      247.43051330    0.00000000
                                                     2        9.8811751      127.81879760    0.00000000
                                                     2        2.7319874       15.37720460    0.00000000
    2          6
                                   No pseudopotential on this center.
    3          6
                                   No pseudopotential on this center.
    4          6
                                   No pseudopotential on this center.
    5          6
                                   No pseudopotential on this center.
    6          6
                                   No pseudopotential on this center.
    7          6
                                   No pseudopotential on this center.
    8          1
                                   No pseudopotential on this center.
    9          1
                                   No pseudopotential on this center.
   10          1
                                   No pseudopotential on this center.
   11          7
                                   No pseudopotential on this center.
   12          7
                                   No pseudopotential on this center.
   13          6
                                   No pseudopotential on this center.
   14          1
                                   No pseudopotential on this center.
   15          1
                                   No pseudopotential on this center.
   16          1
                                   No pseudopotential on this center.
   17          6
                                   No pseudopotential on this center.
   18          1
                                   No pseudopotential on this center.
   19          1
                                   No pseudopotential on this center.
   20          6
                                   No pseudopotential on this center.
   21          1
                                   No pseudopotential on this center.
   22          1
                                   No pseudopotential on this center.
   23          6
                                   No pseudopotential on this center.
   24          6
                                   No pseudopotential on this center.
   25          1
                                   No pseudopotential on this center.
   26          1
                                   No pseudopotential on this center.
   27          1
                                   No pseudopotential on this center.
   28          1
                                   No pseudopotential on this center.
   29          1
                                   No pseudopotential on this center.
   30          6
                                   No pseudopotential on this center.
   31          6
                                   No pseudopotential on this center.
   32          1
                                   No pseudopotential on this center.
   33          1
                                   No pseudopotential on this center.
   34          1
                                   No pseudopotential on this center.
   35          1
                                   No pseudopotential on this center.
   36          1
                                   No pseudopotential on this center.
   37          6
                                   No pseudopotential on this center.
   38          6
                                   No pseudopotential on this center.
   39          1
                                   No pseudopotential on this center.
   40          1
                                   No pseudopotential on this center.
   41          1
                                   No pseudopotential on this center.
   42          1
                                   No pseudopotential on this center.
   43          1
                                   No pseudopotential on this center.
   44          6
                                   No pseudopotential on this center.
   45          6
                                   No pseudopotential on this center.
   46          1
                                   No pseudopotential on this center.
   47          1
                                   No pseudopotential on this center.
   48          1
                                   No pseudopotential on this center.
   49          1
                                   No pseudopotential on this center.
   50          1
                                   No pseudopotential on this center.
   51          6
                                   No pseudopotential on this center.
   52          6
                                   No pseudopotential on this center.
   53          6
                                   No pseudopotential on this center.
   54          6
                                   No pseudopotential on this center.
   55          1
                                   No pseudopotential on this center.
   56          6
                                   No pseudopotential on this center.
   57          1
                                   No pseudopotential on this center.
   58          6
                                   No pseudopotential on this center.
   59          1
                                   No pseudopotential on this center.
   60          1
                                   No pseudopotential on this center.
   61          1
                                   No pseudopotential on this center.
 ======================================================================================================
 There are   883 symmetry adapted cartesian basis functions of A   symmetry.
 There are   827 symmetry adapted basis functions of A   symmetry.
   827 basis functions,  1278 primitive gaussians,   883 cartesian basis functions
   102 alpha electrons      102 beta electrons
       nuclear repulsion energy      2880.0987831502 Hartrees.
 NAtoms=   61 NActive=   61 NUniq=   61 SFac= 1.00D+00 NAtFMM=   60 NAOKFM=T Big=T
 Integral buffers will be    131072 words long.
 Raffenetti 2 integral format.
 Two-electron integral symmetry is turned on.
 Nuclear repulsion after empirical dispersion term =     2880.0809415878 Hartrees.
 Force inversion solution in PCM.
 ------------------------------------------------------------------------------
 Polarizable Continuum Model (PCM)
 =================================
 Model                : PCM.
 Atomic radii         : UFF (Universal Force Field).
 Polarization charges : Total charges.
 Charge compensation  : None.
 Solution method      : Matrix inversion.
 Cavity type          : Scaled VdW (van der Waals Surface) (Alpha=1.100).
 Cavity algorithm     : GePol (No added spheres)
                        Default sphere list used, NSphG=   61.
                        Lebedev-Laikov grids with approx.  5.0 points / Ang**2.
                        Smoothing algorithm: York/Karplus (Gamma=1.0000).
                        Polarization charges: spherical gaussians, with
                                              point-specific exponents (IZeta= 3).
                        Self-potential: point-specific (ISelfS= 7).
                        Self-field    : sphere-specific E.n sum rule (ISelfD= 2).
 1st derivatives      : Analytical E(r).r(x)/FMM algorithm (CHGder, D1EAlg=3).
                        Cavity 1st derivative terms included.
 2nd derivatives      : Analytical E(r).r(xy)/FMM algorithm (CHGder, D2EAlg=3).
                        Cavity 2nd derivative terms included.
 Solvent              : TetraHydroFuran, Eps=   7.425700 Eps(inf)=   1.974025
 ------------------------------------------------------------------------------
 One-electron integrals computed using PRISM.
   1 Symmetry operations used in ECPInt.
 ECPInt:  NShTT=   46360 NPrTT=  151530 LenC2=   40129 LenP2D=   86491.
 LDataN:  DoStor=T MaxTD1= 7 Len=  274
 Number of processors reduced to  21 by ecpmxn.
 NBasis=   827 RedAO= T EigKep=  4.54D-05  NBF=   827
 NBsUse=   827 1.00D-06 EigRej= -1.00D+00 NBFU=   827
 Defaulting to unpruned grid for atomic number  78.
 ExpMin= 2.90D-02 ExpMax= 6.29D+03 ExpMxC= 9.49D+02 IAcc=3 IRadAn=         5 AccDes= 0.00D+00
 Harris functional with IExCor= 1009 and IRadAn=       5 diagonalized for initial guess.
 HarFok:  IExCor= 1009 AccDes= 0.00D+00 IRadAn=         5 IDoV= 1 UseB2=F ITyADJ=14
 ICtDFT=  3500011 ScaDFX=  1.000000  1.000000  1.000000  1.000000
 Defaulting to unpruned grid for atomic number  78.
 FoFCou: FMM=F IPFlag=           0 FMFlag=      100000 FMFlg1=        2001
         NFxFlg=           0 DoJE=T BraDBF=F KetDBF=T FulRan=T
         wScrn=  0.000000 ICntrl=       500 IOpCl=  0 I1Cent=   200000004 NGrid=           0
         NMat0=    1 NMatS0=      1 NMatT0=    0 NMatD0=    1 NMtDS0=    0 NMtDT0=    0
 Petite list used in FoFCou.
 Requested convergence on RMS density matrix=1.00D-08 within 128 cycles.
 Requested convergence on MAX density matrix=1.00D-06.
 Requested convergence on             energy=1.00D-06.
 No special actions if energy rises.
 Defaulting to unpruned grid for atomic number  78.
 Defaulting to unpruned grid for atomic number  78.
 Defaulting to unpruned grid for atomic number  78.
 Defaulting to unpruned grid for atomic number  78.
 Defaulting to unpruned grid for atomic number  78.
 Defaulting to unpruned grid for atomic number  78.
 Defaulting to unpruned grid for atomic number  78.
 Defaulting to unpruned grid for atomic number  78.
 Defaulting to unpruned grid for atomic number  78.
 Defaulting to unpruned grid for atomic number  78.
 Defaulting to unpruned grid for atomic number  78.
 Defaulting to unpruned grid for atomic number  78.
 Defaulting to unpruned grid for atomic number  78.
 Defaulting to unpruned grid for atomic number  78.
 Defaulting to unpruned grid for atomic number  78.
 Defaulting to unpruned grid for atomic number  78.
 Defaulting to unpruned grid for atomic number  78.
 Defaulting to unpruned grid for atomic number  78.
 Defaulting to unpruned grid for atomic number  78.
 Defaulting to unpruned grid for atomic number  78.
 Defaulting to unpruned grid for atomic number  78.
 Defaulting to unpruned grid for atomic number  78.
 Defaulting to unpruned grid for atomic number  78.
 Defaulting to unpruned grid for atomic number  78.
 Inv3:  Mode=1 IEnd=    36247728.
 Iteration    1 A*A^-1 deviation from unit magnitude is 3.11D-15 for   2813.
 Iteration    1 A*A^-1 deviation from orthogonality  is 2.11D-15 for   2682   1508.
 Iteration    1 A^-1*A deviation from unit magnitude is 3.22D-15 for   2813.
 Iteration    1 A^-1*A deviation from orthogonality  is 2.66D-15 for   2945    486.
 EnCoef did     2 forward-backward iterations
 Error on total polarization charges =  0.02139
 SCF Done:  E(RM06) =  -1125.44286372     A.U. after   17 cycles
            NFock= 17  Conv=0.51D-08     -V/T= 2.0834
 DoSCS=F DFT=T ScalE2(SS,OS)=  1.000000  1.000000
 Range of M.O.s used for correlation:     1   827
 NBasis=   827 NAE=   102 NBE=   102 NFC=     0 NFV=     0
 NROrb=    827 NOA=   102 NOB=   102 NVA=   725 NVB=   725

 **** Warning!!: The largest alpha MO coefficient is  0.19268275D+02

 PrsmSu:  requested number of processors reduced to:   6 ShMem   1 Linda.
   1 Symmetry operations used in ECPInt.
 ECPInt:  NShTT=   46360 NPrTT=  151530 LenC2=   40129 LenP2D=   86491.
 LDataN:  DoStor=T MaxTD1= 8 Len=  415
 Number of processors reduced to   2 by ecpmxn.
 Symmetrizing basis deriv contribution to polar:
 IMax=3 JMax=2 DiffMx= 0.00D+00
 G2DrvN: will do    13 centers at a time, making    5 passes.
 Calling FoFCou, ICntrl=  3107 FMM=T I1Cent=   0 AccDes= 0.00D+00.
 Defaulting to unpruned grid for atomic number  78.
 Defaulting to unpruned grid for atomic number  78.
 Defaulting to unpruned grid for atomic number  78.
 Defaulting to unpruned grid for atomic number  78.
 Defaulting to unpruned grid for atomic number  78.
 Defaulting to unpruned grid for atomic number  78.
 Defaulting to unpruned grid for atomic number  78.
 Defaulting to unpruned grid for atomic number  78.
 Defaulting to unpruned grid for atomic number  78.
 Defaulting to unpruned grid for atomic number  78.
 Defaulting to unpruned grid for atomic number  78.
 Defaulting to unpruned grid for atomic number  78.
 Defaulting to unpruned grid for atomic number  78.
 Defaulting to unpruned grid for atomic number  78.
 Defaulting to unpruned grid for atomic number  78.
 Defaulting to unpruned grid for atomic number  78.
 Defaulting to unpruned grid for atomic number  78.
 Defaulting to unpruned grid for atomic number  78.
 Defaulting to unpruned grid for atomic number  78.
 Defaulting to unpruned grid for atomic number  78.
 Defaulting to unpruned grid for atomic number  78.
 Defaulting to unpruned grid for atomic number  78.
 Defaulting to unpruned grid for atomic number  78.
 Defaulting to unpruned grid for atomic number  78.
 Calling FoFCou, ICntrl=  3107 FMM=T I1Cent=   0 AccDes= 0.00D+00.
 Calling FoFCou, ICntrl=  3107 FMM=T I1Cent=   0 AccDes= 0.00D+00.
 Calling FoFCou, ICntrl=  3107 FMM=T I1Cent=   0 AccDes= 0.00D+00.
 Calling FoFCou, ICntrl=  3107 FMM=T I1Cent=   0 AccDes= 0.00D+00.
 NEqPCM:  Using equilibrium solvation (IEInf=0, Eps=   7.4257, EpsInf=   1.9740)
 G2PCM: DoFxE=T DoFxN=T DoGrad=T DoDP/DQ/DG/TGxP=FFFF NFrqRd=   0 IEInf=0 SqF1=F DoCFld=F IF1Alg=4.
 CoulSu:  requested number of processors reduced to:  22 ShMem   1 Linda.
 CoulSu:  requested number of processors reduced to:  23 ShMem   1 Linda.
 CoulSu:  requested number of processors reduced to:  22 ShMem   1 Linda.
 CoulSu:  requested number of processors reduced to:  23 ShMem   1 Linda.
 CoulSu:  requested number of processors reduced to:  22 ShMem   1 Linda.
 CoulSu:  requested number of processors reduced to:  23 ShMem   1 Linda.
 CoulSu:  requested number of processors reduced to:  22 ShMem   1 Linda.
 CoulSu:  requested number of processors reduced to:  23 ShMem   1 Linda.
 End of G2Drv F.D. properties file   721 does not exist.
 End of G2Drv F.D. properties file   722 does not exist.
 End of G2Drv F.D. properties file   788 does not exist.
          IDoAtm=11111111111111111111111111111111111111111111111111
          IDoAtm=11111111111
 NEqPCM:  Using equilibrium solvation (IEInf=0, Eps=   7.4257, EpsInf=   1.9740)
          Differentiating once with respect to nuclear coordinates.
 Defaulting to unpruned grid for atomic number  78.
 CalDSu exits because no D1Ps are significant.
 Defaulting to unpruned grid for atomic number  78.
 Defaulting to unpruned grid for atomic number  78.
 Defaulting to unpruned grid for atomic number  78.
 Defaulting to unpruned grid for atomic number  78.
 Defaulting to unpruned grid for atomic number  78.
 Defaulting to unpruned grid for atomic number  78.
 Defaulting to unpruned grid for atomic number  78.
 Defaulting to unpruned grid for atomic number  78.
 Defaulting to unpruned grid for atomic number  78.
 Defaulting to unpruned grid for atomic number  78.
 Defaulting to unpruned grid for atomic number  78.
 Defaulting to unpruned grid for atomic number  78.
 Defaulting to unpruned grid for atomic number  78.
 Defaulting to unpruned grid for atomic number  78.
 Defaulting to unpruned grid for atomic number  78.
 Defaulting to unpruned grid for atomic number  78.
 Defaulting to unpruned grid for atomic number  78.
 Defaulting to unpruned grid for atomic number  78.
 Defaulting to unpruned grid for atomic number  78.
 Defaulting to unpruned grid for atomic number  78.
 Defaulting to unpruned grid for atomic number  78.
 Defaulting to unpruned grid for atomic number  78.
 Defaulting to unpruned grid for atomic number  78.
 Defaulting to unpruned grid for atomic number  78.
          There are   186 degrees of freedom in the 1st order CPHF.  IDoFFX=6 NUNeed=     0.
    180 vectors produced by pass  0 Test12= 7.40D-14 1.00D-09 XBig12= 1.58D-01 1.49D-01.
 AX will form    21 AO Fock derivatives at one time.
    180 vectors produced by pass  1 Test12= 7.40D-14 1.00D-09 XBig12= 1.10D-01 1.08D-01.
    180 vectors produced by pass  2 Test12= 7.40D-14 1.00D-09 XBig12= 1.22D-03 7.27D-03.
    180 vectors produced by pass  3 Test12= 7.40D-14 1.00D-09 XBig12= 1.44D-05 4.37D-04.
    180 vectors produced by pass  4 Test12= 7.40D-14 1.00D-09 XBig12= 9.11D-08 2.29D-05.
    180 vectors produced by pass  5 Test12= 7.40D-14 1.00D-09 XBig12= 3.47D-10 2.43D-06.
     88 vectors produced by pass  6 Test12= 7.40D-14 1.00D-09 XBig12= 8.74D-13 8.88D-08.
      5 vectors produced by pass  7 Test12= 7.40D-14 1.00D-09 XBig12= 1.89D-15 2.54D-09.
 InvSVY:  IOpt=1 It=  1 EMax= 4.44D-16
 Solved reduced A of dimension  1173 with   186 vectors.
 End of Minotr F.D. properties file   721 does not exist.
 End of Minotr F.D. properties file   722 does not exist.
 End of Minotr F.D. properties file   788 does not exist.

 **********************************************************************

            Population analysis using the SCF Density.

 **********************************************************************

 Orbital symmetries:
       Occupied  (A) (A) (A) (A) (A) (A) (A) (A) (A) (A) (A) (A)
                 (A) (A) (A) (A) (A) (A) (A) (A) (A) (A) (A) (A)
                 (A) (A) (A) (A) (A) (A) (A) (A) (A) (A) (A) (A)
                 (A) (A) (A) (A) (A) (A) (A) (A) (A) (A) (A) (A)
                 (A) (A) (A) (A) (A) (A) (A) (A) (A) (A) (A) (A)
                 (A) (A) (A) (A) (A) (A) (A) (A) (A) (A) (A) (A)
                 (A) (A) (A) (A) (A) (A) (A) (A) (A) (A) (A) (A)
                 (A) (A) (A) (A) (A) (A) (A) (A) (A) (A) (A) (A)
                 (A) (A) (A) (A) (A) (A)
       Virtual   (A) (A) (A) (A) (A) (A) (A) (A) (A) (A) (A) (A)
                 (A) (A) (A) (A) (A) (A) (A) (A) (A) (A) (A) (A)
                 (A) (A) (A) (A) (A) (A) (A) (A) (A) (A) (A) (A)
                 (A) (A) (A) (A) (A) (A) (A) (A) (A) (A) (A) (A)
                 (A) (A) (A) (A) (A) (A) (A) (A) (A) (A) (A) (A)
                 (A) (A) (A) (A) (A) (A) (A) (A) (A) (A) (A) (A)
                 (A) (A) (A) (A) (A) (A) (A) (A) (A) (A) (A) (A)
                 (A) (A) (A) (A) (A) (A) (A) (A) (A) (A) (A) (A)
                 (A) (A) (A) (A) (A) (A) (A) (A) (A) (A) (A) (A)
                 (A) (A) (A) (A) (A) (A) (A) (A) (A) (A) (A) (A)
                 (A) (A) (A) (A) (A) (A) (A) (A) (A) (A) (A) (A)
                 (A) (A) (A) (A) (A) (A) (A) (A) (A) (A) (A) (A)
                 (A) (A) (A) (A) (A) (A) (A) (A) (A) (A) (A) (A)
                 (A) (A) (A) (A) (A) (A) (A) (A) (A) (A) (A) (A)
                 (A) (A) (A) (A) (A) (A) (A) (A) (A) (A) (A) (A)
                 (A) (A) (A) (A) (A) (A) (A) (A) (A) (A) (A) (A)
                 (A) (A) (A) (A) (A) (A) (A) (A) (A) (A) (A) (A)
                 (A) (A) (A) (A) (A) (A) (A) (A) (A) (A) (A) (A)
                 (A) (A) (A) (A) (A) (A) (A) (A) (A) (A) (A) (A)
                 (A) (A) (A) (A) (A) (A) (A) (A) (A) (A) (A) (A)
                 (A) (A) (A) (A) (A) (A) (A) (A) (A) (A) (A) (A)
                 (A) (A) (A) (A) (A) (A) (A) (A) (A) (A) (A) (A)
                 (A) (A) (A) (A) (A) (A) (A) (A) (A) (A) (A) (A)
                 (A) (A) (A) (A) (A) (A) (A) (A) (A) (A) (A) (A)
                 (A) (A) (A) (A) (A) (A) (A) (A) (A) (A) (A) (A)
                 (A) (A) (A) (A) (A) (A) (A) (A) (A) (A) (A) (A)
                 (A) (A) (A) (A) (A) (A) (A) (A) (A) (A) (A) (A)
                 (A) (A) (A) (A) (A) (A) (A) (A) (A) (A) (A) (A)
                 (A) (A) (A) (A) (A) (A) (A) (A) (A) (A) (A) (A)
                 (A) (A) (A) (A) (A) (A) (A) (A) (A) (A) (A) (A)
                 (A) (A) (A) (A) (A) (A) (A) (A) (A) (A) (A) (A)
                 (A) (A) (A) (A) (A) (A) (A) (A) (A) (A) (A) (A)
                 (A) (A) (A) (A) (A) (A) (A) (A) (A) (A) (A) (A)
                 (A) (A) (A) (A) (A) (A) (A) (A) (A) (A) (A) (A)
                 (A) (A) (A) (A) (A) (A) (A) (A) (A) (A) (A) (A)
                 (A) (A) (A) (A) (A) (A) (A) (A) (A) (A) (A) (A)
                 (A) (A) (A) (A) (A) (A) (A) (A) (A) (A) (A) (A)
                 (A) (A) (A) (A) (A) (A) (A) (A) (A) (A) (A) (A)
                 (A) (A) (A) (A) (A) (A) (A) (A) (A) (A) (A) (A)
                 (A) (A) (A) (A) (A) (A) (A) (A) (A) (A) (A) (A)
                 (A) (A) (A) (A) (A) (A) (A) (A) (A) (A) (A) (A)
                 (A) (A) (A) (A) (A) (A) (A) (A) (A) (A) (A) (A)
                 (A) (A) (A) (A) (A) (A) (A) (A) (A) (A) (A) (A)
                 (A) (A) (A) (A) (A) (A) (A) (A) (A) (A) (A) (A)
                 (A) (A) (A) (A) (A) (A) (A) (A) (A) (A) (A) (A)
                 (A) (A) (A) (A) (A) (A) (A) (A) (A) (A) (A) (A)
                 (A) (A) (A) (A) (A) (A) (A) (A) (A) (A) (A) (A)
                 (A) (A) (A) (A) (A) (A) (A) (A) (A) (A) (A) (A)
                 (A) (A) (A) (A) (A) (A) (A) (A) (A) (A) (A) (A)
                 (A) (A) (A) (A) (A) (A) (A) (A) (A) (A) (A) (A)
                 (A) (A) (A) (A) (A) (A) (A) (A) (A) (A) (A) (A)
                 (A) (A) (A) (A) (A) (A) (A) (A) (A) (A) (A) (A)
                 (A) (A) (A) (A) (A) (A) (A) (A) (A) (A) (A) (A)
                 (A) (A) (A) (A) (A) (A) (A) (A) (A) (A) (A) (A)
                 (A) (A) (A) (A) (A) (A) (A) (A) (A) (A) (A) (A)
                 (A) (A) (A) (A) (A) (A) (A) (A) (A) (A) (A) (A)
                 (A) (A) (A) (A) (A) (A) (A) (A) (A) (A) (A) (A)
                 (A) (A) (A) (A) (A) (A) (A) (A) (A) (A) (A) (A)
                 (A) (A) (A) (A) (A) (A) (A) (A) (A) (A) (A) (A)
                 (A) (A) (A) (A) (A) (A) (A) (A) (A) (A) (A) (A)
                 (A) (A) (A) (A) (A)
 The electronic state is 1-A.
 Alpha  occ. eigenvalues --  -14.50145 -14.50087 -10.32027 -10.31345 -10.31281
 Alpha  occ. eigenvalues --  -10.31212 -10.31099 -10.30676 -10.30651 -10.27264
 Alpha  occ. eigenvalues --  -10.27250 -10.26916 -10.26849 -10.26661 -10.26658
 Alpha  occ. eigenvalues --  -10.26391 -10.26367 -10.26134 -10.26089 -10.25991
 Alpha  occ. eigenvalues --  -10.25960 -10.25672 -10.25622 -10.25109 -10.21456
 Alpha  occ. eigenvalues --   -3.98955  -2.21989  -2.21755  -2.20823  -1.00142
 Alpha  occ. eigenvalues --   -0.99652  -0.89343  -0.89219  -0.82822  -0.81564
 Alpha  occ. eigenvalues --   -0.81252  -0.80639  -0.78450  -0.78269  -0.77657
 Alpha  occ. eigenvalues --   -0.77086  -0.73225  -0.72577  -0.68260  -0.67974
 Alpha  occ. eigenvalues --   -0.67786  -0.64511  -0.64421  -0.63773  -0.63459
 Alpha  occ. eigenvalues --   -0.61290  -0.60905  -0.56731  -0.55552  -0.55346
 Alpha  occ. eigenvalues --   -0.53949  -0.53789  -0.53357  -0.51223  -0.51075
 Alpha  occ. eigenvalues --   -0.50194  -0.49350  -0.49136  -0.48387  -0.47053
 Alpha  occ. eigenvalues --   -0.46568  -0.46372  -0.46170  -0.45727  -0.45432
 Alpha  occ. eigenvalues --   -0.44877  -0.44509  -0.44259  -0.43924  -0.43815
 Alpha  occ. eigenvalues --   -0.43565  -0.43025  -0.42858  -0.42602  -0.41253
 Alpha  occ. eigenvalues --   -0.40937  -0.40601  -0.40217  -0.39973  -0.39487
 Alpha  occ. eigenvalues --   -0.39456  -0.39218  -0.39046  -0.38499  -0.38078
 Alpha  occ. eigenvalues --   -0.37822  -0.37248  -0.36230  -0.35611  -0.34943
 Alpha  occ. eigenvalues --   -0.33578  -0.30063  -0.29157  -0.29146  -0.28109
 Alpha  occ. eigenvalues --   -0.26754  -0.25148
 Alpha virt. eigenvalues --   -0.12454  -0.06679  -0.03656  -0.03592  -0.02872
 Alpha virt. eigenvalues --   -0.02265  -0.01158  -0.01025  -0.00454   0.01425
 Alpha virt. eigenvalues --    0.03750   0.04115   0.04185   0.04247   0.04840
 Alpha virt. eigenvalues --    0.05365   0.05951   0.06001   0.06229   0.06509
 Alpha virt. eigenvalues --    0.07161   0.07265   0.07534   0.08100   0.08452
 Alpha virt. eigenvalues --    0.08940   0.09141   0.09368   0.10122   0.10172
 Alpha virt. eigenvalues --    0.10480   0.10801   0.10938   0.11315   0.11575
 Alpha virt. eigenvalues --    0.11778   0.12135   0.12473   0.12805   0.13241
 Alpha virt. eigenvalues --    0.13545   0.13839   0.14001   0.14703   0.14802
 Alpha virt. eigenvalues --    0.15662   0.15971   0.16248   0.16868   0.17424
 Alpha virt. eigenvalues --    0.17822   0.18006   0.18603   0.18754   0.20136
 Alpha virt. eigenvalues --    0.20377   0.20910   0.21541   0.21948   0.22587
 Alpha virt. eigenvalues --    0.23067   0.24304   0.25110   0.25394   0.25885
 Alpha virt. eigenvalues --    0.26254   0.26531   0.26929   0.27005   0.27668
 Alpha virt. eigenvalues --    0.28210   0.28837   0.29239   0.29538   0.29701
 Alpha virt. eigenvalues --    0.30316   0.30661   0.31226   0.31478   0.32024
 Alpha virt. eigenvalues --    0.32250   0.32972   0.33951   0.34569   0.35013
 Alpha virt. eigenvalues --    0.35685   0.36030   0.36398   0.36588   0.36696
 Alpha virt. eigenvalues --    0.37281   0.37533   0.37824   0.38004   0.38175
 Alpha virt. eigenvalues --    0.38583   0.38671   0.39493   0.39617   0.40142
 Alpha virt. eigenvalues --    0.40627   0.41108   0.41597   0.42013   0.42243
 Alpha virt. eigenvalues --    0.42313   0.42922   0.43764   0.44169   0.44990
 Alpha virt. eigenvalues --    0.45068   0.45645   0.45932   0.46155   0.46604
 Alpha virt. eigenvalues --    0.46836   0.47339   0.47990   0.48168   0.48506
 Alpha virt. eigenvalues --    0.48895   0.49517   0.50113   0.50566   0.50679
 Alpha virt. eigenvalues --    0.50900   0.51020   0.51540   0.51919   0.52086
 Alpha virt. eigenvalues --    0.52223   0.52570   0.52691   0.52971   0.53143
 Alpha virt. eigenvalues --    0.53642   0.54021   0.54364   0.54480   0.54887
 Alpha virt. eigenvalues --    0.55081   0.55157   0.55345   0.55695   0.56156
 Alpha virt. eigenvalues --    0.56319   0.56788   0.57192   0.57413   0.57974
 Alpha virt. eigenvalues --    0.57988   0.58098   0.58432   0.58501   0.59417
 Alpha virt. eigenvalues --    0.59622   0.60105   0.61251   0.61365   0.61568
 Alpha virt. eigenvalues --    0.61968   0.62442   0.63398   0.64017   0.64218
 Alpha virt. eigenvalues --    0.64335   0.64769   0.65055   0.65487   0.65910
 Alpha virt. eigenvalues --    0.66238   0.66853   0.67008   0.67310   0.67715
 Alpha virt. eigenvalues --    0.68420   0.68933   0.69067   0.69387   0.70147
 Alpha virt. eigenvalues --    0.70435   0.70553   0.71147   0.71884   0.72219
 Alpha virt. eigenvalues --    0.73543   0.73700   0.74010   0.74487   0.75117
 Alpha virt. eigenvalues --    0.75570   0.75849   0.76079   0.76522   0.77225
 Alpha virt. eigenvalues --    0.77976   0.78109   0.78982   0.79188   0.79889
 Alpha virt. eigenvalues --    0.80438   0.81220   0.81675   0.82661   0.82807
 Alpha virt. eigenvalues --    0.83428   0.84015   0.84654   0.85015   0.86428
 Alpha virt. eigenvalues --    0.86648   0.87244   0.87997   0.88993   0.89521
 Alpha virt. eigenvalues --    0.90058   0.90333   0.91084   0.91557   0.92582
 Alpha virt. eigenvalues --    0.92670   0.93000   0.94997   0.95588   0.96286
 Alpha virt. eigenvalues --    0.96478   0.96913   0.97878   0.98159   0.99036
 Alpha virt. eigenvalues --    0.99228   0.99862   1.01219   1.01543   1.01879
 Alpha virt. eigenvalues --    1.02767   1.04061   1.04239   1.04605   1.05031
 Alpha virt. eigenvalues --    1.05292   1.06128   1.06842   1.07215   1.07573
 Alpha virt. eigenvalues --    1.08263   1.08970   1.09366   1.09726   1.10822
 Alpha virt. eigenvalues --    1.11013   1.11379   1.12091   1.12586   1.12959
 Alpha virt. eigenvalues --    1.14264   1.14488   1.14886   1.15225   1.15971
 Alpha virt. eigenvalues --    1.16258   1.16460   1.17769   1.18095   1.18573
 Alpha virt. eigenvalues --    1.19178   1.19665   1.19840   1.20627   1.20866
 Alpha virt. eigenvalues --    1.21178   1.21593   1.22258   1.22954   1.23731
 Alpha virt. eigenvalues --    1.24596   1.25045   1.25359   1.25718   1.25765
 Alpha virt. eigenvalues --    1.26347   1.26676   1.27573   1.28488   1.29007
 Alpha virt. eigenvalues --    1.29190   1.29613   1.30936   1.31887   1.32032
 Alpha virt. eigenvalues --    1.32526   1.32985   1.33866   1.34582   1.34914
 Alpha virt. eigenvalues --    1.35461   1.36192   1.36526   1.36784   1.38486
 Alpha virt. eigenvalues --    1.38926   1.39607   1.40431   1.40734   1.41761
 Alpha virt. eigenvalues --    1.42474   1.42926   1.43248   1.44736   1.45560
 Alpha virt. eigenvalues --    1.45770   1.46832   1.47745   1.47961   1.48544
 Alpha virt. eigenvalues --    1.49756   1.50366   1.50868   1.51219   1.51833
 Alpha virt. eigenvalues --    1.52768   1.53763   1.53951   1.55074   1.56065
 Alpha virt. eigenvalues --    1.56732   1.57348   1.57632   1.59594   1.60296
 Alpha virt. eigenvalues --    1.61917   1.62557   1.62987   1.64217   1.64716
 Alpha virt. eigenvalues --    1.65181   1.66240   1.66486   1.67123   1.68617
 Alpha virt. eigenvalues --    1.69121   1.69496   1.69788   1.70109   1.71940
 Alpha virt. eigenvalues --    1.72007   1.72380   1.72830   1.73577   1.73834
 Alpha virt. eigenvalues --    1.74485   1.75299   1.76346   1.76797   1.77854
 Alpha virt. eigenvalues --    1.78050   1.78773   1.80720   1.81556   1.81921
 Alpha virt. eigenvalues --    1.82504   1.84039   1.84616   1.85226   1.85798
 Alpha virt. eigenvalues --    1.86814   1.87711   1.88289   1.91377   1.93058
 Alpha virt. eigenvalues --    1.93283   1.94174   1.94725   1.95228   1.96471
 Alpha virt. eigenvalues --    1.97052   1.98577   1.99046   2.00580   2.01885
 Alpha virt. eigenvalues --    2.02152   2.03252   2.03714   2.04353   2.05281
 Alpha virt. eigenvalues --    2.05778   2.06048   2.06797   2.08046   2.09010
 Alpha virt. eigenvalues --    2.10004   2.10207   2.10782   2.11576   2.11795
 Alpha virt. eigenvalues --    2.12182   2.12417   2.12947   2.13187   2.13686
 Alpha virt. eigenvalues --    2.14442   2.15500   2.15641   2.15992   2.16875
 Alpha virt. eigenvalues --    2.17314   2.18390   2.18993   2.19325   2.20124
 Alpha virt. eigenvalues --    2.20183   2.21278   2.21454   2.22317   2.23041
 Alpha virt. eigenvalues --    2.24296   2.24757   2.25462   2.25670   2.26948
 Alpha virt. eigenvalues --    2.27625   2.28221   2.28965   2.30236   2.30696
 Alpha virt. eigenvalues --    2.31957   2.32449   2.33435   2.33908   2.35093
 Alpha virt. eigenvalues --    2.36512   2.37084   2.37771   2.38858   2.39321
 Alpha virt. eigenvalues --    2.40072   2.40934   2.41349   2.41741   2.42985
 Alpha virt. eigenvalues --    2.43582   2.44085   2.44927   2.45848   2.46508
 Alpha virt. eigenvalues --    2.48222   2.49224   2.49976   2.50084   2.51167
 Alpha virt. eigenvalues --    2.52748   2.53091   2.53981   2.54834   2.55552
 Alpha virt. eigenvalues --    2.56345   2.56506   2.56843   2.57313   2.57542
 Alpha virt. eigenvalues --    2.58002   2.58278   2.59265   2.60003   2.60684
 Alpha virt. eigenvalues --    2.61037   2.61331   2.61814   2.62428   2.63098
 Alpha virt. eigenvalues --    2.64742   2.65877   2.66737   2.68115   2.68722
 Alpha virt. eigenvalues --    2.69750   2.70565   2.71538   2.72332   2.73702
 Alpha virt. eigenvalues --    2.74147   2.74914   2.77043   2.77387   2.77836
 Alpha virt. eigenvalues --    2.78012   2.79576   2.79862   2.80850   2.81726
[...]
 ,0.00000064,0.00000679,-0.00000356,0.00000467,-0.00000239,0.00000398,0
 .00000044,0.00163120,-0.00116774,-0.00076696,0.00612737,-0.00547243,-0
 .00247854,-0.00014779,-0.00070422,-0.00029816,-0.22523261,0.12476769,0
 .05068068,0.00072063,0.00019345,0.00026210,-0.00416024,-0.00265267,-0.
 00164275,-0.00001770,0.00007180,0.00004942,-0.01646897,0.01849442,0.00
 778215,0.23708501,0.00063483,-0.00061601,-0.00029040,-0.00000307,0.000
 06607,-0.00014461,-0.00004448,-0.00001668,0.00001886,0.00005706,-0.000
 01724,0.00003000,-0.00000416,0.00000270,0.00001847,-0.00000023,0.00001
 129,0.00000585,0.00000728,-0.00001697,0.00003313,0.00000744,-0.0000082
 3,0.00001106,-0.00001209,-0.00001141,0.00001251,-0.00000034,-0.0000087
 0,0.00000591,-0.00000720,0.00010811,-0.00003527,-0.00015193,-0.0000455
 6,-0.00006141,-0.00001367,-0.00013185,0.00009330,0.00001071,0.00003214
 ,-0.00004754,-0.00001419,0.00002462,-0.00000808,0.00001651,0.00001131,
 -0.00003342,-0.00001779,-0.00002109,-0.00007130,-0.00000292,0.00003210
 ,-0.00000216,0.00000995,-0.00000364,0.00001908,-0.00008314,-0.00001670
 ,-0.00005721,0.00001784,-0.00002923,-0.00002917,-0.00000924,-0.0000340
 2,0.00002530,-0.00000144,-0.00011150,0.00007380,-0.00000072,0.00004647
 ,-0.00003299,0.00000377,0.00000840,-0.00000118,-0.00001017,-0.00002756
 ,-0.00002656,-0.00002454,-0.00000219,-0.00000979,-0.00000118,0.0000000
 9,0.00000771,0.00000089,-0.00001352,0.00000815,0.00001703,-0.00014485,
 0.00007689,-0.00004351,0.00004550,-0.00005468,-0.00008350,0.00005889,-
 0.00002431,-0.00000911,-0.00000155,-0.00000759,-0.00000770,-0.00001164
 ,0.00000082,0.00000259,0.00000340,0.00000601,-0.00002057,-0.00002495,0
 .00001020,0.00007684,0.00002531,-0.00001583,-0.00003256,0.00000251,0.0
 0001263,-0.00002190,0.00001341,0.00004650,-0.00000768,0.00001806,-0.00
 000943,0.00000941,-0.00001296,-0.00000281,0.00001176,-0.00000221,-0.00
 000170,0.00001499,-0.00000647,0.00000262,-0.00003209,-0.00000781,0.000
 05672,0.00000785,-0.00000001,-0.00002580,0.00000229,-0.00001326,-0.000
 00622,0.00000267,0.00000202,-0.00000246,0.00001278,0.00000110,0.000000
 55,-0.00000245,-0.00000024,0.00000486,0.00000254,-0.00000386,0.0000027
 1,-0.00081242,-0.00118852,-0.00371014,0.02154162,-0.01290458,-0.006997
 97,-0.00091879,-0.00077486,-0.00001868,0.12466158,-0.14439728,-0.04531
 277,0.00004179,0.00044096,0.00225735,-0.00219432,0.00162764,-0.0023416
 3,0.00007141,-0.00009729,0.00027315,-0.00853226,0.00921736,0.00217216,
 -0.13415616,0.14888573,0.00029327,-0.00028264,-0.00013649,0.00004248,0
 .00010772,-0.00006489,-0.00005576,-0.00000030,0.00002678,0.00003142,-0
 .00002399,0.00001339,0.00000130,-0.00000432,-0.00001036,0.00000211,-0.
 00000744,0.00000279,-0.00000725,-0.00000633,0.00000960,0.00000366,-0.0
 0000196,0.00000636,-0.00000264,0.00000083,0.00000605,-0.00000092,-0.00
 000084,0.00000292,0.00000911,0.00001976,0.00000716,-0.00003949,0.00002
 167,-0.00008952,-0.00002993,-0.00013207,-0.00003288,-0.00000993,0.0000
 3872,-0.00004594,-0.00001843,0.00000808,0.00000108,0.00002164,0.000006
 05,0.00000783,0.00004854,0.00003035,0.00000665,0.00000742,-0.00005229,
 -0.00000273,-0.00000499,-0.00001294,0.00000168,0.00005869,-0.00002802,
 -0.00007991,-0.00001622,0.00004449,0.00003041,-0.00001017,0.00002467,0
 .00002384,-0.00008238,-0.00001991,0.00003999,0.00000715,-0.00000876,-0
 .00002812,0.00000587,0.00000191,-0.00000338,0.00001202,-0.00006494,-0.
 00003369,-0.00001441,-0.00000050,-0.00000502,-0.00001199,-0.00000143,0
 .00000301,0.00000037,-0.00000309,0.00000224,-0.00000023,-0.00007263,0.
 00003268,-0.00001702,0.00002180,-0.00003135,-0.00003749,0.00002794,-0.
 00001090,-0.00000690,0.00000003,-0.00000346,-0.00000523,-0.00000761,0.
 00000132,0.00000246,0.00000306,0.00000240,-0.00001121,-0.00000903,0.00
 000433,0.00003329,0.00000675,-0.00000143,-0.00001084,0.00000037,0.0000
 1443,-0.00001432,0.00000953,0.00001894,-0.00000023,0.00000820,-0.00000
 930,0.00000308,-0.00000561,-0.00000004,0.00000522,0.00000045,-0.000001
 31,0.00000732,-0.00000591,-0.00000321,-0.00003875,-0.00006454,0.000033
 81,0.00000229,0.00001294,-0.00001206,-0.00001471,0.00003948,0.00001470
 ,0.00000013,-0.00000232,-0.00000296,0.00000683,0.00000048,-0.00000023,
 0.00000063,-0.00000117,0.00000291,-0.00000253,-0.00000044,0.00000218,-
 0.00071118,-0.00376667,0.00518817,0.01001152,-0.00821880,0.00049626,-0
 .00035718,0.00005345,-0.00080203,0.05070619,-0.04518614,-0.05530867,0.
 00024150,0.00226968,-0.00337711,-0.00139358,-0.00233832,0.00529589,0.0
 0005919,0.00027616,-0.00053229,-0.00480334,0.00316799,0.00513477,-0.05
 407137,0.05235266,0.04708420,-0.00004415,-0.00003420,-0.00002917,0.000
 01252,0.00006584,-0.00006109,-0.00001188,-0.00000195,0.,0.00001113,-0.
 00000859,0.00000301,-0.00000098,0.00000232,0.00000334,0.00000012,0.000
 00016,0.00000254,-0.00000256,-0.00000415,0.00001230,0.00000521,-0.0000
 0575,0.00000489,-0.00000454,-0.00000180,0.00000515,-0.00000093,-0.0000
 0388,0.00000418,0.00000468,0.00000655,-0.00001002,-0.00003258,0.000026
 78,-0.00002759,-0.00000515,-0.00003619,0.00005199,-0.00000292,0.000004
 15,-0.00003112,-0.00000599,0.00000554,0.00000349,0.00001480,0.00000098
 ,-0.00000366,0.00002341,-0.00000474,0.00000230,-0.00002705,-0.00000460
 ,-0.00002746,-0.00000376,-0.00001797,0.00000176,-0.00000645,0.00000863
 ,-0.00001392,0.00001945,0.00000547,-0.00001043,-0.00000356,-0.00000914
 ,0.00000436,-0.00000570,0.00000034,0.00002072,0.00000165,-0.00000155,-
 0.00001167,0.00000325,-0.00000317,-0.00000205,0.00001552,-0.00001015,0
 .00000280,-0.00000479,0.00000195,-0.00000003,-0.00000602,-0.00000539,0
 .00000054,-0.00000071,-0.00000099,0.00000169,0.00000729,0.00000215,0.0
 0002891,-0.00000449,0.00000550,-0.00001699,-0.00001142,0.00000934,-0.0
 0000237,-0.00000601,-0.00000142,-0.00000202,-0.00000341,-0.00000571,-0
 .00000038,0.00000056,0.00000285,0.00000202,-0.00000304,-0.00000371,0.0
 0000279,0.00003444,0.00002966,0.00001546,-0.00001776,-0.00000934,-0.00
 000158,-0.00000528,0.00000508,0.00000425,-0.00000371,0.00000127,0.0000
 0061,0.00000425,-0.00000695,-0.00000116,0.00000268,0.00000174,0.000000
 62,0.00000314,0.00000041,0.00000057,-0.00001061,0.00000213,-0.00000985
 ,-0.00001137,-0.00000082,-0.00001781,-0.00001151,-0.00003259,0.0000221
 1,0.00000436,-0.00001880,-0.00000182,0.00000783,-0.00000099,-0.0000007
 9,-0.00000619,0.00000340,0.00000155,0.00000212,-0.00000494,0.00000226,
 0.00189011,-0.00021062,-0.00026628,0.00033683,0.00033599,0.00020609,-0
 .00191378,0.00097579,0.00017667,-0.00189450,0.00370779,0.00135474,-0.0
 0007019,-0.00006673,0.00000327,-0.30249027,-0.07318494,-0.04562387,0.0
 0061419,-0.00013117,0.00018438,-0.01680608,-0.00919845,-0.00516428,-0.
 00088387,-0.00050861,-0.00026408,0.32033682,-0.00075863,-0.00032267,-0
 .00027573,0.00000301,0.00004082,-0.00013334,-0.00006516,-0.00000064,0.
 00003361,0.00004689,-0.00003188,0.00001462,0.00000223,0.00000971,0.000
 00293,0.00000532,0.00000134,0.00001900,-0.00001101,-0.00001338,0.00003
 114,0.00000892,-0.00001327,0.00001115,-0.00000764,-0.00000556,0.000011
 22,-0.00000179,-0.00000734,0.00000530,0.00016889,-0.00008166,-0.000066
 58,0.00008928,0.00003332,-0.00005028,-0.00001614,-0.00012200,0.0000875
 7,-0.00000476,0.00004085,-0.00003590,-0.00001364,0.00002245,-0.0000242
 9,0.00002328,0.00001460,-0.00002206,0.00008448,-0.00004811,-0.00004287
 ,-0.00003341,-0.00003075,-0.00003509,-0.00000138,-0.00003485,0.0000311
 8,0.00001475,-0.00002372,-0.00007678,0.00000377,0.00002531,0.00000442,
 -0.00000939,-0.00000045,0.00001809,0.00002645,-0.00007381,0.00004246,-
 0.00000181,0.00003048,-0.00001119,0.00000538,0.00000272,0.00000123,-0.
 00001097,0.00001201,0.00000225,-0.00001347,0.00000112,-0.00000291,0.00
 000342,-0.00000217,0.00000443,-0.00000032,-0.00000528,0.00000277,-0.00
 000654,-0.00019134,0.00008227,-0.00005540,0.00005957,-0.00005821,-0.00
 011626,0.00005638,-0.00002323,-0.00000717,0.00000270,-0.00000587,-0.00
 000801,-0.00001221,-0.00000004,0.00000414,0.00000346,0.00000516,-0.000
 02468,-0.00002769,0.00001195,0.00007929,0.00003170,-0.00000111,-0.0000
 3651,-0.00000754,0.00001329,-0.00002137,0.00000702,0.00003063,-0.00001
 090,0.00001073,-0.00000755,0.00001304,-0.00001218,-0.00000235,0.000009
 12,-0.00000111,-0.00000459,0.00001155,-0.00000678,0.00000049,-0.000063
 19,-0.00006038,0.00012964,0.00000591,0.00001339,-0.00006708,-0.0000217
 7,0.00002292,-0.00003905,0.00001360,0.00002375,-0.00000498,0.00002184,
 -0.00000354,-0.00000051,-0.00000030,-0.00000661,0.00002887,0.00000363,
 0.00000752,0.00001254,-0.00055794,-0.00148904,-0.00376701,0.00054159,-
 0.00120530,-0.00017468,-0.02588954,-0.00584470,-0.00569089,0.00325315,
 -0.00043994,-0.00305786,-0.00005607,-0.00004530,0.00027944,-0.07311440
 ,-0.07454447,-0.02090417,-0.00001413,0.00048174,0.00226196,0.01786082,
 0.00941189,0.00335541,0.00092618,0.00028875,0.00011973,0.07854110,0.07
 404850,-0.00028733,-0.00013162,-0.00009317,0.00000007,0.00014228,-0.00
 006766,-0.00002126,-0.00001359,0.00001878,0.00004066,-0.00001194,0.000
 02869,-0.00000196,-0.00000949,0.00000263,-0.00000484,-0.00000457,-0.00
 001508,0.00000655,-0.00000815,0.00000738,0.00000224,0.00000054,0.00000
 469,-0.00000344,-0.00000116,0.00000579,0.00000084,-0.00000024,0.000002
 86,0.00006882,-0.00000900,-0.00008309,-0.00002791,-0.00002960,0.000013
 11,-0.00003358,-0.00013579,-0.00004975,0.00002630,0.00003276,-0.000057
 30,-0.00001727,0.00000494,0.00002413,0.00002239,-0.00000034,-0.0000172
 9,-0.00007474,0.00000643,-0.00009958,0.00003098,0.00005624,0.00004417,
 0.00002226,0.00003264,0.00002637,-0.00003040,0.00003683,-0.00000167,-0
 .00002173,-0.00003393,-0.00000371,0.00000293,-0.00001280,0.00000323,0.
 00001852,-0.00005283,0.00002880,-0.00000383,0.00001657,-0.00000382,0.0
 0000315,0.00000017,-0.00000027,0.00000801,0.00001358,-0.00000211,-0.00
 000752,0.00000072,-0.00000140,0.00000301,-0.00000170,0.00000163,0.0000
 0016,-0.00000249,0.00000055,0.00000868,-0.00009220,0.00002910,-0.00003
 255,0.00003205,-0.00002200,-0.00006727,0.00002585,-0.00000821,-0.00000
 730,0.00000199,-0.00000535,-0.00000088,-0.00000368,-0.00000097,0.00000
 010,0.00000217,0.00000431,-0.00000995,-0.00001701,0.00000786,0.0000415
 8,0.00001299,0.00000525,-0.00001876,-0.00000107,-0.00000270,-0.0000088
 8,0.00000079,0.00001210,-0.00000391,0.00000567,-0.00000336,0.00000628,
 -0.00000705,-0.00000071,0.00000544,-0.00000083,-0.00000068,0.00000464,
 -0.00000173,0.00000285,0.00000820,0.00002673,-0.00009578,-0.00001292,-
 0.00000730,-0.00002673,0.00002592,-0.00010734,0.00000710,0.00002069,-0
 .00003060,0.00000548,0.00001570,-0.00000665,-0.00000943,0.00000446,-0.
 00000743,0.00001830,0.00001287,0.00000593,0.00000978,-0.00030608,-0.00
 385363,0.00506918,0.00026353,-0.00007178,-0.00080787,-0.01237929,-0.00
 465397,0.00132170,0.00108097,-0.00305971,0.00507974,0.00000140,0.00027
 888,-0.00051021,-0.04556414,-0.02078199,-0.04796315,0.00019283,0.00228
 703,-0.00337297,0.00741997,0.00211039,0.00519094,0.00037365,0.00006606
 ,0.00012594,0.04937265,0.02618954,0.03925390,0.00005371,0.00000191,0.0
 0001758,0.00000895,0.00001222,-0.00000605,-0.00002772,-0.00000130,0.00
 001366,-0.00001705,0.00001018,-0.00001349,0.00001136,-0.00000417,-0.00
 000156,0.00001273,-0.00000094,-0.00000017,-0.00000336,-0.00000086,0.00
 000327,0.00000064,-0.00000021,0.00000176,-0.00000198,-0.00000120,0.000
 00022,0.00000177,-0.00000095,0.00000104,-0.00004498,0.00000449,-0.0000
 0982,-0.00004202,-0.00000495,-0.00000143,-0.00000458,-0.00001878,-0.00
 000276,0.00000701,0.00000079,-0.00000919,0.00000122,-0.00000610,0.0000
 1892,0.00000537,0.00000056,-0.00001504,-0.00000005,0.00000233,-0.00000
 820,0.00001620,-0.00001241,0.00002474,0.00000420,0.00000776,0.00000516
 ,-0.00000928,0.00001594,-0.00000363,0.00003488,0.00000546,-0.00002936,
 0.00000081,-0.00001401,-0.00000305,-0.00002462,0.00004720,0.00001323,0
 .00000742,-0.00002810,-0.00001755,-0.00000245,-0.00001762,-0.00000902,
 0.00003913,-0.00005069,0.00000584,-0.00000173,0.00000244,-0.00000048,-
 0.00001632,-0.00000760,0.00000110,-0.00000256,-0.00000155,0.00000313,0
 .00001485,0.00000895,0.00001165,0.00000141,-0.00000627,-0.00000883,-0.
 00000250,-0.00000680,-0.00000271,-0.00000258,-0.00000193,-0.00000046,-
 0.00000245,-0.00000388,-0.00000005,0.00000026,0.00000129,0.00000029,0.
 00000037,0.00000155,0.00000115,0.00000096,-0.00001167,-0.00000767,0.00
 000341,0.00000817,0.00000502,-0.00000272,0.00000256,0.00000789,0.00000
 069,0.00000740,-0.00000195,-0.00000022,0.00000205,-0.00000014,0.000002
 44,-0.00000288,-0.00000148,0.00000181,-0.00000220,-0.00000082,0.000010
 96,-0.00000976,0.00005400,0.00001249,-0.00000158,-0.00000111,-0.000004
 41,0.00002826,-0.00004053,-0.00000542,0.00003432,-0.00000035,-0.000001
 39,0.00000171,0.00000420,0.00001198,-0.00000452,0.00000053,-0.00000525
 ,0.00000299,-0.00000098,-0.00177718,0.00043702,0.00015582,-0.00442889,
 -0.00148891,-0.00110081,-0.00262450,0.00306109,0.00101488,-0.00006221,
 -0.02639915,-0.01236834,-0.00019546,-0.00115204,-0.00051936,0.00808277
 ,0.02168912,0.01026744,0.00013783,0.00097089,0.00042891,-0.06494854,-0
 .04118203,-0.02027728,0.00125811,0.00054267,0.00043999,0.00096688,-0.0
 0081737,-0.00016868,0.06354978,0.00001231,-0.00002801,0.00016826,0.000
 02011,0.00012867,-0.00001940,-0.00002033,0.00000357,0.00000681,0.00002
 854,-0.00000568,0.00001072,-0.00000511,-0.00000742,-0.00000576,-0.0000
 0363,-0.00000813,-0.00000736,0.00000083,-0.00000399,0.00001658,0.00000
 601,-0.00000709,0.00000405,-0.00000694,-0.00000422,0.00000489,-0.00000
 080,-0.00000314,0.00000613,0.00002169,0.00000437,-0.00003952,0.0000061
 7,0.00002256,-0.00004706,-0.00002830,-0.00016706,-0.00004275,0.0000043
 3,0.00003514,-0.00007028,-0.00001607,-0.00000669,0.00003158,0.00001982
 ,-0.00000789,0.00000922,0.00002121,0.00002489,-0.00001334,-0.00002461,
 0.00001389,-0.00003145,-0.00000607,-0.00002295,-0.00000036,-0.00001273
 ,0.00003180,-0.00002088,0.00001887,0.00000151,-0.00001759,-0.00000124,
 -0.00001695,0.00000272,-0.00001371,0.00001803,0.00002880,0.00000412,-0
 .00000909,-0.00001650,0.00000259,-0.00000587,-0.00000344,0.00002293,-0
 .00002665,-0.00000543,-0.00000530,0.00000249,-0.00000119,-0.00000989,-
 0.00000668,0.00000148,-0.00000199,-0.00000240,0.00000323,0.00000645,-0
 .00003010,0.00002692,-0.00001194,0.00001058,-0.00002129,-0.00003119,0.
 00001179,-0.00000527,-0.00000783,-0.00000036,-0.00000270,-0.00000364,-
 0.00000618,-0.00000021,0.00000114,0.00000256,0.00000281,-0.00000633,-0
 .00000622,0.00000415,0.00003442,0.00003033,0.00001861,-0.00001752,-0.0
 0000880,-0.00000423,-0.00000667,0.00000120,0.00000594,-0.00000494,-0.0
 0000017,-0.00000265,0.00000431,-0.00000835,-0.00000102,0.00000300,0.00
 000289,0.00000122,0.00000391,0.00000089,0.00000169,-0.00002659,0.00001
 496,-0.00004655,-0.00001135,0.00000028,-0.00000768,-0.00000246,-0.0000
 2961,0.00005199,0.00000841,-0.00003967,-0.00000106,0.00000679,0.000000
 43,-0.00000376,-0.00001513,0.00000690,-0.00000024,0.00000825,-0.000007
 60,0.00000278,0.00046234,0.00065820,0.00060856,-0.00156789,0.00224724,
 -0.00202021,0.00310928,0.00061876,-0.00258886,0.00073227,-0.00448498,-
 0.00346958,0.00009664,-0.00029585,-0.00014624,-0.00542932,-0.01179309,
 -0.00712488,-0.00025322,-0.00060277,-0.00028539,-0.04118763,-0.2740884
 8,-0.11191770,-0.00006454,-0.00024951,0.00165602,-0.00021296,0.0000109
 3,0.00177345,0.04435114,0.28808682,0.00000566,0.00004733,-0.00038293,-
 0.00003686,-0.00019146,-0.00009447,0.00004654,-0.00000837,-0.00002353,
 -0.00004412,0.00000358,-0.00002059,-0.00000563,0.00002383,0.00001924,0
 .00000991,0.00002113,0.00001763,0.00000010,-0.00000466,-0.00000149,0.0
 0000122,0.00000266,0.00000134,-0.00000019,0.00000248,0.00000198,-0.000
 00089,-0.00000451,0.00000021,-0.00001273,-0.00001411,0.00002048,-0.000
 00686,-0.00003639,0.00003725,0.00004435,0.00023220,0.00012607,-0.00001
 633,-0.00005898,0.00008262,0.00001558,0.00002219,-0.00004477,-0.000010
 34,0.00001451,-0.00001232,0.00000798,-0.00004367,0.00000978,-0.0000282
 3,0.00001979,-0.00001048,0.00000390,-0.00000576,0.00000439,-0.00001088
 ,-0.00002784,0.00000472,0.00003069,0.00000436,-0.00000655,-0.00000554,
 -0.00000307,0.00000423,0.00000953,0.00000166,0.00002505,-0.00000091,-0
 .00000061,-0.00001154,-0.00000005,-0.00000682,-0.00000404,0.00000374,-
 0.00001464,0.00000215,-0.00000554,0.00000093,-0.00000002,-0.00000431,-
 0.00000289,0.00000108,0.00000119,-0.00000059,0.00000055,0.00000456,0.0
 0000497,0.00003643,-0.00000215,0.00000015,-0.00001323,0.00000433,0.000
 00770,-0.00000774,0.00000485,-0.00000182,-0.00000289,-0.00000310,-0.00
 000514,-0.00000024,0.00000046,0.00000254,0.00000043,-0.00000243,-0.000
 00214,0.00000206,0.00001007,0.00003602,-0.00000354,-0.00001146,-0.0000
 1006,0.00000241,-0.00000676,0.00000260,0.00000545,-0.00000325,-0.00000
 208,0.00000137,0.00000338,-0.00000498,-0.00000130,0.00000169,0.0000016
 1,0.00000025,0.00000205,0.00000102,0.00000045,-0.00002510,0.00001751,0
 .00000619,-0.00000117,0.00000412,-0.00000339,0.00000986,-0.00002040,0.
 00000786,0.00000364,-0.00001196,-0.00000203,0.00000572,-0.00000087,-0.
 00000224,-0.00000792,0.00000022,-0.00000071,0.00000152,-0.00000237,-0.
 00000007,0.00018013,0.00057090,-0.00026489,-0.00115895,-0.00198250,0.0
 0551613,0.00105877,-0.00257547,0.00536081,0.00018297,-0.00457640,0.000
 95593,0.00003686,-0.00021761,-0.00004143,-0.00227234,-0.00597016,0.000
 21887,-0.00012511,-0.00026629,-0.00007271,-0.02027865,-0.11193459,-0.0
 8850352,0.00016814,0.00167809,-0.00301542,0.00009749,0.00174188,-0.003
 03033,0.02213094,0.12354324,0.08310501\\-0.00000123,0.00000534,0.00000
 246,0.00000108,-0.00000103,-0.00000060,0.00000095,-0.00000326,-0.00000
 218,0.00000155,0.00000195,0.00000204,0.00000118,-0.00000381,-0.0000028
 9,0.00000255,0.00000221,0.00000228,0.00000226,-0.00000068,-0.00000043,
 0.00000123,-0.00000612,-0.00000462,0.00000301,0.00000440,0.00000401,0.
 00000267,-0.00000121,-0.00000046,-0.00000146,0.00000506,0.00000351,-0.
 00000226,-0.00000488,-0.00000489,-0.00000292,-0.00000241,0.00000063,-0
 .00000555,0.00000240,0.00000047,-0.00000019,0.00000272,0.00000189,-0.0
 0000191,-0.00000130,-0.00000121,0.00000012,-0.00000636,-0.00000522,0.0
 0000225,-0.00000706,-0.00000526,-0.00000117,-0.00000738,-0.00000637,0.
 00000177,0.00000526,0.00000446,0.00000586,0.00000624,0.00000534,0.0000
 0063,0.00000878,0.00000672,0.00000011,0.00000855,0.00000646,-0.0000005
 2,0.00001176,0.00000936,-0.00000153,0.00000738,0.00000572,0.00000352,0
 .00000775,0.00000715,0.00000034,0.00001354,0.00001090,-0.00000412,0.00
 001286,0.00000884,0.00000110,0.00001227,0.00000997,-0.00000442,0.00000
 645,0.00000463,-0.00000693,0.00000818,0.00000484,-0.00000791,0.0000013
 9,0.00000168,-0.00000702,0.00000683,0.00000417,-0.00001059,0.00000867,
 0.00000454,-0.00000560,0.00000687,0.00000441,-0.00000588,0.00001085,0.
 00000779,-0.00000578,-0.00000219,-0.00000252,-0.00000980,-0.00000641,-
 0.00000707,-0.00000865,-0.00000216,-0.00000381,-0.00000669,-0.00000188
 ,-0.00000294,-0.00001274,-0.00000530,-0.00000665,-0.00001011,-0.000008
 13,-0.00000826,-0.00000836,-0.00000826,-0.00000804,-0.00000230,-0.0000
 0743,-0.00000576,-0.00000178,-0.00001048,-0.00000873,-0.00000017,-0.00
 000628,-0.00000523,-0.00000531,-0.00000646,-0.00000576,-0.00000208,-0.
 00001195,-0.00000980,0.00000138,-0.00001152,-0.00000873,-0.00000398,-0
 .00001164,-0.00000997,0.00000570,-0.00000107,-0.00000054,0.00000830,0.
 00000181,0.00000230,0.00000722,-0.00000427,-0.00000160,0.00001282,0.00
 000057,0.00000311,0.00000694,0.00000407,0.00000379,0.00001108,-0.00000
 514,-0.00000158,0.00000512,-0.00000640,-0.00000436,0.00001395,-0.00000
 296,0.00000036,0.00001457,0.00000255,0.00000486,0.00001238,-0.00000786
 ,-0.00000377,0.00001731,-0.00000343,0.00000056\\\@
 The archive entry for this job was punched.


 IF YOU GIVE EVERYONE A PIECE OF YOUR MIND,
 PRETTY SOON IT WILL BE ALL GONE.
 Job cpu time:       2 days  8 hours  0 minutes 41.3 seconds.
 Elapsed time:       0 days  2 hours 21 minutes  9.3 seconds.
 File lengths (MBytes):  RWF=   3332 Int=      0 D2E=      0 Chk=     79 Scr=      1
 Normal termination of Gaussian 16 at Thu Jun  2 01:21:27 2022.
