 Entering Gaussian System, Link 0=/cm/shared/apps//g16/g16
 Input=TS_NCNPtPhMe_rotatePh.com
 Output=TS_NCNPtPhMe_rotatePh.log
 Initial command:
 /cm/shared/apps//g16/l1.exe "/var/tmp/pbs.111.josephine/Gau-3614211.inp" -scrdir="/var/tmp/pbs.111.josephine/"
 Entering Link 1 = /cm/shared/apps//g16/l1.exe PID=   3614213.
  
 Copyright (c) 1988-2019, Gaussian, Inc.  All Rights Reserved.
  
 This is part of the Gaussian(R) 16 program.  It is based on
 the Gaussian(R) 09 system (copyright 2009, Gaussian, Inc.),
 the Gaussian(R) 03 system (copyright 2003, Gaussian, Inc.),
 the Gaussian(R) 98 system (copyright 1998, Gaussian, Inc.),
 the Gaussian(R) 94 system (copyright 1995, Gaussian, Inc.),
 the Gaussian 92(TM) system (copyright 1992, Gaussian, Inc.),
 the Gaussian 90(TM) system (copyright 1990, Gaussian, Inc.),
 the Gaussian 88(TM) system (copyright 1988, Gaussian, Inc.),
 the Gaussian 86(TM) system (copyright 1986, Carnegie Mellon
 University), and the Gaussian 82(TM) system (copyright 1983,
 Carnegie Mellon University). Gaussian is a federally registered
 trademark of Gaussian, Inc.
  
 This software contains proprietary and confidential information,
 including trade secrets, belonging to Gaussian, Inc.
  
 This software is provided under written license and may be
 used, copied, transmitted, or stored only in accord with that
 written license.
  
 The following legend is applicable only to US Government
 contracts under FAR:
  
                    RESTRICTED RIGHTS LEGEND
  
 Use, reproduction and disclosure by the US Government is
 subject to restrictions as set forth in subparagraphs (a)
 and (c) of the Commercial Computer Software - Restricted
 Rights clause in FAR 52.227-19.
  
 Gaussian, Inc.
 340 Quinnipiac St., Bldg. 40, Wallingford CT 06492
  
  
 ---------------------------------------------------------------
 Warning -- This program may not be used in any manner that
 competes with the business of Gaussian, Inc. or will provide
 assistance to any competitor of Gaussian, Inc.  The licensee
 of this program is prohibited from giving any competitor of
 Gaussian, Inc. access to this program.  By using this program,
 the user acknowledges that Gaussian, Inc. is engaged in the
 business of creating and licensing software in the field of
 computational chemistry and represents and warrants to the
 licensee that it is not a competitor of Gaussian, Inc. and that
 it will not use this program in any manner prohibited above.
 ---------------------------------------------------------------
  

 Cite this work as:
 Gaussian 16, Revision C.01,
 M. J. Frisch, G. W. Trucks, H. B. Schlegel, G. E. Scuseria, 
 M. A. Robb, J. R. Cheeseman, G. Scalmani, V. Barone, 
 G. A. Petersson, H. Nakatsuji, X. Li, M. Caricato, A. V. Marenich, 
 J. Bloino, B. G. Janesko, R. Gomperts, B. Mennucci, H. P. Hratchian, 
 J. V. Ortiz, A. F. Izmaylov, J. L. Sonnenberg, D. Williams-Young, 
 F. Ding, F. Lipparini, F. Egidi, J. Goings, B. Peng, A. Petrone, 
 T. Henderson, D. Ranasinghe, V. G. Zakrzewski, J. Gao, N. Rega, 
 G. Zheng, W. Liang, M. Hada, M. Ehara, K. Toyota, R. Fukuda, 
 J. Hasegawa, M. Ishida, T. Nakajima, Y. Honda, O. Kitao, H. Nakai, 
 T. Vreven, K. Throssell, J. A. Montgomery, Jr., J. E. Peralta, 
 F. Ogliaro, M. J. Bearpark, J. J. Heyd, E. N. Brothers, K. N. Kudin, 
 V. N. Staroverov, T. A. Keith, R. Kobayashi, J. Normand, 
 K. Raghavachari, A. P. Rendell, J. C. Burant, S. S. Iyengar, 
 J. Tomasi, M. Cossi, J. M. Millam, M. Klene, C. Adamo, R. Cammi, 
 J. W. Ochterski, R. L. Martin, K. Morokuma, O. Farkas, 
 J. B. Foresman, and D. J. Fox, Gaussian, Inc., Wallingford CT, 2019.
 
 ******************************************
 Gaussian 16:  ES64L-G16RevC.01  3-Jul-2019
                 8-Jun-2022 
 ******************************************
 %nprocshared=48
 Will use up to   48 processors via shared memory.
 %mem=512MW
 %chk=TS_NCNPtPhMe_rotatePh.chk
 ----------------------------------------------------------------------
 # freq gen scrf=(iefpcm,solvent=thf) m06 EmpiricalDispersion=GD3 Pseud
 o=Read
 ----------------------------------------------------------------------
 1/10=4,30=1,38=1/1,3;
 2/12=2,17=6,18=5,40=1/2;
 3/5=7,11=2,16=1,17=8,25=1,30=1,70=2201,71=2,72=20,74=-54,124=31,140=1/1,2,3;
 4//1;
 5/5=2,38=5,53=20,98=1/2;
 8/6=4,10=90,11=11/1;
 11/6=1,8=1,9=11,15=111,16=1/1,2,10;
 10/6=1/2;
 6/7=2,8=2,9=2,10=2,28=1/1;
 7/8=1,10=1,25=1/1,2,3,16;
 1/10=4,30=1/3;
 99//99;
 ----------------------------------------------------------------------
 TS for phenyl rotation in (NCN)PtPh[eq]Me[ax]; M06 with Custom Lanl2tz
 (f)+6-311g(d,p) basis set
 ----------------------------------------------------------------------
 Symbolic Z-matrix:
 Charge =  1 Multiplicity = 1
 Pt                   -0.07119  -0.00674  -0.2117 
 C                     1.8987    0.35772  -0.0906 
 C                     2.75862  -0.71383   0.0377 
 C                     2.32115   1.66089   0.08068 
 C                     4.0733   -0.48412   0.41563 
 C                     3.63464   1.89869   0.46247 
 C                     4.49619   0.82211   0.63875 
 H                     4.76832  -1.31119   0.53512 
 H                     3.99206   2.91393   0.6139 
 H                     5.5211    1.00477   0.94444 
 N                    -0.0981    2.18157  -0.10266 
 N                     0.69155  -2.06988  -0.03099 
 C                     0.17535  -0.01692  -2.24835 
 H                     0.67221  -0.94363  -2.53282 
 H                     0.779     0.83233  -2.56462 
 H                    -0.84109   0.03033  -2.64189 
 C                     2.16481  -2.01888  -0.3559 
 H                     2.2608   -2.13082  -1.43984 
 H                     2.66713  -2.88005   0.09411 
 C                     1.3162    2.6858   -0.30407 
 H                     1.42217   2.89364  -1.37422 
 H                     1.44751   3.64282   0.20328 
 C                    -0.95389   2.79958  -1.17128 
 C                    -1.21322   4.28363  -1.05837 
 H                    -1.89418   2.25692  -1.20478 
 H                    -0.44791   2.586    -2.11474 
 H                    -1.76214   4.5942   -1.95051 
 H                    -1.83409   4.53261  -0.19487 
 H                    -0.29494   4.87507  -1.01934 
 C                    -0.58253   2.46897   1.30458 
 C                    -0.13882   3.76053   1.96265 
 H                    -0.24276   1.66005   1.96274 
 H                    -1.67046   2.40063   1.27089 
 H                    -0.69365   3.84775   2.90025 
 H                     0.92278   3.74614   2.22154 
 H                    -0.34524   4.65438   1.374 
 C                     0.52438  -2.33881   1.43956 
 C                     0.90166  -3.71851   1.93074 
 H                    -0.52275  -2.14028   1.67984 
 H                     1.12308  -1.58036   1.95522 
 H                     0.75004  -3.73596   3.01244 
 H                     0.26897  -4.49976   1.50384 
 H                     1.94897  -3.9698    1.74913 
 C                     0.01599  -3.12088  -0.87905 
 C                     0.84985  -4.30242  -1.33477 
 H                    -0.40761  -2.61565  -1.74969 
 H                    -0.82251  -3.50122  -0.30109 
 H                     0.16922  -5.00101  -1.82778 
 H                     1.61624  -4.03573  -2.06413 
 H                     1.32472  -4.83826  -0.51128 
 C                    -2.2334   -0.39195   0.06609 
 C                    -2.74171  -1.67546   0.32196 
 C                    -3.22156   0.60721   0.10853 
 C                    -4.0811   -1.95074   0.55933 
 H                    -2.08195  -2.53031   0.35892 
 C                    -4.56728   0.35963   0.34156 
 H                    -2.97318   1.65262  -0.02874 
 C                    -5.01392  -0.9302    0.56267 
 H                    -4.39001  -2.97565   0.74681 
 H                    -5.26692   1.19114   0.35477 
 H                    -6.06463  -1.13364   0.74442 
 

 GradGradGradGradGradGradGradGradGradGradGradGradGradGradGradGradGradGrad
 Berny optimization.
 Initialization pass.
 Trust Radius=3.00D-01 FncErr=1.00D-07 GrdErr=1.00D-07 EigMax=2.50D+02 EigMin=1.00D-04
 Number of steps in this run=      2 maximum allowed number of steps=      2.
 GradGradGradGradGradGradGradGradGradGradGradGradGradGradGradGradGradGrad

 Stoichiometry    C23H35N2Pt(1+)
 Framework group  C1[X(C23H35N2Pt)]
 Deg. of freedom   177
 Full point group                 C1      NOp   1
 Largest Abelian subgroup         C1      NOp   1
 Largest concise Abelian subgroup C1      NOp   1
                         Standard orientation:                         
 ---------------------------------------------------------------------
 Center     Atomic      Atomic             Coordinates (Angstroms)
 Number     Number       Type             X           Y           Z
 ---------------------------------------------------------------------
      1         78           0       -0.071191   -0.006744   -0.211701
      2          6           0        1.898700    0.357722   -0.090601
      3          6           0        2.758617   -0.713834    0.037700
      4          6           0        2.321147    1.660887    0.080676
      5          6           0        4.073298   -0.484124    0.415631
      6          6           0        3.634643    1.898689    0.462471
      7          6           0        4.496192    0.822109    0.638751
      8          1           0        4.768324   -1.311195    0.535119
      9          1           0        3.992062    2.913927    0.613899
     10          1           0        5.521104    1.004766    0.944437
     11          7           0       -0.098095    2.181567   -0.102664
     12          7           0        0.691548   -2.069878   -0.030988
     13          6           0        0.175350   -0.016924   -2.248351
     14          1           0        0.672207   -0.943628   -2.532822
     15          1           0        0.778998    0.832334   -2.564617
     16          1           0       -0.841091    0.030326   -2.641887
     17          6           0        2.164806   -2.018885   -0.355895
     18          1           0        2.260804   -2.130817   -1.439843
     19          1           0        2.667124   -2.880052    0.094105
     20          6           0        1.316197    2.685803   -0.304070
     21          1           0        1.422172    2.893639   -1.374216
     22          1           0        1.447512    3.642819    0.203277
     23          6           0       -0.953889    2.799578   -1.171282
     24          6           0       -1.213223    4.283634   -1.058372
     25          1           0       -1.894180    2.256917   -1.204779
     26          1           0       -0.447906    2.585996   -2.114744
     27          1           0       -1.762141    4.594205   -1.950507
     28          1           0       -1.834082    4.532609   -0.194873
     29          1           0       -0.294932    4.875074   -1.019335
     30          6           0       -0.582525    2.468972    1.304578
     31          6           0       -0.138820    3.760530    1.962645
     32          1           0       -0.242760    1.660051    1.962739
     33          1           0       -1.670463    2.400634    1.270889
     34          1           0       -0.693649    3.847751    2.900250
     35          1           0        0.922779    3.746138    2.221541
     36          1           0       -0.345238    4.654382    1.374000
     37          6           0        0.524382   -2.338812    1.439555
     38          6           0        0.901659   -3.718507    1.930738
     39          1           0       -0.522750   -2.140279    1.679837
     40          1           0        1.123078   -1.580365    1.955222
     41          1           0        0.750040   -3.735962    3.012441
     42          1           0        0.268965   -4.499759    1.503835
     43          1           0        1.948971   -3.969805    1.749131
     44          6           0        0.015990   -3.120885   -0.879047
     45          6           0        0.849849   -4.302421   -1.334769
     46          1           0       -0.407607   -2.615650   -1.749688
     47          1           0       -0.822513   -3.501224   -0.301087
     48          1           0        0.169214   -5.001015   -1.827782
     49          1           0        1.616242   -4.035730   -2.064133
     50          1           0        1.324721   -4.838258   -0.511278
     51          6           0       -2.233400   -0.391944    0.066088
     52          6           0       -2.741710   -1.675455    0.321955
     53          6           0       -3.221563    0.607210    0.108526
     54          6           0       -4.081100   -1.950737    0.559330
     55          1           0       -2.081951   -2.530307    0.358921
     56          6           0       -4.567275    0.359630    0.341561
     57          1           0       -2.973176    1.652624   -0.028741
     58          6           0       -5.013923   -0.930201    0.562668
     59          1           0       -4.390015   -2.975645    0.746812
     60          1           0       -5.266920    1.191144    0.354765
     61          1           0       -6.064631   -1.133638    0.744422
 ---------------------------------------------------------------------
 Rotational constants (GHZ):           0.2190748           0.1973455           0.1230385
 General basis read from cards:  (5D, 7F)
 ======================================================================================================
                                       Pseudopotential Parameters
 ======================================================================================================
  Center     Atomic      Valence      Angular      Power
  Number     Number     Electrons     Momentum     of R      Exponent        Coefficient   SO-Coeffient
 ======================================================================================================
    1         78           18
                                      G and up 
                                                     1      728.9394056       -0.16192680    0.00000000
                                                     2      320.6567800    -1320.28738520    0.00000000
                                                     2       52.8680174     -298.31781350    0.00000000
                                                     2       12.0280128      -87.58370650    0.00000000
                                                     2        3.5238913       -8.14932740    0.00000000
                                      S - G
                                                     0      409.4437358        2.73342180    0.00000000
                                                     1      274.5419231       59.70243290    0.00000000
                                                     2      127.5658570      891.45895500    0.00000000
                                                     2       32.9036631      368.44676560    0.00000000
                                                     2        5.0593880      238.02630900    0.00000000
                                                     2        4.1506556     -107.05564540    0.00000000
                                      P - G
                                                     0      466.1728892        1.88785680    0.00000000
                                                     1      120.7888259       76.01386290    0.00000000
                                                     2       36.4118791      343.55111160    0.00000000
                                                     2        5.6985408      119.49117860    0.00000000
                                      D - G
                                                     0      249.5650763        2.93436780    0.00000000
                                                     1      126.6678585       59.33065710    0.00000000
                                                     2       63.1430586      452.44451940    0.00000000
                                                     2       17.9059470      210.47694790    0.00000000
                                                     2        4.2239373       58.62541120    0.00000000
                                      F - G
                                                     0      121.8158799        3.95342530    0.00000000
                                                     1       60.8757030       53.85551820    0.00000000
                                                     2       31.4767147      247.43051330    0.00000000
                                                     2        9.8811751      127.81879760    0.00000000
                                                     2        2.7319874       15.37720460    0.00000000
    2          6
                                   No pseudopotential on this center.
    3          6
                                   No pseudopotential on this center.
    4          6
                                   No pseudopotential on this center.
    5          6
                                   No pseudopotential on this center.
    6          6
                                   No pseudopotential on this center.
    7          6
                                   No pseudopotential on this center.
    8          1
                                   No pseudopotential on this center.
    9          1
                                   No pseudopotential on this center.
   10          1
                                   No pseudopotential on this center.
   11          7
                                   No pseudopotential on this center.
   12          7
                                   No pseudopotential on this center.
   13          6
                                   No pseudopotential on this center.
   14          1
                                   No pseudopotential on this center.
   15          1
                                   No pseudopotential on this center.
   16          1
                                   No pseudopotential on this center.
   17          6
                                   No pseudopotential on this center.
   18          1
                                   No pseudopotential on this center.
   19          1
                                   No pseudopotential on this center.
   20          6
                                   No pseudopotential on this center.
   21          1
                                   No pseudopotential on this center.
   22          1
                                   No pseudopotential on this center.
   23          6
                                   No pseudopotential on this center.
   24          6
                                   No pseudopotential on this center.
   25          1
                                   No pseudopotential on this center.
   26          1
                                   No pseudopotential on this center.
   27          1
                                   No pseudopotential on this center.
   28          1
                                   No pseudopotential on this center.
   29          1
                                   No pseudopotential on this center.
   30          6
                                   No pseudopotential on this center.
   31          6
                                   No pseudopotential on this center.
   32          1
                                   No pseudopotential on this center.
   33          1
                                   No pseudopotential on this center.
   34          1
                                   No pseudopotential on this center.
   35          1
                                   No pseudopotential on this center.
   36          1
                                   No pseudopotential on this center.
   37          6
                                   No pseudopotential on this center.
   38          6
                                   No pseudopotential on this center.
   39          1
                                   No pseudopotential on this center.
   40          1
                                   No pseudopotential on this center.
   41          1
                                   No pseudopotential on this center.
   42          1
                                   No pseudopotential on this center.
   43          1
                                   No pseudopotential on this center.
   44          6
                                   No pseudopotential on this center.
   45          6
                                   No pseudopotential on this center.
   46          1
                                   No pseudopotential on this center.
   47          1
                                   No pseudopotential on this center.
   48          1
                                   No pseudopotential on this center.
   49          1
                                   No pseudopotential on this center.
   50          1
                                   No pseudopotential on this center.
   51          6
                                   No pseudopotential on this center.
   52          6
                                   No pseudopotential on this center.
   53          6
                                   No pseudopotential on this center.
   54          6
                                   No pseudopotential on this center.
   55          1
                                   No pseudopotential on this center.
   56          6
                                   No pseudopotential on this center.
   57          1
                                   No pseudopotential on this center.
   58          6
                                   No pseudopotential on this center.
   59          1
                                   No pseudopotential on this center.
   60          1
                                   No pseudopotential on this center.
   61          1
                                   No pseudopotential on this center.
 ======================================================================================================
 There are   883 symmetry adapted cartesian basis functions of A   symmetry.
 There are   827 symmetry adapted basis functions of A   symmetry.
   827 basis functions,  1278 primitive gaussians,   883 cartesian basis functions
   102 alpha electrons      102 beta electrons
       nuclear repulsion energy      2845.6339577927 Hartrees.
 NAtoms=   61 NActive=   61 NUniq=   61 SFac= 1.00D+00 NAtFMM=   60 NAOKFM=T Big=T
 Integral buffers will be    131072 words long.
 Raffenetti 2 integral format.
 Two-electron integral symmetry is turned on.
 Nuclear repulsion after empirical dispersion term =     2845.6168214630 Hartrees.
 Force inversion solution in PCM.
 ------------------------------------------------------------------------------
 Polarizable Continuum Model (PCM)
 =================================
 Model                : PCM.
 Atomic radii         : UFF (Universal Force Field).
 Polarization charges : Total charges.
 Charge compensation  : None.
 Solution method      : Matrix inversion.
 Cavity type          : Scaled VdW (van der Waals Surface) (Alpha=1.100).
 Cavity algorithm     : GePol (No added spheres)
                        Default sphere list used, NSphG=   61.
                        Lebedev-Laikov grids with approx.  5.0 points / Ang**2.
                        Smoothing algorithm: York/Karplus (Gamma=1.0000).
                        Polarization charges: spherical gaussians, with
                                              point-specific exponents (IZeta= 3).
                        Self-potential: point-specific (ISelfS= 7).
                        Self-field    : sphere-specific E.n sum rule (ISelfD= 2).
 1st derivatives      : Analytical E(r).r(x)/FMM algorithm (CHGder, D1EAlg=3).
                        Cavity 1st derivative terms included.
 2nd derivatives      : Analytical E(r).r(xy)/FMM algorithm (CHGder, D2EAlg=3).
                        Cavity 2nd derivative terms included.
 Solvent              : TetraHydroFuran, Eps=   7.425700 Eps(inf)=   1.974025
 ------------------------------------------------------------------------------
 One-electron integrals computed using PRISM.
   1 Symmetry operations used in ECPInt.
 ECPInt:  NShTT=   46360 NPrTT=  151530 LenC2=   39596 LenP2D=   85280.
 LDataN:  DoStor=T MaxTD1= 7 Len=  274
 Number of processors reduced to  21 by ecpmxn.
 NBasis=   827 RedAO= T EigKep=  4.27D-05  NBF=   827
 NBsUse=   827 1.00D-06 EigRej= -1.00D+00 NBFU=   827
 Defaulting to unpruned grid for atomic number  78.
 ExpMin= 2.90D-02 ExpMax= 6.29D+03 ExpMxC= 9.49D+02 IAcc=3 IRadAn=         5 AccDes= 0.00D+00
 Harris functional with IExCor= 1009 and IRadAn=       5 diagonalized for initial guess.
 HarFok:  IExCor= 1009 AccDes= 0.00D+00 IRadAn=         5 IDoV= 1 UseB2=F ITyADJ=14
 ICtDFT=  3500011 ScaDFX=  1.000000  1.000000  1.000000  1.000000
 Defaulting to unpruned grid for atomic number  78.
 FoFCou: FMM=F IPFlag=           0 FMFlag=      100000 FMFlg1=        2001
         NFxFlg=           0 DoJE=T BraDBF=F KetDBF=T FulRan=T
         wScrn=  0.000000 ICntrl=       500 IOpCl=  0 I1Cent=   200000004 NGrid=           0
         NMat0=    1 NMatS0=      1 NMatT0=    0 NMatD0=    1 NMtDS0=    0 NMtDT0=    0
 Petite list used in FoFCou.
 Requested convergence on RMS density matrix=1.00D-08 within 128 cycles.
 Requested convergence on MAX density matrix=1.00D-06.
 Requested convergence on             energy=1.00D-06.
 No special actions if energy rises.
 Defaulting to unpruned grid for atomic number  78.
 Defaulting to unpruned grid for atomic number  78.
 Defaulting to unpruned grid for atomic number  78.
 Defaulting to unpruned grid for atomic number  78.
 Defaulting to unpruned grid for atomic number  78.
 Defaulting to unpruned grid for atomic number  78.
 Defaulting to unpruned grid for atomic number  78.
 Defaulting to unpruned grid for atomic number  78.
 Defaulting to unpruned grid for atomic number  78.
 Defaulting to unpruned grid for atomic number  78.
 Defaulting to unpruned grid for atomic number  78.
 Defaulting to unpruned grid for atomic number  78.
 Defaulting to unpruned grid for atomic number  78.
 Defaulting to unpruned grid for atomic number  78.
 Defaulting to unpruned grid for atomic number  78.
 Defaulting to unpruned grid for atomic number  78.
 Defaulting to unpruned grid for atomic number  78.
 Defaulting to unpruned grid for atomic number  78.
 Defaulting to unpruned grid for atomic number  78.
 Defaulting to unpruned grid for atomic number  78.
 Defaulting to unpruned grid for atomic number  78.
 Defaulting to unpruned grid for atomic number  78.
 Defaulting to unpruned grid for atomic number  78.
 Defaulting to unpruned grid for atomic number  78.
 Defaulting to unpruned grid for atomic number  78.
 Defaulting to unpruned grid for atomic number  78.
 Defaulting to unpruned grid for atomic number  78.
 Defaulting to unpruned grid for atomic number  78.
 Defaulting to unpruned grid for atomic number  78.
 Defaulting to unpruned grid for atomic number  78.
 Defaulting to unpruned grid for atomic number  78.
 Defaulting to unpruned grid for atomic number  78.
 Defaulting to unpruned grid for atomic number  78.
 Defaulting to unpruned grid for atomic number  78.
 Defaulting to unpruned grid for atomic number  78.
 Defaulting to unpruned grid for atomic number  78.
 Defaulting to unpruned grid for atomic number  78.
 Defaulting to unpruned grid for atomic number  78.
 Defaulting to unpruned grid for atomic number  78.
 Defaulting to unpruned grid for atomic number  78.
 Defaulting to unpruned grid for atomic number  78.
 Defaulting to unpruned grid for atomic number  78.
 Defaulting to unpruned grid for atomic number  78.
 Defaulting to unpruned grid for atomic number  78.
 Defaulting to unpruned grid for atomic number  78.
 Defaulting to unpruned grid for atomic number  78.
 Defaulting to unpruned grid for atomic number  78.
 Defaulting to unpruned grid for atomic number  78.
 Inv3:  Mode=1 IEnd=    38213283.
 Iteration    1 A*A^-1 deviation from unit magnitude is 3.11D-15 for   1250.
 Iteration    1 A*A^-1 deviation from orthogonality  is 2.00D-15 for   2817    488.
 Iteration    1 A^-1*A deviation from unit magnitude is 3.11D-15 for   1250.
 Iteration    1 A^-1*A deviation from orthogonality  is 2.33D-15 for   2205   1057.
 Error on total polarization charges =  0.02209
 SCF Done:  E(RM06) =  -1125.44644299     A.U. after   16 cycles
            NFock= 16  Conv=0.40D-08     -V/T= 2.0824
 DoSCS=F DFT=T ScalE2(SS,OS)=  1.000000  1.000000
 Range of M.O.s used for correlation:     1   827
 NBasis=   827 NAE=   102 NBE=   102 NFC=     0 NFV=     0
 NROrb=    827 NOA=   102 NOB=   102 NVA=   725 NVB=   725

 **** Warning!!: The largest alpha MO coefficient is  0.16645436D+02

 PrsmSu:  requested number of processors reduced to:   6 ShMem   1 Linda.
   1 Symmetry operations used in ECPInt.
 ECPInt:  NShTT=   46360 NPrTT=  151530 LenC2=   39596 LenP2D=   85280.
 LDataN:  DoStor=T MaxTD1= 8 Len=  415
 Number of processors reduced to   2 by ecpmxn.
 Symmetrizing basis deriv contribution to polar:
 IMax=3 JMax=2 DiffMx= 0.00D+00
 G2DrvN: will do     4 centers at a time, making   16 passes.
 Calling FoFCou, ICntrl=  3107 FMM=T I1Cent=   0 AccDes= 0.00D+00.
 Defaulting to unpruned grid for atomic number  78.
 Defaulting to unpruned grid for atomic number  78.
 Defaulting to unpruned grid for atomic number  78.
 Defaulting to unpruned grid for atomic number  78.
 Defaulting to unpruned grid for atomic number  78.
 Defaulting to unpruned grid for atomic number  78.
 Defaulting to unpruned grid for atomic number  78.
 Defaulting to unpruned grid for atomic number  78.
 Defaulting to unpruned grid for atomic number  78.
 Defaulting to unpruned grid for atomic number  78.
 Defaulting to unpruned grid for atomic number  78.
 Defaulting to unpruned grid for atomic number  78.
 Defaulting to unpruned grid for atomic number  78.
 Defaulting to unpruned grid for atomic number  78.
 Defaulting to unpruned grid for atomic number  78.
 Defaulting to unpruned grid for atomic number  78.
 Defaulting to unpruned grid for atomic number  78.
 Defaulting to unpruned grid for atomic number  78.
 Defaulting to unpruned grid for atomic number  78.
 Defaulting to unpruned grid for atomic number  78.
 Defaulting to unpruned grid for atomic number  78.
 Defaulting to unpruned grid for atomic number  78.
 Defaulting to unpruned grid for atomic number  78.
 Defaulting to unpruned grid for atomic number  78.
 Defaulting to unpruned grid for atomic number  78.
 Defaulting to unpruned grid for atomic number  78.
 Defaulting to unpruned grid for atomic number  78.
 Defaulting to unpruned grid for atomic number  78.
 Defaulting to unpruned grid for atomic number  78.
 Defaulting to unpruned grid for atomic number  78.
 Defaulting to unpruned grid for atomic number  78.
 Defaulting to unpruned grid for atomic number  78.
 Defaulting to unpruned grid for atomic number  78.
 Defaulting to unpruned grid for atomic number  78.
 Defaulting to unpruned grid for atomic number  78.
 Defaulting to unpruned grid for atomic number  78.
 Defaulting to unpruned grid for atomic number  78.
 Defaulting to unpruned grid for atomic number  78.
 Defaulting to unpruned grid for atomic number  78.
 Defaulting to unpruned grid for atomic number  78.
 Defaulting to unpruned grid for atomic number  78.
 Defaulting to unpruned grid for atomic number  78.
 Defaulting to unpruned grid for atomic number  78.
 Defaulting to unpruned grid for atomic number  78.
 Defaulting to unpruned grid for atomic number  78.
 Defaulting to unpruned grid for atomic number  78.
 Defaulting to unpruned grid for atomic number  78.
 Defaulting to unpruned grid for atomic number  78.
 Calling FoFCou, ICntrl=  3107 FMM=T I1Cent=   0 AccDes= 0.00D+00.
 Calling FoFCou, ICntrl=  3107 FMM=T I1Cent=   0 AccDes= 0.00D+00.
 Calling FoFCou, ICntrl=  3107 FMM=T I1Cent=   0 AccDes= 0.00D+00.
 Calling FoFCou, ICntrl=  3107 FMM=T I1Cent=   0 AccDes= 0.00D+00.
 Calling FoFCou, ICntrl=  3107 FMM=T I1Cent=   0 AccDes= 0.00D+00.
 Calling FoFCou, ICntrl=  3107 FMM=T I1Cent=   0 AccDes= 0.00D+00.
 Calling FoFCou, ICntrl=  3107 FMM=T I1Cent=   0 AccDes= 0.00D+00.
 Calling FoFCou, ICntrl=  3107 FMM=T I1Cent=   0 AccDes= 0.00D+00.
 Calling FoFCou, ICntrl=  3107 FMM=T I1Cent=   0 AccDes= 0.00D+00.
 Calling FoFCou, ICntrl=  3107 FMM=T I1Cent=   0 AccDes= 0.00D+00.
 Calling FoFCou, ICntrl=  3107 FMM=T I1Cent=   0 AccDes= 0.00D+00.
 Calling FoFCou, ICntrl=  3107 FMM=T I1Cent=   0 AccDes= 0.00D+00.
 Calling FoFCou, ICntrl=  3107 FMM=T I1Cent=   0 AccDes= 0.00D+00.
 Calling FoFCou, ICntrl=  3107 FMM=T I1Cent=   0 AccDes= 0.00D+00.
 Calling FoFCou, ICntrl=  3107 FMM=T I1Cent=   0 AccDes= 0.00D+00.
 NEqPCM:  Using equilibrium solvation (IEInf=0, Eps=   7.4257, EpsInf=   1.9740)
 G2PCM: DoFxE=T DoFxN=T DoGrad=T DoDP/DQ/DG/TGxP=FFFF NFrqRd=   0 IEInf=0 SqF1=F DoCFld=F IF1Alg=4.
 CoulSu:  requested number of processors reduced to:  47 ShMem   1 Linda.
 CoulSu:  requested number of processors reduced to:  39 ShMem   1 Linda.
 CoulSu:  requested number of processors reduced to:  45 ShMem   1 Linda.
 CoulSu:  requested number of processors reduced to:  47 ShMem   1 Linda.
 CoulSu:  requested number of processors reduced to:  40 ShMem   1 Linda.
 CoulSu:  requested number of processors reduced to:  45 ShMem   1 Linda.
 CoulSu:  requested number of processors reduced to:  47 ShMem   1 Linda.
 CoulSu:  requested number of processors reduced to:  40 ShMem   1 Linda.
 CoulSu:  requested number of processors reduced to:  45 ShMem   1 Linda.
 CoulSu:  requested number of processors reduced to:  47 ShMem   1 Linda.
 CoulSu:  requested number of processors reduced to:  40 ShMem   1 Linda.
 CoulSu:  requested number of processors reduced to:  45 ShMem   1 Linda.
 CoulSu:  requested number of processors reduced to:  47 ShMem   1 Linda.
 CoulSu:  requested number of processors reduced to:  40 ShMem   1 Linda.
 CoulSu:  requested number of processors reduced to:  45 ShMem   1 Linda.
 CoulSu:  requested number of processors reduced to:  47 ShMem   1 Linda.
 CoulSu:  requested number of processors reduced to:  39 ShMem   1 Linda.
 CoulSu:  requested number of processors reduced to:  45 ShMem   1 Linda.
 CoulSu:  requested number of processors reduced to:  47 ShMem   1 Linda.
 CoulSu:  requested number of processors reduced to:  39 ShMem   1 Linda.
 CoulSu:  requested number of processors reduced to:  45 ShMem   1 Linda.
 CoulSu:  requested number of processors reduced to:  47 ShMem   1 Linda.
 CoulSu:  requested number of processors reduced to:  40 ShMem   1 Linda.
 CoulSu:  requested number of processors reduced to:  45 ShMem   1 Linda.
 CoulSu:  requested number of processors reduced to:  47 ShMem   1 Linda.
 CoulSu:  requested number of processors reduced to:  39 ShMem   1 Linda.
 CoulSu:  requested number of processors reduced to:  45 ShMem   1 Linda.
 CoulSu:  requested number of processors reduced to:  47 ShMem   1 Linda.
 CoulSu:  requested number of processors reduced to:  40 ShMem   1 Linda.
 CoulSu:  requested number of processors reduced to:  45 ShMem   1 Linda.
 End of G2Drv F.D. properties file   721 does not exist.
 End of G2Drv F.D. properties file   722 does not exist.
 End of G2Drv F.D. properties file   788 does not exist.
          IDoAtm=11111111111111111111111111111111111111111111111111
          IDoAtm=11111111111
 NEqPCM:  Using equilibrium solvation (IEInf=0, Eps=   7.4257, EpsInf=   1.9740)
          Differentiating once with respect to electric field.
                with respect to dipole field.
          Differentiating once with respect to nuclear coordinates.
 Defaulting to unpruned grid for atomic number  78.
 CalDSu exits because no D1Ps are significant.
 Defaulting to unpruned grid for atomic number  78.
 Defaulting to unpruned grid for atomic number  78.
 Defaulting to unpruned grid for atomic number  78.
 Defaulting to unpruned grid for atomic number  78.
 Defaulting to unpruned grid for atomic number  78.
 Defaulting to unpruned grid for atomic number  78.
 Defaulting to unpruned grid for atomic number  78.
 Defaulting to unpruned grid for atomic number  78.
 Defaulting to unpruned grid for atomic number  78.
 Defaulting to unpruned grid for atomic number  78.
 Defaulting to unpruned grid for atomic number  78.
 Defaulting to unpruned grid for atomic number  78.
 Defaulting to unpruned grid for atomic number  78.
 Defaulting to unpruned grid for atomic number  78.
 Defaulting to unpruned grid for atomic number  78.
 Defaulting to unpruned grid for atomic number  78.
 Defaulting to unpruned grid for atomic number  78.
 Defaulting to unpruned grid for atomic number  78.
 Defaulting to unpruned grid for atomic number  78.
 Defaulting to unpruned grid for atomic number  78.
 Defaulting to unpruned grid for atomic number  78.
 Defaulting to unpruned grid for atomic number  78.
 Defaulting to unpruned grid for atomic number  78.
 Defaulting to unpruned grid for atomic number  78.
 Defaulting to unpruned grid for atomic number  78.
 Defaulting to unpruned grid for atomic number  78.
 Defaulting to unpruned grid for atomic number  78.
 Defaulting to unpruned grid for atomic number  78.
 Defaulting to unpruned grid for atomic number  78.
 Defaulting to unpruned grid for atomic number  78.
 Defaulting to unpruned grid for atomic number  78.
 Defaulting to unpruned grid for atomic number  78.
 Defaulting to unpruned grid for atomic number  78.
 Defaulting to unpruned grid for atomic number  78.
 Defaulting to unpruned grid for atomic number  78.
 Defaulting to unpruned grid for atomic number  78.
 Defaulting to unpruned grid for atomic number  78.
 Defaulting to unpruned grid for atomic number  78.
 Defaulting to unpruned grid for atomic number  78.
 Defaulting to unpruned grid for atomic number  78.
 Defaulting to unpruned grid for atomic number  78.
 Defaulting to unpruned grid for atomic number  78.
 Defaulting to unpruned grid for atomic number  78.
 Defaulting to unpruned grid for atomic number  78.
 Defaulting to unpruned grid for atomic number  78.
 Defaulting to unpruned grid for atomic number  78.
 Defaulting to unpruned grid for atomic number  78.
 Defaulting to unpruned grid for atomic number  78.
          There are   186 degrees of freedom in the 1st order CPHF.  IDoFFX=6 NUNeed=     3.
    185 vectors produced by pass  0 Test12= 7.40D-14 1.00D-09 XBig12= 4.36D+02 8.47D+00.
 AX will form     9 AO Fock derivatives at one time.
    183 vectors produced by pass  1 Test12= 7.40D-14 1.00D-09 XBig12= 5.92D+01 8.69D-01.
    183 vectors produced by pass  2 Test12= 7.40D-14 1.00D-09 XBig12= 6.72D-01 8.11D-02.
    183 vectors produced by pass  3 Test12= 7.40D-14 1.00D-09 XBig12= 7.97D-03 9.57D-03.
    183 vectors produced by pass  4 Test12= 7.40D-14 1.00D-09 XBig12= 4.01D-05 3.51D-04.
    183 vectors produced by pass  5 Test12= 7.40D-14 1.00D-09 XBig12= 1.54D-07 2.80D-05.
     87 vectors produced by pass  6 Test12= 7.40D-14 1.00D-09 XBig12= 4.21D-10 1.90D-06.
      8 vectors produced by pass  7 Test12= 7.40D-14 1.00D-09 XBig12= 8.74D-13 6.94D-08.
      3 vectors produced by pass  8 Test12= 7.40D-14 1.00D-09 XBig12= 1.84D-15 3.13D-09.
 InvSVY:  IOpt=1 It=  1 EMax= 2.13D-14
 Solved reduced A of dimension  1198 with   186 vectors.
 Isotropic polarizability for W=    0.000000      428.99 Bohr**3.
 End of Minotr F.D. properties file   721 does not exist.
 End of Minotr F.D. properties file   722 does not exist.
 End of Minotr F.D. properties file   788 does not exist.

 **********************************************************************

            Population analysis using the SCF Density.

 **********************************************************************

 Orbital symmetries:
       Occupied  (A) (A) (A) (A) (A) (A) (A) (A) (A) (A) (A) (A)
                 (A) (A) (A) (A) (A) (A) (A) (A) (A) (A) (A) (A)
                 (A) (A) (A) (A) (A) (A) (A) (A) (A) (A) (A) (A)
                 (A) (A) (A) (A) (A) (A) (A) (A) (A) (A) (A) (A)
                 (A) (A) (A) (A) (A) (A) (A) (A) (A) (A) (A) (A)
                 (A) (A) (A) (A) (A) (A) (A) (A) (A) (A) (A) (A)
                 (A) (A) (A) (A) (A) (A) (A) (A) (A) (A) (A) (A)
                 (A) (A) (A) (A) (A) (A) (A) (A) (A) (A) (A) (A)
                 (A) (A) (A) (A) (A) (A)
       Virtual   (A) (A) (A) (A) (A) (A) (A) (A) (A) (A) (A) (A)
                 (A) (A) (A) (A) (A) (A) (A) (A) (A) (A) (A) (A)
                 (A) (A) (A) (A) (A) (A) (A) (A) (A) (A) (A) (A)
                 (A) (A) (A) (A) (A) (A) (A) (A) (A) (A) (A) (A)
                 (A) (A) (A) (A) (A) (A) (A) (A) (A) (A) (A) (A)
                 (A) (A) (A) (A) (A) (A) (A) (A) (A) (A) (A) (A)
                 (A) (A) (A) (A) (A) (A) (A) (A) (A) (A) (A) (A)
                 (A) (A) (A) (A) (A) (A) (A) (A) (A) (A) (A) (A)
                 (A) (A) (A) (A) (A) (A) (A) (A) (A) (A) (A) (A)
                 (A) (A) (A) (A) (A) (A) (A) (A) (A) (A) (A) (A)
                 (A) (A) (A) (A) (A) (A) (A) (A) (A) (A) (A) (A)
                 (A) (A) (A) (A) (A) (A) (A) (A) (A) (A) (A) (A)
                 (A) (A) (A) (A) (A) (A) (A) (A) (A) (A) (A) (A)
                 (A) (A) (A) (A) (A) (A) (A) (A) (A) (A) (A) (A)
                 (A) (A) (A) (A) (A) (A) (A) (A) (A) (A) (A) (A)
                 (A) (A) (A) (A) (A) (A) (A) (A) (A) (A) (A) (A)
                 (A) (A) (A) (A) (A) (A) (A) (A) (A) (A) (A) (A)
                 (A) (A) (A) (A) (A) (A) (A) (A) (A) (A) (A) (A)
                 (A) (A) (A) (A) (A) (A) (A) (A) (A) (A) (A) (A)
                 (A) (A) (A) (A) (A) (A) (A) (A) (A) (A) (A) (A)
                 (A) (A) (A) (A) (A) (A) (A) (A) (A) (A) (A) (A)
                 (A) (A) (A) (A) (A) (A) (A) (A) (A) (A) (A) (A)
                 (A) (A) (A) (A) (A) (A) (A) (A) (A) (A) (A) (A)
                 (A) (A) (A) (A) (A) (A) (A) (A) (A) (A) (A) (A)
                 (A) (A) (A) (A) (A) (A) (A) (A) (A) (A) (A) (A)
                 (A) (A) (A) (A) (A) (A) (A) (A) (A) (A) (A) (A)
                 (A) (A) (A) (A) (A) (A) (A) (A) (A) (A) (A) (A)
                 (A) (A) (A) (A) (A) (A) (A) (A) (A) (A) (A) (A)
                 (A) (A) (A) (A) (A) (A) (A) (A) (A) (A) (A) (A)
                 (A) (A) (A) (A) (A) (A) (A) (A) (A) (A) (A) (A)
                 (A) (A) (A) (A) (A) (A) (A) (A) (A) (A) (A) (A)
                 (A) (A) (A) (A) (A) (A) (A) (A) (A) (A) (A) (A)
                 (A) (A) (A) (A) (A) (A) (A) (A) (A) (A) (A) (A)
                 (A) (A) (A) (A) (A) (A) (A) (A) (A) (A) (A) (A)
                 (A) (A) (A) (A) (A) (A) (A) (A) (A) (A) (A) (A)
                 (A) (A) (A) (A) (A) (A) (A) (A) (A) (A) (A) (A)
                 (A) (A) (A) (A) (A) (A) (A) (A) (A) (A) (A) (A)
                 (A) (A) (A) (A) (A) (A) (A) (A) (A) (A) (A) (A)
                 (A) (A) (A) (A) (A) (A) (A) (A) (A) (A) (A) (A)
                 (A) (A) (A) (A) (A) (A) (A) (A) (A) (A) (A) (A)
                 (A) (A) (A) (A) (A) (A) (A) (A) (A) (A) (A) (A)
                 (A) (A) (A) (A) (A) (A) (A) (A) (A) (A) (A) (A)
                 (A) (A) (A) (A) (A) (A) (A) (A) (A) (A) (A) (A)
                 (A) (A) (A) (A) (A) (A) (A) (A) (A) (A) (A) (A)
                 (A) (A) (A) (A) (A) (A) (A) (A) (A) (A) (A) (A)
                 (A) (A) (A) (A) (A) (A) (A) (A) (A) (A) (A) (A)
                 (A) (A) (A) (A) (A) (A) (A) (A) (A) (A) (A) (A)
                 (A) (A) (A) (A) (A) (A) (A) (A) (A) (A) (A) (A)
                 (A) (A) (A) (A) (A) (A) (A) (A) (A) (A) (A) (A)
                 (A) (A) (A) (A) (A) (A) (A) (A) (A) (A) (A) (A)
                 (A) (A) (A) (A) (A) (A) (A) (A) (A) (A) (A) (A)
                 (A) (A) (A) (A) (A) (A) (A) (A) (A) (A) (A) (A)
                 (A) (A) (A) (A) (A) (A) (A) (A) (A) (A) (A) (A)
                 (A) (A) (A) (A) (A) (A) (A) (A) (A) (A) (A) (A)
                 (A) (A) (A) (A) (A) (A) (A) (A) (A) (A) (A) (A)
                 (A) (A) (A) (A) (A) (A) (A) (A) (A) (A) (A) (A)
                 (A) (A) (A) (A) (A) (A) (A) (A) (A) (A) (A) (A)
                 (A) (A) (A) (A) (A) (A) (A) (A) (A) (A) (A) (A)
                 (A) (A) (A) (A) (A) (A) (A) (A) (A) (A) (A) (A)
                 (A) (A) (A) (A) (A) (A) (A) (A) (A) (A) (A) (A)
                 (A) (A) (A) (A) (A)
 The electronic state is 1-A.
 Alpha  occ. eigenvalues --  -14.50007 -14.49779 -10.30827 -10.30788 -10.30711
 Alpha  occ. eigenvalues --  -10.30450 -10.30327 -10.30126 -10.29404 -10.26958
 Alpha  occ. eigenvalues --  -10.26867 -10.26096 -10.26089 -10.25836 -10.25551
 Alpha  occ. eigenvalues --  -10.25541 -10.25519 -10.25415 -10.25390 -10.24120
 Alpha  occ. eigenvalues --  -10.24079 -10.24029 -10.23988 -10.23857 -10.23476
 Alpha  occ. eigenvalues --   -3.99024  -2.21939  -2.21760  -2.20956  -1.00800
 Alpha  occ. eigenvalues --   -1.00399  -0.90502  -0.87222  -0.83430  -0.81685
 Alpha  occ. eigenvalues --   -0.81563  -0.81132  -0.77927  -0.77552  -0.76298
 Alpha  occ. eigenvalues --   -0.75855  -0.74273  -0.73324  -0.72777  -0.68146
 Alpha  occ. eigenvalues --   -0.67925  -0.64719  -0.64384  -0.61815  -0.61296
 Alpha  occ. eigenvalues --   -0.61224  -0.60723  -0.56465  -0.55897  -0.55006
 Alpha  occ. eigenvalues --   -0.54319  -0.53949  -0.52987  -0.51565  -0.51180
 Alpha  occ. eigenvalues --   -0.50159  -0.48278  -0.47643  -0.47352  -0.46886
 Alpha  occ. eigenvalues --   -0.46677  -0.46537  -0.46491  -0.46264  -0.46040
 Alpha  occ. eigenvalues --   -0.45146  -0.44754  -0.44353  -0.44192  -0.43814
 Alpha  occ. eigenvalues --   -0.43591  -0.43109  -0.43040  -0.42314  -0.41923
 Alpha  occ. eigenvalues --   -0.40861  -0.40724  -0.40636  -0.39997  -0.39365
 Alpha  occ. eigenvalues --   -0.38964  -0.38606  -0.38519  -0.38202  -0.37905
 Alpha  occ. eigenvalues --   -0.37660  -0.36641  -0.35909  -0.34825  -0.34755
 Alpha  occ. eigenvalues --   -0.33657  -0.31032  -0.28409  -0.28116  -0.27208
 Alpha  occ. eigenvalues --   -0.26516  -0.25641
 Alpha virt. eigenvalues --   -0.11751  -0.07807  -0.03456  -0.02916  -0.01938
 Alpha virt. eigenvalues --   -0.01368  -0.00933  -0.00380   0.00320   0.01230
 Alpha virt. eigenvalues --    0.03770   0.03981   0.04226   0.04498   0.04772
 Alpha virt. eigenvalues --    0.05728   0.06059   0.06359   0.06406   0.06822
 Alpha virt. eigenvalues --    0.06885   0.07679   0.07875   0.08252   0.08721
 Alpha virt. eigenvalues --    0.09068   0.09722   0.10024   0.10072   0.10348
 Alpha virt. eigenvalues --    0.10683   0.11224   0.11684   0.11739   0.12178
 Alpha virt. eigenvalues --    0.12250   0.12441   0.12951   0.13204   0.13680
 Alpha virt. eigenvalues --    0.13815   0.14158   0.14675   0.14717   0.14907
 Alpha virt. eigenvalues --    0.15644   0.15958   0.16393   0.17030   0.17657
 Alpha virt. eigenvalues --    0.18240   0.18483   0.19577   0.20335   0.20842
 Alpha virt. eigenvalues --    0.21231   0.21679   0.22730   0.22847   0.23216
 Alpha virt. eigenvalues --    0.24189   0.24335   0.24583   0.25257   0.25682
 Alpha virt. eigenvalues --    0.26704   0.26834   0.27417   0.27942   0.28040
 Alpha virt. eigenvalues --    0.28377   0.29044   0.29159   0.30236   0.30406
 Alpha virt. eigenvalues --    0.30786   0.31036   0.31607   0.32062   0.32404
 Alpha virt. eigenvalues --    0.32872   0.33125   0.33948   0.34137   0.34560
 Alpha virt. eigenvalues --    0.35426   0.35663   0.36778   0.37026   0.37222
 Alpha virt. eigenvalues --    0.37579   0.37803   0.38116   0.38412   0.38668
 Alpha virt. eigenvalues --    0.39071   0.39812   0.39954   0.40569   0.40727
 Alpha virt. eigenvalues --    0.41267   0.42018   0.42219   0.42710   0.42949
 Alpha virt. eigenvalues --    0.43412   0.43738   0.44052   0.44668   0.45243
 Alpha virt. eigenvalues --    0.45418   0.45797   0.46277   0.46480   0.46872
 Alpha virt. eigenvalues --    0.47113   0.47384   0.47694   0.48736   0.49064
 Alpha virt. eigenvalues --    0.49347   0.49444   0.49627   0.50376   0.50969
 Alpha virt. eigenvalues --    0.51237   0.51378   0.51698   0.52055   0.52277
 Alpha virt. eigenvalues --    0.52490   0.52918   0.53040   0.53554   0.53637
 Alpha virt. eigenvalues --    0.53960   0.54105   0.54184   0.54460   0.54809
 Alpha virt. eigenvalues --    0.55139   0.55442   0.55633   0.56017   0.56085
 Alpha virt. eigenvalues --    0.56506   0.57056   0.57182   0.57640   0.57749
 Alpha virt. eigenvalues --    0.58104   0.58791   0.58896   0.59231   0.59636
 Alpha virt. eigenvalues --    0.60241   0.60495   0.61438   0.61840   0.62067
 Alpha virt. eigenvalues --    0.62839   0.63026   0.63195   0.63735   0.64065
 Alpha virt. eigenvalues --    0.64435   0.64891   0.65717   0.65933   0.66591
 Alpha virt. eigenvalues --    0.67062   0.67384   0.67632   0.67949   0.68227
 Alpha virt. eigenvalues --    0.68573   0.69245   0.69302   0.70215   0.70367
 Alpha virt. eigenvalues --    0.70615   0.70993   0.71939   0.71993   0.72714
 Alpha virt. eigenvalues --    0.72939   0.73559   0.74314   0.74912   0.75408
 Alpha virt. eigenvalues --    0.76035   0.76560   0.77392   0.77648   0.78606
 Alpha virt. eigenvalues --    0.78905   0.79320   0.80071   0.80393   0.80889
 Alpha virt. eigenvalues --    0.81496   0.81739   0.82748   0.83153   0.83674
 Alpha virt. eigenvalues --    0.83983   0.85173   0.85635   0.86436   0.87271
 Alpha virt. eigenvalues --    0.87283   0.87728   0.88076   0.88474   0.89890
 Alpha virt. eigenvalues --    0.90131   0.90493   0.91682   0.92139   0.93368
 Alpha virt. eigenvalues --    0.93814   0.94030   0.94283   0.94922   0.95377
 Alpha virt. eigenvalues --    0.96843   0.97316   0.97913   0.98304   0.99028
 Alpha virt. eigenvalues --    0.99431   1.00205   1.00379   1.01082   1.02055
 Alpha virt. eigenvalues --    1.02699   1.03158   1.03669   1.04455   1.05032
 Alpha virt. eigenvalues --    1.05593   1.06168   1.06684   1.07176   1.08035
 Alpha virt. eigenvalues --    1.08447   1.09179   1.09452   1.09921   1.10935
 Alpha virt. eigenvalues --    1.11009   1.11275   1.12176   1.12803   1.12923
 Alpha virt. eigenvalues --    1.13339   1.14664   1.15236   1.16323   1.16534
 Alpha virt. eigenvalues --    1.16925   1.17923   1.18345   1.18660   1.19146
 Alpha virt. eigenvalues --    1.19798   1.19970   1.20401   1.20889   1.21745
 Alpha virt. eigenvalues --    1.21892   1.22566   1.23181   1.23737   1.23890
 Alpha virt. eigenvalues --    1.24183   1.24768   1.25434   1.25763   1.26433
 Alpha virt. eigenvalues --    1.26768   1.27311   1.28072   1.28534   1.29495
 Alpha virt. eigenvalues --    1.29707   1.30553   1.30826   1.32145   1.32367
 Alpha virt. eigenvalues --    1.32832   1.33878   1.34168   1.34409   1.35355
 Alpha virt. eigenvalues --    1.35577   1.36541   1.36946   1.38045   1.38205
 Alpha virt. eigenvalues --    1.39601   1.40323   1.40389   1.40773   1.42408
 Alpha virt. eigenvalues --    1.42910   1.43757   1.44188   1.45038   1.46346
 Alpha virt. eigenvalues --    1.46976   1.47495   1.47953   1.48627   1.49028
 Alpha virt. eigenvalues --    1.49865   1.51256   1.52510   1.52645   1.53230
 Alpha virt. eigenvalues --    1.53471   1.53883   1.54508   1.56634   1.57386
 Alpha virt. eigenvalues --    1.57950   1.58596   1.59092   1.59645   1.60977
 Alpha virt. eigenvalues --    1.61405   1.61918   1.63246   1.64514   1.65771
 Alpha virt. eigenvalues --    1.66104   1.66580   1.67147   1.67791   1.69035
 Alpha virt. eigenvalues --    1.69416   1.70209   1.70350   1.71357   1.71665
 Alpha virt. eigenvalues --    1.72542   1.72778   1.73156   1.73752   1.74394
 Alpha virt. eigenvalues --    1.75267   1.75683   1.76299   1.77209   1.77316
 Alpha virt. eigenvalues --    1.78466   1.79860   1.81251   1.82037   1.83244
 Alpha virt. eigenvalues --    1.83571   1.84629   1.85682   1.87100   1.87300
 Alpha virt. eigenvalues --    1.87661   1.88339   1.89357   1.90703   1.91756
 Alpha virt. eigenvalues --    1.93173   1.94171   1.95725   1.96075   1.97035
 Alpha virt. eigenvalues --    1.98570   1.99696   2.00386   2.00956   2.02437
 Alpha virt. eigenvalues --    2.02831   2.03590   2.03929   2.04873   2.05645
 Alpha virt. eigenvalues --    2.06299   2.06812   2.08394   2.08993   2.09404
 Alpha virt. eigenvalues --    2.09744   2.10219   2.10996   2.11921   2.12174
 Alpha virt. eigenvalues --    2.12591   2.12746   2.13673   2.14626   2.15015
 Alpha virt. eigenvalues --    2.15535   2.15786   2.16130   2.16915   2.17456
 Alpha virt. eigenvalues --    2.17790   2.18242   2.18731   2.19766   2.20307
 Alpha virt. eigenvalues --    2.20970   2.21740   2.22432   2.22490   2.23024
 Alpha virt. eigenvalues --    2.23785   2.25064   2.25708   2.26452   2.27680
 Alpha virt. eigenvalues --    2.28473   2.29291   2.29843   2.30864   2.31414
 Alpha virt. eigenvalues --    2.32753   2.33898   2.35194   2.35804   2.36925
 Alpha virt. eigenvalues --    2.38061   2.38513   2.39184   2.39726   2.40844
 Alpha virt. eigenvalues --    2.41190   2.41784   2.42181   2.42623   2.43415
 Alpha virt. eigenvalues --    2.44443   2.44745   2.46194   2.46267   2.47459
 Alpha virt. eigenvalues --    2.48434   2.49343   2.50412   2.51289   2.52882
 Alpha virt. eigenvalues --    2.53560   2.54180   2.54761   2.54859   2.55565
 Alpha virt. eigenvalues --    2.56305   2.57384   2.57750   2.58193   2.58483
 Alpha virt. eigenvalues --    2.59489   2.59737   2.60621   2.61124   2.61573
 Alpha virt. eigenvalues --    2.62026   2.62281   2.62860   2.63602   2.63903
 Alpha virt. eigenvalues --    2.64424   2.67233   2.67623   2.68130   2.69404
 Alpha virt. eigenvalues --    2.70344   2.71447   2.71717   2.72343   2.73643
 Alpha virt. eigenvalues --    2.75370   2.75623   2.76381   2.77304   2.78510
 Alpha virt. eigenvalues --    2.78742   2.79837   2.80115   2.81167   2.81831
 Alpha virt. eigenvalues --    2.82028   2.82860   2.83118   2.85461   2.85763
 Alpha virt. eigenvalues --    2.86576   2.88251   2.88927   2.89158   2.91304
 Alpha virt. eigenvalues --    2.92260   2.95035   2.96547   2.99161   3.00489
 Alpha virt. eigenvalues --    3.01784   3.01980   3.05850   3.06823   3.07948
 Alpha virt. eigenvalues --    3.08174   3.08894   3.09320   3.10881   3.11609
 Alpha virt. eigenvalues --    3.11917   3.13284   3.13858   3.14189   3.14577
 Alpha virt. eigenvalues --    3.15122   3.15862   3.17037   3.17915   3.18388
 Alpha virt. eigenvalues --    3.19204   3.20061   3.20685   3.21038   3.21718
 Alpha virt. eigenvalues --    3.21918   3.22403   3.22838   3.23492   3.24473
 Alpha virt. eigenvalues --    3.24809   3.25790   3.26338   3.27858   3.28302
 Alpha virt. eigenvalues --    3.28650   3.29739   3.30059   3.30452   3.31021
 Alpha virt. eigenvalues --    3.32185   3.32491   3.33340   3.34317   3.35013
 Alpha virt. eigenvalues --    3.35307   3.36230   3.36783   3.37415   3.37707
 Alpha virt. eigenvalues --    3.38766   3.39252   3.39517   3.39619   3.40600
 Alpha virt. eigenvalues --    3.41053   3.41764   3.42285   3.42600   3.43088
 Alpha virt. eigenvalues --    3.44034   3.44155   3.44849   3.45844   3.46326
 Alpha virt. eigenvalues --    3.47415   3.47626   3.47988   3.48819   3.49024
 Alpha virt. eigenvalues --    3.49577   3.50105   3.50825   3.51221   3.51951
 Alpha virt. eigenvalues --    3.52480   3.52714   3.53570   3.54632   3.54894
 Alpha virt. eigenvalues --    3.55453   3.56155   3.56409   3.56925   3.57265
 Alpha virt. eigenvalues --    3.57707   3.58219   3.58895   3.59281   3.59751
 Alpha virt. eigenvalues --    3.60795   3.61518   3.62147   3.63149   3.63519
 Alpha virt. eigenvalues --    3.63992   3.64513   3.65248   3.66208   3.66407
 Alpha virt. eigenvalues --    3.67262   3.67769   3.69494   3.69912   3.70833
 Alpha virt. eigenvalues --    3.71194   3.71581   3.71810   3.73136   3.74930
 Alpha virt. eigenvalues --    3.75755   3.76458   3.77343   3.78061   3.78405
 Alpha virt. eigenvalues --    3.79414   3.79762   3.80326   3.81360   3.83093
 Alpha virt. eigenvalues --    3.84136   3.84610   3.86026   3.86777   3.87150
 Alpha virt. eigenvalues --    3.88001   3.88502   3.89498   3.90354   3.92113
 Alpha virt. eigenvalues --    3.93673   3.94743   3.95032   3.96140   3.97348
 Alpha virt. eigenvalues --    3.99572   4.01336   4.04432   4.06850   4.07692
 Alpha virt. eigenvalues --    4.08523   4.10264   4.10594   4.11056   4.11734
 Alpha virt. eigenvalues --    4.12602   4.12701   4.13506   4.13910   4.14830
 Alpha virt. eigenvalues --    4.16244   4.16583   4.17509   4.18198   4.19952
 Alpha virt. eigenvalues --    4.21452   4.22701   4.25578   4.31147   4.39477
 Alpha virt. eigenvalues --    4.40016   4.41127   4.42335   4.46836   4.47929
 Alpha virt. eigenvalues --    4.50010   4.51467   4.54827   4.56575   4.62514
 Alpha virt. eigenvalues --    4.68573   4.77056   4.78084   4.79367   4.80894
 Alpha virt. eigenvalues --    4.81105   4.81911   4.87490   4.94619   5.24580
 Alpha virt. eigenvalues --    5.27432   5.28022   5.28804   5.30884   5.34990
 Alpha virt. eigenvalues --    5.37932   5.40529   5.45072   5.46403   5.51010
 Alpha virt. eigenvalues --    5.56391  13.37850  13.56553  13.61032  23.56515
 Alpha virt. eigenvalues --   23.60183  23.81718  23.82294  23.90539  23.91297
 Alpha virt. eigenvalues --   23.92108  23.93474  23.94756  23.96610  23.96920
 Alpha virt. eigenvalues --   23.97218  23.97976  23.98938  24.00003  24.00535
 Alpha virt. eigenvalues --   24.02311  24.04742  24.06184  24.10846  24.12038
 Alpha virt. eigenvalues --   24.15243  24.27148  35.47954  35.50100  39.02135
          Condensed to atoms (all electrons):
 Mulliken charges:
               1
     1  Pt   1.154315
     2  C   -0.384471
     3  C    0.081747
     4  C    0.063066
     5  C   -0.155646
     6  C   -0.156911
     7  C   -0.065797
     8  H    0.087760
     9  H    0.089980
    10  H    0.085497
    11  N   -0.620928
    12  N   -0.621735
    13  C   -0.459049
    14  H    0.139080
    15  H    0.147128
    16  H    0.188485
    17  C   -0.049521
    18  H    0.163328
    19  H    0.147271
    20  C   -0.043948
    21  H    0.160625
    22  H    0.154218
    23  C   -0.082888
    24  C   -0.291268
    25  H    0.157776
    26  H    0.146279
    27  H    0.140203
    28  H    0.124602
    29  H    0.123674
    30  C   -0.061454
    31  C   -0.305828
    32  H    0.172479
    33  H    0.148913
    34  H    0.140030
    35  H    0.126402
    36  H    0.122710
    37  C   -0.090043
    38  C   -0.292840
    39  H    0.165904
    40  H    0.163428
    41  H    0.143071
    42  H    0.124886
    43  H    0.122239
    44  C   -0.082840
    45  C   -0.286013
    46  H    0.165489
    47  H    0.151278
    48  H    0.140456
    49  H    0.120622
    50  H    0.120339
    51  C   -0.188117
    52  C   -0.100459
    53  C   -0.124172
    54  C   -0.134262
    55  H    0.039412
    56  C   -0.130421
    57  H    0.048491
    58  C   -0.053198
    59  H    0.068822
    60  H    0.069833
    61  H    0.071973
 Sum of Mulliken charges =   1.00000
 Mulliken charges with hydrogens summed into heavy atoms:
               1
     1  Pt   1.154315
     2  C   -0.384471
     3  C    0.081747
     4  C    0.063066
     5  C   -0.067885
     6  C   -0.066931
     7  C    0.019700
    11  N   -0.620928
    12  N   -0.621735
    13  C    0.015644
    17  C    0.261078
    20  C    0.270894
    23  C    0.221167
    24  C    0.097211
    30  C    0.259938
    31  C    0.083315
    37  C    0.239288
    38  C    0.097356
    44  C    0.233926
    45  C    0.095403
    51  C   -0.188117
    52  C   -0.061048
    53  C   -0.075681
    54  C   -0.065440
    56  C   -0.060588
    58  C    0.018775
 APT charges:
               1
     1  Pt   1.153433
     2  C   -0.101589
     3  C   -0.082463
     4  C   -0.085984
     5  C   -0.038148
     6  C   -0.032849
     7  C   -0.069497
     8  H    0.015317
     9  H    0.011638
    10  H    0.025426
    11  N   -0.546219
    12  N   -0.549365
    13  C    0.300707
    14  H   -0.022784
    15  H   -0.016992
    16  H   -0.021387
    17  C    0.254373
    18  H    0.007124
    19  H    0.007816
    20  C    0.252549
    21  H   -0.003267
    22  H    0.017175
    23  C    0.295631
    24  C    0.002001
    25  H    0.033408
    26  H   -0.010857
    27  H   -0.006057
    28  H    0.004673
    29  H    0.009247
    30  C    0.249821
    31  C   -0.001276
    32  H    0.005645
    33  H    0.021236
    34  H    0.008259
    35  H    0.001048
    36  H    0.010046
    37  C    0.217436
    38  C    0.016092
    39  H    0.015752
    40  H    0.003051
    41  H    0.001383
    42  H    0.003170
    43  H   -0.000312
    44  C    0.301178
    45  C   -0.010679
    46  H    0.001120
    47  H    0.012472
    48  H    0.001581
    49  H    0.001538
    50  H    0.012491
    51  C   -0.267711
    52  C   -0.143198
    53  C   -0.139724
    54  C   -0.029697
    55  H    0.018881
    56  C   -0.035161
    57  H    0.007505
    58  C   -0.083470
    59  H   -0.006104
    60  H   -0.005508
    61  H    0.010075
 Sum of APT charges =   1.00000
 APT charges with hydrogens summed into heavy atoms:
               1
     1  Pt   1.153433
     2  C   -0.101589
     3  C   -0.082463
     4  C   -0.085984
     5  C   -0.022831
     6  C   -0.021211
     7  C   -0.044071
    11  N   -0.546219
    12  N   -0.549365
    13  C    0.239544
    17  C    0.269314
    20  C    0.266457
    23  C    0.318182
    24  C    0.009864
    30  C    0.276701
    31  C    0.018077
    37  C    0.236239
    38  C    0.020333
    44  C    0.314770
    45  C    0.004931
    51  C   -0.267711
    52  C   -0.124317
    53  C   -0.132219
    54  C   -0.035801
    56  C   -0.040669
    58  C   -0.073395
 Electronic spatial extent (au):  <R**2>=           9472.9832
 Charge=              1.0000 electrons
 Dipole moment (field-independent basis, Debye):
    X=              4.2254    Y=              0.8130    Z=             -0.4453  Tot=              4.3259
 Quadrupole moment (field-independent basis, Debye-Ang):
   XX=           -160.8654   YY=           -119.5895   ZZ=           -163.9676
   XY=             -8.0367   XZ=              0.8248   YZ=             -0.6908
 Traceless Quadrupole moment (field-independent basis, Debye-Ang):
   XX=            -12.7246   YY=             28.5513   ZZ=            -15.8267
   XY=             -8.0367   XZ=              0.8248   YZ=             -0.6908
 Octapole moment (field-independent basis, Debye-Ang**2):
  XXX=             36.9926  YYY=              5.1996  ZZZ=            -36.8387  XYY=             11.9875
  XXY=              3.8050  XXZ=             10.1021  XZZ=              6.2738  YZZ=              1.9857
  YYZ=             -8.3486  XYZ=              6.1431
 Hexadecapole moment (field-independent basis, Debye-Ang**3):
 XXXX=          -5523.4775 YYYY=          -4933.9552 ZZZZ=          -1220.9576 XXXY=            -11.7075
 XXXZ=             30.7036 YYYX=            -48.8337 YYYZ=              3.6643 ZZZX=              6.2710
 ZZZY=             -5.2928 XXYY=          -1777.2806 XXZZ=          -1295.3913 YYZZ=          -1033.7925
 XXYZ=             -7.2993 YYXZ=             11.7459 ZZXY=            -43.6180
 N-N= 2.845616821463D+03 E-N=-8.245102056979D+03  KE= 1.039728953057D+03
  Exact polarizability:     530.883      10.883     466.749       6.495      -1.088     289.331
 Approx polarizability:     571.505       6.490     530.246       5.233      -3.089     371.409
   1 Symmetry operations used in ECPInt.
 ECPInt:  NShTT=   46360 NPrTT=  151530 LenC2=   39596 LenP2D=   85280.
 LDataN:  DoStor=T MaxTD1= 9 Len=  602
 Number of processors reduced to  25 by ecpmxn.
 D2PCM: PCM CHGder 2nd derivatives, FixD1E=F FixD2E=F DoIter=F DoCFld=F I1PDM=0
 Calling FoFJK, ICntrl=    100127 FMM=F ISym2X=0 I1Cent= 0 IOpClX= 0 NMat=1 NMatS=1 NMatT=0.
 Defaulting to unpruned grid for atomic number  78.
 Defaulting to unpruned grid for atomic number  78.
 Defaulting to unpruned grid for atomic number  78.
 Defaulting to unpruned grid for atomic number  78.
 Defaulting to unpruned grid for atomic number  78.
 Defaulting to unpruned grid for atomic number  78.
 Defaulting to unpruned grid for atomic number  78.
 Defaulting to unpruned grid for atomic number  78.
 Defaulting to unpruned grid for atomic number  78.
 Defaulting to unpruned grid for atomic number  78.
 Defaulting to unpruned grid for atomic number  78.
 Defaulting to unpruned grid for atomic number  78.
 Defaulting to unpruned grid for atomic number  78.
 Defaulting to unpruned grid for atomic number  78.
 Defaulting to unpruned grid for atomic number  78.
 Defaulting to unpruned grid for atomic number  78.
 Defaulting to unpruned grid for atomic number  78.
 Defaulting to unpruned grid for atomic number  78.
 Defaulting to unpruned grid for atomic number  78.
 Defaulting to unpruned grid for atomic number  78.
 Defaulting to unpruned grid for atomic number  78.
 Defaulting to unpruned grid for atomic number  78.
 Defaulting to unpruned grid for atomic number  78.
 Defaulting to unpruned grid for atomic number  78.
 Defaulting to unpruned grid for atomic number  78.
 Defaulting to unpruned grid for atomic number  78.
 Defaulting to unpruned grid for atomic number  78.
 Defaulting to unpruned grid for atomic number  78.
 Defaulting to unpruned grid for atomic number  78.
 Defaulting to unpruned grid for atomic number  78.
 Defaulting to unpruned grid for atomic number  78.
 Defaulting to unpruned grid for atomic number  78.
 Defaulting to unpruned grid for atomic number  78.
 Defaulting to unpruned grid for atomic number  78.
 Defaulting to unpruned grid for atomic number  78.
 Defaulting to unpruned grid for atomic number  78.
 Defaulting to unpruned grid for atomic number  78.
 Defaulting to unpruned grid for atomic number  78.
 Defaulting to unpruned grid for atomic number  78.
 Defaulting to unpruned grid for atomic number  78.
 Defaulting to unpruned grid for atomic number  78.
 Defaulting to unpruned grid for atomic number  78.
 Defaulting to unpruned grid for atomic number  78.
 Defaulting to unpruned grid for atomic number  78.
 Defaulting to unpruned grid for atomic number  78.
 Defaulting to unpruned grid for atomic number  78.
 Defaulting to unpruned grid for atomic number  78.
 Defaulting to unpruned grid for atomic number  78.
 Full mass-weighted force constant matrix:
 Low frequencies ---  -61.8892   -6.8581   -0.0005   -0.0001    0.0001   14.6744
 Low frequencies ---   24.4358   38.0778   44.6970
 ******    1 imaginary frequencies (negative Signs) ****** 
 Diagonal vibrational polarizability:
       40.1608824      39.1226107      56.6078650
 Harmonic frequencies (cm**-1), IR intensities (KM/Mole), Raman scattering
 activities (A**4/AMU), depolarization ratios for plane and unpolarized
 incident light, reduced masses (AMU), force constants (mDyne/A),
 and normal coordinates:
                      1                      2                      3
                      A                      A                      A
 Frequencies --    -61.8630                22.8593                44.1218
 Red. masses --      3.0650                 3.5741                 2.5402
 Frc consts  --      0.0069                 0.0011                 0.0029
 IR Inten    --      0.5729                 0.4889                 0.5261
  Atom  AN      X      Y      Z        X      Y      Z        X      Y      Z
     1  78     0.01   0.00  -0.00    -0.00   0.00   0.03    -0.01   0.00  -0.01
     2   6     0.01   0.00  -0.01     0.01  -0.01  -0.00    -0.01   0.00  -0.02
     3   6     0.00  -0.00  -0.03     0.01  -0.02  -0.06    -0.01   0.01  -0.01
     4   6     0.00  -0.00   0.02     0.02  -0.02   0.01    -0.01   0.00  -0.00
     5   6     0.00  -0.01  -0.03     0.03  -0.03  -0.13    -0.02   0.01   0.02
     6   6     0.01  -0.01   0.02     0.04  -0.03  -0.05    -0.03   0.01   0.04
     7   6     0.01  -0.01  -0.01     0.05  -0.04  -0.12    -0.03   0.01   0.05
     8   1     0.00  -0.01  -0.04     0.03  -0.04  -0.18    -0.02   0.01   0.04
     9   1     0.00  -0.01   0.04     0.06  -0.04  -0.05    -0.03   0.01   0.05
    10   1     0.01  -0.02  -0.01     0.07  -0.05  -0.17    -0.04   0.01   0.08
    11   7    -0.00   0.01   0.00     0.02   0.00   0.04    -0.01   0.01  -0.01
    12   7    -0.00   0.01  -0.01     0.00  -0.01   0.02    -0.00   0.01   0.00
    13   6     0.05   0.04  -0.00    -0.15  -0.03   0.02    -0.08  -0.00  -0.02
    14   1     0.07   0.06  -0.01    -0.26  -0.09   0.01    -0.11  -0.02  -0.03
    15   1     0.03   0.06   0.02    -0.07  -0.09  -0.01    -0.07  -0.02  -0.03
    16   1     0.05   0.02  -0.01    -0.16   0.08   0.06    -0.09   0.02   0.01
    17   6    -0.00   0.00  -0.03    -0.02  -0.00  -0.06    -0.01   0.01  -0.02
    18   1    -0.01  -0.00  -0.03    -0.08   0.03  -0.07    -0.02   0.03  -0.02
    19   1    -0.01   0.00  -0.03     0.01  -0.02  -0.11     0.00   0.01  -0.04
    20   6     0.00   0.01   0.05     0.02   0.01   0.09    -0.01  -0.01  -0.02
    21   1     0.02   0.07   0.07     0.03   0.09   0.10    -0.01  -0.04  -0.03
    22   1    -0.00  -0.01   0.11     0.02  -0.03   0.16     0.00   0.01  -0.06
    23   6     0.04   0.02  -0.02     0.05   0.00   0.02    -0.00   0.06   0.01
    24   6     0.03   0.02  -0.01     0.05   0.01  -0.01     0.13   0.08   0.03
    25   1     0.04   0.02  -0.07     0.05   0.01  -0.01    -0.05   0.14   0.07
    26   1     0.07   0.04  -0.00     0.07  -0.01   0.03    -0.06   0.01  -0.01
    27   1     0.05   0.03  -0.02     0.10   0.00  -0.04     0.06   0.13   0.09
    28   1     0.01   0.01  -0.02     0.01   0.02  -0.04     0.25   0.14   0.10
    29   1     0.03   0.02   0.03     0.05   0.00   0.03     0.18   0.01  -0.07
    30   6    -0.06  -0.01  -0.02    -0.03  -0.01   0.03    -0.04   0.04  -0.02
    31   6    -0.08  -0.02   0.02    -0.13   0.02   0.03     0.20  -0.09   0.06
    32   1    -0.11  -0.02  -0.01     0.02   0.02   0.04    -0.29  -0.06  -0.02
    33   1    -0.06   0.00  -0.07    -0.02  -0.09   0.01    -0.06   0.29  -0.10
    34   1    -0.13  -0.02  -0.01    -0.18   0.01   0.00     0.22  -0.03   0.06
    35   1    -0.10  -0.03   0.07    -0.14   0.08   0.08     0.20  -0.31   0.06
    36   1    -0.04  -0.01   0.02    -0.14   0.00   0.01     0.38  -0.01   0.11
    37   6     0.03  -0.01  -0.01     0.06   0.02   0.03     0.01   0.04   0.01
    38   6    -0.07  -0.05  -0.05     0.17   0.06   0.05     0.06   0.07   0.04
    39   1     0.07   0.08   0.05     0.05  -0.05   0.04     0.01   0.01   0.00
    40   1     0.13  -0.07  -0.03     0.01   0.08  -0.00    -0.01   0.08  -0.01
    41   1    -0.01  -0.04  -0.04     0.19   0.07   0.05     0.07   0.09   0.04
    42   1    -0.17   0.02  -0.02     0.22   0.01   0.08     0.09   0.03   0.07
    43   1    -0.10  -0.14  -0.11     0.18   0.14   0.04     0.07   0.10   0.05
    44   6    -0.02   0.05  -0.05    -0.04  -0.04   0.09     0.00  -0.02   0.03
    45   6    -0.07  -0.01   0.03    -0.03   0.00  -0.00     0.01  -0.02   0.04
    46   1     0.10   0.08  -0.09    -0.17  -0.07   0.14    -0.02  -0.04   0.03
    47   1    -0.11   0.14  -0.12     0.06  -0.10   0.19     0.01  -0.02   0.05
    48   1    -0.09   0.03  -0.02    -0.04  -0.04   0.08     0.01  -0.04   0.07
    49   1    -0.00  -0.07   0.08    -0.12   0.04  -0.09    -0.00  -0.02   0.03
    50   1    -0.17  -0.04   0.06     0.10   0.03  -0.05     0.03   0.01   0.05
    51   6     0.01  -0.02   0.04    -0.01   0.02  -0.04    -0.00  -0.03  -0.00
    52   6     0.04   0.00   0.22    -0.00   0.02  -0.04     0.01  -0.03   0.02
    53   6    -0.02  -0.04  -0.14    -0.02   0.01  -0.09    -0.01  -0.04  -0.03
    54   6     0.03   0.00   0.20    -0.01   0.01  -0.08     0.01  -0.04   0.01
    55   1     0.06   0.02   0.41     0.01   0.03  -0.01     0.02  -0.03   0.05
    56   6    -0.02  -0.04  -0.15    -0.03  -0.00  -0.13    -0.01  -0.05  -0.04
    57   1    -0.04  -0.06  -0.27    -0.03   0.01  -0.10    -0.01  -0.05  -0.04
    58   6     0.01  -0.02   0.01    -0.02  -0.00  -0.12    -0.00  -0.05  -0.02
    59   1     0.06   0.02   0.34    -0.00   0.01  -0.07     0.02  -0.04   0.03
    60   1    -0.04  -0.06  -0.29    -0.04  -0.01  -0.17    -0.02  -0.06  -0.07
    61   1     0.00  -0.03  -0.00    -0.02  -0.01  -0.15    -0.00  -0.06  -0.04
                      4                      5                      6
                      A                      A                      A
 Frequencies --     49.8529                64.8700                78.8750
 Red. masses --      3.5964                 3.1535                 3.0676
 Frc consts  --      0.0053                 0.0078                 0.0112
 IR Inten    --      0.1189                 0.6705                 0.0807
  Atom  AN      X      Y      Z        X      Y      Z        X      Y      Z
     1  78    -0.00   0.00  -0.03     0.01  -0.00  -0.04    -0.01   0.00  -0.01
     2   6    -0.00  -0.01   0.00     0.01  -0.01  -0.04    -0.01   0.00   0.03
     3   6    -0.01  -0.02   0.01     0.01  -0.01  -0.04    -0.00   0.00   0.00
     4   6    -0.00  -0.02   0.07     0.00  -0.01   0.01    -0.00  -0.00   0.02
     5   6    -0.03  -0.04   0.09     0.00  -0.01  -0.02     0.02   0.01  -0.07
     6   6    -0.02  -0.03   0.15    -0.01  -0.02   0.03     0.02   0.00  -0.05
     7   6    -0.04  -0.04   0.17    -0.00  -0.02   0.02     0.03   0.01  -0.10
     8   1    -0.04  -0.04   0.11    -0.00  -0.02  -0.02     0.02   0.00  -0.10
     9   1    -0.03  -0.04   0.21    -0.01  -0.02   0.07     0.02   0.00  -0.08
    10   1    -0.06  -0.06   0.24    -0.01  -0.02   0.04     0.05   0.01  -0.16
    11   7     0.01  -0.00  -0.01     0.00  -0.01   0.03    -0.01   0.02   0.03
    12   7    -0.00  -0.01  -0.03     0.01  -0.00  -0.03    -0.00  -0.00  -0.01
    13   6    -0.07  -0.02  -0.03     0.01   0.03  -0.04     0.07   0.03   0.00
    14   1    -0.18  -0.08  -0.04     0.06   0.06  -0.05     0.07   0.03   0.01
    15   1     0.02  -0.09  -0.04    -0.03   0.07  -0.03     0.09   0.03   0.04
    16   1    -0.07   0.09  -0.02     0.01  -0.01  -0.04     0.09   0.05  -0.03
    17   6    -0.01   0.01  -0.06     0.01  -0.01  -0.03     0.00  -0.00   0.03
    18   1    -0.04   0.08  -0.07    -0.00  -0.02  -0.03     0.03  -0.04   0.03
    19   1     0.00  -0.02  -0.12     0.01  -0.00  -0.02    -0.01   0.01   0.06
    20   6     0.02  -0.00   0.04    -0.00   0.01   0.05    -0.00   0.02   0.07
    21   1     0.06   0.00   0.05    -0.00   0.05   0.06     0.01   0.08   0.08
    22   1     0.00  -0.01   0.06    -0.01  -0.02   0.09     0.00  -0.02   0.12
    23   6     0.04  -0.00  -0.04    -0.00   0.01   0.04     0.03   0.04   0.02
    24   6     0.06   0.00  -0.09    -0.10  -0.01   0.14     0.23   0.09  -0.09
    25   1     0.04   0.01  -0.06     0.03  -0.04  -0.03    -0.05   0.16   0.12
    26   1     0.07  -0.03  -0.03     0.04   0.11   0.05    -0.04  -0.10   0.02
    27   1     0.11  -0.01  -0.12    -0.08   0.02   0.13     0.27   0.09  -0.12
    28   1     0.03   0.03  -0.12    -0.16  -0.11   0.13     0.26   0.25  -0.12
    29   1     0.07  -0.01  -0.06    -0.14   0.04   0.22     0.30  -0.03  -0.14
    30   6    -0.03  -0.01  -0.03     0.02  -0.07   0.04    -0.04  -0.00   0.02
    31   6    -0.12   0.02  -0.03    -0.06  -0.06   0.07    -0.12   0.01   0.04
    32   1     0.00   0.01  -0.02     0.10  -0.06   0.01    -0.01   0.01   0.02
    33   1    -0.03  -0.07  -0.05     0.02  -0.15   0.07    -0.04  -0.05  -0.00
    34   1    -0.16   0.01  -0.05    -0.05  -0.13   0.08    -0.16  -0.01   0.02
    35   1    -0.13   0.08   0.01    -0.06  -0.00   0.06    -0.13   0.05   0.09
    36   1    -0.13   0.00  -0.05    -0.13  -0.06   0.11    -0.12   0.01   0.03
    37   6     0.03   0.00  -0.02    -0.02   0.07  -0.02    -0.06   0.01  -0.01
    38   6     0.15   0.04  -0.01     0.03   0.12   0.09    -0.09   0.01   0.02
    39   1     0.01  -0.08  -0.02    -0.03   0.04  -0.06    -0.06   0.02  -0.05
    40   1    -0.04   0.06  -0.03    -0.07   0.13  -0.05    -0.06   0.01  -0.00
    41   1     0.14   0.03  -0.01     0.02   0.21   0.09    -0.13   0.03   0.02
    42   1     0.22  -0.02  -0.01     0.06   0.07   0.15    -0.09   0.01   0.01
    43   1     0.17   0.13  -0.00     0.04   0.14   0.12    -0.09  -0.01   0.06
    44   6    -0.02  -0.03   0.02     0.04  -0.03  -0.00     0.04  -0.01  -0.03
    45   6     0.01   0.03  -0.09     0.01  -0.12   0.20     0.06  -0.04   0.07
    46   1    -0.16  -0.05   0.08     0.18  -0.07  -0.10     0.13  -0.03  -0.08
    47   1     0.07  -0.11   0.11    -0.06   0.08  -0.07    -0.01   0.02  -0.09
    48   1     0.01  -0.00  -0.04     0.03  -0.13   0.19     0.08  -0.05   0.04
    49   1    -0.08   0.10  -0.16     0.11  -0.23   0.26     0.12  -0.08   0.12
    50   1     0.13   0.05  -0.15    -0.11  -0.08   0.30    -0.01  -0.03   0.12
    51   6     0.00   0.01  -0.04    -0.00   0.01  -0.02    -0.01  -0.03  -0.03
    52   6     0.01   0.02  -0.00    -0.02   0.02  -0.01    -0.00  -0.04  -0.07
    53   6     0.00   0.01  -0.01     0.01   0.03  -0.01    -0.01  -0.03   0.04
    54   6     0.03   0.03   0.12    -0.02   0.04   0.01     0.01  -0.05  -0.02
    55   1     0.01   0.01  -0.07    -0.03   0.01  -0.02    -0.01  -0.04  -0.14
    56   6     0.02   0.02   0.10     0.01   0.05   0.02     0.00  -0.04   0.10
    57   1    -0.01   0.01  -0.08     0.02   0.02  -0.01    -0.02  -0.03   0.04
    58   6     0.04   0.03   0.18    -0.00   0.06   0.03     0.01  -0.05   0.08
    59   1     0.04   0.03   0.15    -0.03   0.05   0.02     0.02  -0.06  -0.05
    60   1     0.02   0.02   0.13     0.03   0.06   0.03     0.00  -0.04   0.17
    61   1     0.05   0.04   0.28    -0.00   0.07   0.04     0.02  -0.05   0.14
                      7                      8                      9
                      A                      A                      A
 Frequencies --     95.1326               101.8908               108.2702
 Red. masses --      2.7655                 3.0410                 2.8850
 Frc consts  --      0.0147                 0.0186                 0.0199
 IR Inten    --      0.2750                 0.7108                 1.5299
  Atom  AN      X      Y      Z        X      Y      Z        X      Y      Z
     1  78    -0.00  -0.02   0.01    -0.01   0.01  -0.01    -0.02  -0.00   0.02
     2   6    -0.01  -0.00   0.06    -0.01  -0.01  -0.01    -0.01  -0.00  -0.01
     3   6     0.01   0.01   0.01    -0.03  -0.02  -0.01    -0.00   0.01  -0.04
     4   6    -0.03   0.00   0.04     0.00  -0.01  -0.02    -0.02   0.00   0.01
     5   6     0.03   0.03  -0.06    -0.03  -0.04   0.01    -0.01   0.01   0.00
     6   6    -0.01   0.02  -0.03     0.00  -0.03  -0.01    -0.04   0.01   0.05
     7   6     0.02   0.04  -0.08    -0.02  -0.05   0.01    -0.03   0.01   0.05
     8   1     0.05   0.04  -0.11    -0.05  -0.05   0.02    -0.01   0.02  -0.01
     9   1    -0.02   0.03  -0.05     0.01  -0.04  -0.01    -0.05   0.01   0.08
    10   1     0.03   0.05  -0.14    -0.02  -0.06   0.02    -0.05   0.01   0.09
    11   7    -0.04  -0.02  -0.01     0.01   0.00   0.00    -0.01   0.01  -0.00
    12   7     0.02  -0.01   0.01    -0.04   0.01   0.01     0.03  -0.03  -0.03
    13   6     0.19   0.03   0.03     0.26   0.08   0.01     0.04   0.05   0.02
    14   1     0.14  -0.00   0.04     0.14   0.01   0.01     0.02   0.05  -0.00
    15   1     0.27  -0.01   0.09     0.42  -0.00   0.09     0.06   0.04   0.04
    16   1     0.22   0.11  -0.05     0.30   0.24  -0.08     0.04   0.08   0.01
    17   6     0.02   0.00   0.01    -0.05  -0.01  -0.01     0.02   0.01  -0.08
    18   1     0.02   0.00   0.01    -0.06  -0.01  -0.01    -0.02   0.06  -0.09
    19   1     0.02   0.01   0.01    -0.05  -0.02  -0.02     0.05   0.00  -0.14
    20   6    -0.03  -0.01   0.04     0.01  -0.01  -0.03    -0.02  -0.01  -0.03
    21   1    -0.01   0.01   0.05    -0.00  -0.02  -0.03    -0.02  -0.05  -0.04
    22   1    -0.06  -0.02   0.06     0.02  -0.00  -0.04    -0.01   0.01  -0.07
    23   6     0.01  -0.03  -0.06    -0.02   0.00   0.03    -0.03  -0.00   0.00
[...]
 557,-0.00000842,-0.00000014,-0.00000098,-0.00476791,-0.00065289,0.0018
 6450,-0.00454634,-0.02925791,0.00525413,-0.00140266,0.00066315,0.00000
 752,-0.07856217,-0.07167447,0.01599637,0.00122217,0.00007841,-0.000849
 77,-0.00196747,0.00353659,0.00093284,0.00009387,-0.00013523,-0.0002031
 2,0.01010383,0.02035322,-0.00382449,0.07851789,0.00076704,-0.00005465,
 0.00010163,-0.00008757,0.00004568,0.00002939,-0.00010528,-0.00008865,-
 0.00003375,-0.00009807,0.00004442,-0.00002571,-0.00000592,0.00002628,-
 0.00000090,0.00000071,-0.00002154,0.00000160,-0.00002900,-0.00000327,-
 0.00001032,-0.00002413,0.00000809,-0.00000583,-0.00001733,-0.00001620,
 -0.00000664,-0.00000620,-0.00000160,-0.00000174,0.00002708,0.00000261,
 -0.00000681,0.00005394,0.00000466,-0.00000738,-0.00002887,-0.00001360,
 -0.00007620,-0.00000563,0.00000349,0.00002277,-0.00000451,0.00000005,0
 .00002823,-0.00001305,-0.00000188,0.00000715,0.00003249,-0.00000934,-0
 .00001599,0.00000851,0.00000108,0.00000449,-0.00001208,0.00001077,-0.0
 0000140,0.00002393,0.00001324,-0.00001129,0.00000813,-0.00000091,0.000
 00575,-0.00000498,-0.00001206,-0.00000092,0.00001156,0.00001705,-0.000
 01843,-0.00000517,0.00000391,0.00001012,0.00000081,0.00001570,-0.00003
 163,-0.00001454,-0.00000270,0.00000045,0.00000485,-0.00000589,0.000001
 96,0.00000222,0.00000366,-0.00000252,-0.00000506,-0.00000892,-0.000004
 06,-0.00000546,-0.00001023,0.00002112,-0.00000062,0.00000309,-0.000001
 61,-0.00000616,0.00001669,0.00003202,0.00001006,0.00002987,0.00001847,
 0.00000146,-0.00000475,-0.00000371,-0.00000800,-0.00000653,0.00000015,
 -0.00000176,-0.00000615,0.00000010,0.00001888,0.00001133,-0.00000259,-
 0.00001417,-0.00001554,-0.00000713,-0.00001281,-0.00001105,0.00004628,
 -0.00001289,-0.00000127,0.00000742,-0.00000388,0.00000610,-0.00000879,
 0.00000314,0.00000522,0.00000590,-0.00000508,0.00001392,-0.00000038,-0
 .00001395,0.00003325,-0.00004130,-0.00000830,-0.00001674,0.00001447,0.
 00000349,-0.00000773,-0.00000856,-0.00004836,-0.00003788,0.00003004,-0
 .00000097,0.00000990,0.00000561,-0.00001076,0.00000890,0.00000279,-0.0
 0000587,0.00000361,-0.00000176,-0.00129412,0.00156556,0.00087739,0.000
 95431,-0.00267711,0.00063668,0.00037939,0.00043949,-0.00018805,-0.0715
 1225,-0.29730534,0.04682245,-0.00020795,0.00051267,-0.00061692,0.00433
 569,-0.00141535,0.00056175,-0.00010725,-0.00011299,-0.00017868,-0.0096
 2963,-0.01724815,0.00424970,0.07743257,0.31625973,-0.00019951,0.000130
 53,-0.00013998,0.00004818,-0.00000347,-0.00005836,0.00003214,0.0000290
 4,0.00001952,0.00003205,-0.00003431,0.00001588,-0.00000007,-0.00001173
 ,0.00000663,-0.00000441,0.00001086,0.00000431,0.00000671,0.00000098,0.
 00000060,0.00000699,-0.00000149,0.00000162,0.00000648,0.00000386,0.000
 00217,0.00000165,0.00000044,0.00000060,-0.00001631,-0.00000494,-0.0000
 0769,-0.00003598,-0.00003324,0.00001621,0.00007655,0.00000581,0.000057
 90,0.00000007,0.00000220,-0.00001493,-0.00000173,-0.00000558,-0.000020
 11,-0.00002099,0.00001554,0.00001399,-0.00000608,0.00000574,-0.0000024
 0,-0.00000316,-0.00000153,-0.00000266,0.00000301,-0.00000181,0.0000016
 5,-0.00001555,-0.00000072,0.00000105,-0.00000298,-0.00000169,-0.000000
 97,0.00000089,0.00000303,0.00000137,0.00004667,-0.00002077,0.00000399,
 -0.00001056,-0.00000374,-0.00000386,-0.00004429,-0.00002191,0.00001405
 ,0.00001063,0.00000450,-0.00000042,-0.00000189,0.00000257,-0.00000068,
 -0.00000029,0.00000024,0.00000075,0.00000002,-0.00000101,0.00000177,-0
 .00000526,0.00002589,0.00000451,0.00000252,0.00000194,-0.00000348,-0.0
 0000971,0.00000141,-0.00001080,0.00002869,0.00001146,0.00001368,0.0000
 0010,-0.00000085,0.00000018,0.00000121,0.00000061,0.00000032,0.0000009
 2,0.00000313,-0.00000014,-0.00000521,-0.00004485,-0.00006358,-0.000010
 85,-0.00000504,0.00001280,-0.00003887,0.00003313,0.00003553,-0.0000196
 8,0.00001292,0.00000403,-0.00000361,-0.00000349,-0.00000413,0.00000127
 ,0.00000318,0.00000358,0.00000237,0.00000863,-0.00000355,0.00006483,-0
 .00009600,0.00001275,0.00002095,0.00002130,-0.00000428,-0.00000455,-0.
 00000556,0.00001548,0.00002583,0.00003656,-0.00004492,-0.00000066,-0.0
 0000748,-0.00000384,0.00000803,-0.00000841,-0.00000303,0.00000192,-0.0
 0000310,-0.00000133,0.00189079,0.00043719,0.00677269,0.00174632,0.0054
 7561,0.00232794,-0.00021049,-0.00016245,-0.00054631,0.01540228,0.04704
 695,-0.04487909,-0.00077900,-0.00070707,-0.00397862,0.00086366,0.00074
 007,0.00710553,-0.00023116,-0.00010372,-0.00133731,0.00049410,-0.00053
 286,0.00327718,-0.01856511,-0.05178410,0.03486110,0.00078654,0.0009599
 4,0.00004812,-0.00028014,-0.00025707,0.00012548,-0.00013437,-0.0001519
 6,-0.00005353,-0.00025112,0.00013016,-0.00007137,-0.00000531,0.0000599
 5,-0.00001055,0.00001885,-0.00008206,-0.00001221,-0.00003598,-0.000004
 03,-0.00000815,-0.00003644,0.00000716,-0.00000901,-0.00003717,-0.00002
 215,-0.00001345,-0.00001135,-0.00000221,-0.00000233,0.00014549,-0.0000
 0871,-0.00000533,0.00005993,-0.00001343,-0.00000794,-0.00000609,-0.000
 03227,-0.00012836,-0.00000222,0.00000115,0.00002963,-0.00001074,0.0000
 0387,0.00004150,-0.00001157,0.00000356,0.00003023,0.00002588,-0.000003
 93,-0.00001138,0.00001411,0.00000438,0.00000491,-0.00001287,0.00001753
 ,-0.00000126,0.00003323,0.00001671,-0.00000797,0.00001460,-0.00000169,
 0.00000822,-0.00000699,-0.00001868,-0.00000064,-0.00000429,0.00002259,
 -0.00008022,0.00000389,0.00001277,0.00004396,-0.00004921,0.00001483,0.
 00001774,0.00000080,-0.00000155,0.00000014,0.00000066,-0.00002005,0.00
 001050,-0.00000167,-0.00001200,-0.00002042,0.00000830,-0.00000738,-0.0
 0000916,-0.00003922,-0.00004924,0.00005193,0.00000428,0.00000460,-0.00
 001204,0.00000419,0.00001697,0.00003680,-0.00001883,0.00003193,-0.0000
 0137,-0.00000491,-0.00000854,-0.00001599,0.00000049,-0.00000779,0.0000
 0054,-0.00000902,-0.00001052,0.00000240,0.00001221,0.00001972,0.000043
 72,-0.00000824,-0.00001107,-0.00001658,0.00000718,-0.00001398,0.000028
 16,-0.00000528,-0.00000484,0.00000882,-0.00000097,0.00000884,-0.000008
 11,0.00000144,0.00000401,0.00000400,-0.00000509,0.00000851,0.00000267,
 -0.00003091,-0.00003477,-0.00002716,0.00001657,0.00000624,-0.00000122,
 -0.00000469,-0.00000376,-0.00001156,0.00001435,-0.00001278,0.00000089,
 -0.00000045,0.00001020,0.00000465,-0.00000555,-0.00000028,-0.00000063,
 -0.00000712,0.00000421,-0.00000123,-0.00465687,-0.00167057,0.00193117,
 -0.00069320,-0.00116259,0.00012946,-0.01505466,0.02449960,0.00008823,0
 .00092878,-0.00228360,0.00129263,0.00000245,0.00011600,-0.00024945,-0.
 16827768,0.13304110,0.00516329,0.00108048,0.00001426,-0.00083862,0.009
 75235,-0.00877468,-0.00000768,0.00029210,-0.00053362,0.00009428,0.1759
 9750,-0.00044075,0.00006040,-0.00006656,-0.00003992,-0.00003081,-0.000
 00065,0.00003009,0.00001871,0.00000697,0.00003404,-0.00000415,0.000008
 74,0.00000252,0.00000261,-0.00000129,0.00000425,-0.00000341,-0.0000040
 5,0.00001644,0.00000267,0.00000704,0.00000906,-0.00000558,0.00000186,0
 .00000544,0.00000871,0.00000254,0.00000227,0.00000028,0.00000078,-0.00
 000572,-0.00001707,0.00000054,-0.00000357,-0.00001900,0.00001035,0.000
 04646,0.00001088,0.00003687,0.00000062,-0.00000161,-0.00001423,0.00000
 244,0.00000018,-0.00001790,0.00000602,-0.00000134,0.00000788,-0.000021
 07,0.00000346,0.00001014,-0.00000309,-0.00000057,-0.00000283,0.0000062
 6,-0.00000432,0.00000107,-0.00001412,-0.00001491,0.00001057,-0.0000045
 7,-0.00000070,-0.00000201,0.00000393,0.00000556,0.00000097,-0.00001555
 ,-0.00001198,-0.00003416,0.00001445,-0.00000779,-0.00000395,0.00003342
 ,-0.00000391,0.00003644,0.00002409,0.00000889,-0.00000018,-0.00000198,
 0.00000431,-0.00000161,-0.00000407,-0.00000303,0.00000331,0.00000226,0
 .00001083,0.00000388,0.00000359,0.00001518,0.00000636,0.00000771,-0.00
 000211,-0.00000546,0.,-0.00000998,-0.00002166,0.00001318,-0.00002589,-
 0.00001961,0.00000044,0.00000242,0.00000316,0.00000535,0.00000633,0.00
 000195,0.00000172,0.00000518,0.00000004,-0.00001451,-0.00000642,0.0000
 0038,0.00000460,0.00000432,0.00000147,-0.00000605,0.00000341,-0.000019
 89,0.00000681,0.00000098,-0.00000299,-0.00000104,-0.00000269,0.0000019
 8,-0.00000192,0.00000041,0.00000019,0.00000587,-0.00000577,-0.00000089
 ,0.00000495,-0.00001924,0.00002283,0.00000705,0.00000855,-0.00000842,-
 0.00000767,0.00000356,0.00000695,-0.00000245,0.00002814,-0.00001467,-0
 .00000118,-0.00000199,0.00000061,0.00000839,-0.00000406,-0.00000339,0.
 00000215,-0.00000215,0.00000136,-0.00102474,0.00149338,0.00084840,-0.0
 0095831,-0.00022735,0.00008652,-0.00570955,0.00674972,0.00055432,-0.00
 303291,-0.00411370,0.00178268,0.00009841,-0.00000512,-0.00015591,0.133
 05996,-0.21557745,-0.00026185,0.00016017,0.00075452,-0.00058047,0.0212
 2469,-0.01685059,-0.00097079,0.00107380,-0.00093428,0.00004251,-0.1444
 3249,0.22744465,-0.00007454,-0.00014217,-0.00006552,0.00003351,0.00001
 302,-0.00006231,0.00000953,0.00002727,0.00000940,0.00002112,-0.0000081
 8,0.00001081,-0.00000382,-0.00000705,0.00000462,-0.00000529,0.00000323
 ,0.00000705,0.00000386,0.00000045,-0.00000024,0.00000364,-0.00000079,0
 .00000055,0.00000203,0.00000224,0.00000114,0.00000076,0.00000008,0.000
 00032,-0.00002006,0.00000924,0.00001719,-0.00001008,-0.00000130,-0.000
 00536,0.00006799,0.00002417,0.00002487,0.00000294,0.00000129,-0.000007
 80,-0.00000047,-0.00000423,-0.00002065,0.00000963,-0.00000662,0.000015
 20,-0.00001242,-0.00000553,0.00000016,-0.00000065,0.00000079,0.0000001
 7,0.00000034,-0.00000038,0.00000069,0.00000274,-0.00000337,-0.00000295
 ,-0.00000317,0.00000017,0.00000144,0.00000129,-0.00000080,0.00000194,-
 0.00001704,0.00002339,-0.00005420,0.00002607,0.00000132,-0.00000121,0.
 00005270,0.00003416,0.00002475,0.00001551,0.00001005,-0.00000347,0.000
 00221,0.00000745,-0.00000728,0.00000109,0.00000200,0.00000668,-0.00000
 498,0.00001327,0.00000118,0.00001922,-0.00005196,-0.00004694,-0.000043
 08,0.00000931,0.00000728,-0.00000716,0.00000149,-0.00000054,-0.0000381
 6,0.00001465,0.00002893,-0.00000003,0.00000004,-0.00000310,-0.00000228
 ,-0.00001348,-0.00000680,0.00000019,0.00000043,-0.00000023,-0.00000853
 ,-0.00004623,0.00001699,0.00001659,0.00000087,-0.00000310,0.00003475,0
 .00001454,0.00000261,-0.00000915,0.00000265,0.00000117,-0.00000031,0.0
 0000061,-0.00000086,0.00000020,-0.00000113,-0.00000058,0.00000264,-0.0
 0000473,0.00000113,0.00001167,0.00000065,0.00003262,0.00000102,0.00000
 147,-0.00000962,-0.00001656,0.00000689,-0.00000668,0.00000337,0.000004
 89,-0.00001298,-0.00000026,-0.00000258,-0.00000030,0.00000280,-0.00000
 140,-0.00000020,-0.00000109,0.00000236,0.00000051,0.00172928,0.0013100
 5,0.00664207,-0.00013908,-0.00007443,-0.00054811,0.00413126,-0.0042756
 0,0.00323640,0.00146371,0.00161724,0.00689750,-0.00023803,-0.00022320,
 -0.00134025,0.00477963,-0.00069043,-0.03665280,-0.00085002,-0.00045432
 ,-0.00404770,-0.00338308,0.00409001,0.00334317,-0.00008567,0.00020206,
 0.00025310,-0.00683948,-0.00073540,0.02603879,0.00043156,0.00003895,-0
 .00000677,-0.00008097,0.00000058,0.00007168,-0.00005895,-0.00005713,-0
 .00002158,-0.00006801,0.00003753,-0.00001612,0.00000174,0.00001525,-0.
 00000720,0.00000497,-0.00001288,-0.00000910,-0.00001971,-0.00000385,-0
 .00000013,-0.00001259,0.00000315,-0.00000329,-0.00001003,-0.00000802,-
 0.00000403,-0.00000335,-0.00000086,-0.00000238,0.00003341,-0.00001880,
 -0.00000541,0.00002875,0.00003220,-0.00002044,-0.00006605,-0.00001459,
 -0.00007751,0.00000002,0.00000064,0.00001877,0.00000022,0.00000196,0.0
 0002884,0.00000818,-0.00000315,-0.00000683,0.00005205,-0.00000668,-0.0
 0000941,0.00000359,0.00000137,0.00000384,-0.00000963,0.00000488,-0.000
 00132,0.00003854,0.00002197,-0.00000750,0.00000554,-0.00000020,0.00000
 398,-0.00000615,-0.00000841,-0.00000248,0.00002153,0.00002745,0.000018
 38,-0.00001176,0.00000678,0.00000853,-0.00000656,0.00000861,-0.0000456
 5,-0.00002753,-0.00001203,0.00000059,0.00000413,-0.00000489,0.00000387
 ,0.00000483,0.00000385,-0.00000642,-0.00000431,-0.00001416,-0.00000489
 ,0.00001922,-0.00000804,0.00000621,-0.00000908,0.00000441,-0.00000147,
 -0.00001314,0.00000859,0.00002377,0.00000056,0.00003201,0.00002725,0.0
 0000119,-0.00000438,-0.00000528,-0.00000796,-0.00000936,-0.00000119,-0
 .00000194,-0.00000657,0.00000169,0.00003971,-0.00001693,-0.00000200,-0
 .00000782,-0.00000997,-0.00000553,0.00001888,0.00000627,0.00005554,-0.
 00002575,0.00000207,0.00000692,-0.00000112,0.00000445,-0.00000838,0.00
 000418,-0.00000064,0.00000534,-0.00000844,0.00001199,0.00000161,0.0000
 0257,0.00008725,-0.00004448,-0.00003234,-0.00003338,0.00002142,0.00000
 845,-0.00000127,-0.00001314,-0.00002077,-0.00007956,0.00004888,0.00000
 376,0.00000447,0.00000197,-0.00002020,0.00001626,0.00000748,-0.0000080
 5,0.00000704,-0.00000324,0.00009919,0.00019329,-0.00042061,-0.00024753
 ,0.00409688,0.00054119,0.00188930,-0.00181745,0.00103359,-0.01545509,-
 0.00709617,0.00373405,-0.00092151,-0.00029832,0.00015659,-0.00581694,0
 .00086469,0.00127233,-0.00044559,0.00003802,0.00006678,-0.31309221,-0.
 04894189,0.04718592,0.00083702,-0.00016899,-0.00067414,0.00049359,-0.0
 0018566,-0.00063878,0.33246443,0.00006173,0.00005642,-0.00007286,-0.00
 000809,-0.00004813,0.00005348,0.00000339,-0.00000888,-0.00000667,-0.00
 001616,0.00000272,-0.00000349,-0.00000067,0.00000370,-0.00000627,0.000
 00299,0.00000375,-0.00000494,-0.00000464,0.00000008,0.00000104,-0.0000
 0157,0.00000036,0.,-0.00000123,-0.00000206,-0.00000145,-0.00000100,0.0
 0000076,-0.00000010,0.00002106,-0.00002116,0.00000768,0.00000280,0.000
 00387,-0.00000702,-0.00004267,-0.00000174,-0.00001607,-0.00000342,-0.0
 0000032,0.00001014,0.00000413,0.00000461,0.00000988,0.00001010,-0.0000
 0684,-0.00001219,-0.00000951,0.00000739,0.00000427,0.00000374,-0.00000
 071,-0.00000044,-0.00000218,0.00000036,0.,0.00002082,0.00002445,-0.000
 00301,0.00000129,0.00000030,-0.00000007,-0.00000070,-0.00000115,-0.000
 00242,0.00001798,0.00002230,0.00009496,-0.00001995,0.00001411,-0.00000
 353,-0.00000931,-0.00000263,-0.00007786,-0.00004653,-0.00002533,-0.000
 00050,0.00000147,-0.00000016,0.00000425,0.00000704,0.00000690,-0.00000
 640,-0.00000098,-0.00001867,-0.00000515,0.00003374,-0.00000650,-0.0000
 2314,-0.00002427,0.00000851,0.00000302,-0.00001572,0.00000406,0.000002
 08,-0.00000394,0.00003406,0.00004636,0.00000139,-0.00000088,-0.0000020
 5,-0.00000711,-0.00001234,-0.00000387,-0.00000024,-0.00000306,0.000002
 28,-0.00002093,0.00003014,0.00002865,0.00000495,0.00000276,-0.00000854
 ,0.00000356,-0.00001578,-0.00003167,0.00001748,-0.00000243,-0.00000022
 ,0.00000018,0.00000238,0.00000074,-0.00000215,0.00000235,-0.00000223,0
 .00000234,-0.00000584,0.00000082,-0.00001265,-0.00007888,0.00000459,0.
 00003243,0.00002821,-0.00001320,-0.00000377,0.00000018,0.00000338,0.00
 001901,0.00005518,-0.00002446,-0.00000287,0.00000172,0.00000085,0.0000
 1146,-0.00001269,-0.00000543,0.00000166,-0.00000267,0.00000061,0.00020
 462,-0.00096148,-0.00019639,0.00302997,-0.00283346,0.00096651,-0.00075
 191,-0.00478038,0.00151771,0.02277463,0.00903663,-0.00416669,0.0011370
 7,0.00012711,-0.00015004,-0.02904241,0.00010844,0.00479909,-0.00136241
 ,-0.00037411,0.00024170,-0.04892179,-0.06735167,0.01120185,-0.00096705
 ,0.00093224,-0.00050484,0.00061348,0.00126073,-0.00069848,0.05326136,0
 .06479311,-0.00011334,-0.00012391,-0.00062188,0.00000081,0.00002581,0.
 00037951,0.00005086,0.00003441,-0.00000678,0.00008182,-0.00001165,0.00
 000062,0.00001895,-0.00002119,-0.00003745,-0.00000093,0.00003339,-0.00
 003681,-0.00000097,-0.00000628,0.00000779,0.00000842,0.00000267,0.0000
 0141,0.00000898,0.00000108,0.00000337,0.00000166,0.00000005,0.00000431
 ,0.00001391,-0.00001328,-0.00002971,0.00000648,0.00002811,-0.00005453,
 -0.00030253,-0.00004039,-0.00003726,-0.00000106,-0.00001755,0.00003188
 ,0.00001066,0.00002423,0.00006740,0.00006846,-0.00000338,-0.00007404,0
 .00001554,0.00000237,0.00002858,0.00000326,0.00000104,-0.00000027,-0.0
 0000234,-0.00000663,-0.00000126,0.00001163,0.00000966,0.00002226,0.000
 00434,-0.00000261,0.00000345,-0.00000201,0.00000573,-0.00000183,-0.000
 02863,-0.00004421,-0.00000414,-0.00000290,-0.00000307,0.00000102,-0.00
 000352,-0.00000397,0.00001180,0.00000488,0.00000552,0.00000065,0.00000
 007,0.00000235,-0.00000207,0.00000015,-0.00000310,0.00000089,0.0000012
 6,0.00000041,-0.00000043,-0.00001416,0.00003897,-0.00001421,0.00003498
 ,-0.00001049,-0.00000166,-0.00001816,-0.00001616,0.00001435,0.00001169
 ,-0.00002980,-0.00001134,-0.00000181,-0.00000444,-0.00000192,0.0000038
 7,0.00000837,0.00000321,0.00000117,-0.00000110,-0.00000300,-0.00000528
 ,0.00001898,0.00002411,0.00001385,0.00000045,-0.00001363,0.00003074,-0
 .00000988,-0.00001085,-0.00000062,0.00000527,0.00000046,-0.00000284,0.
 00000361,-0.00000239,-0.00000102,-0.00000032,0.00000069,0.00000131,-0.
 00000503,0.00000019,-0.00001586,0.00002229,0.00000370,-0.00000707,0.00
 000073,0.00000006,0.00000499,0.00000663,0.00000236,-0.00000815,0.00000
 429,0.00001948,0.00000021,-0.00000251,-0.00000087,0.00000008,0.0000016
 7,-0.00000001,-0.00000052,0.00000018,0.,-0.00028865,-0.00011511,-0.002
 17076,0.00080061,0.00076035,0.00730310,0.00097552,0.00170342,0.0071681
 6,-0.00022176,0.00038652,0.00325138,-0.00000258,0.00005043,0.00005044,
 0.00490064,0.00019291,0.00248744,0.00026962,0.00004710,0.00001859,0.04
 730929,0.01121505,-0.04446036,-0.00058403,-0.00064285,-0.00372798,-0.0
 0075965,-0.00056084,-0.00371866,-0.05228030,-0.01294427,0.03413344\\-0
 .00003608,-0.00003164,-0.00000375,0.00003848,-0.00000258,-0.00001107,-
 0.00000307,-0.00000583,0.00000336,0.00000710,-0.00000683,-0.00000474,-
 0.00000163,-0.00001130,0.00000475,0.00000772,-0.00001034,-0.00000242,0
 .00000124,-0.00001323,-0.00000153,-0.00000594,-0.00001198,0.00000763,0
 .00001104,-0.00001280,-0.00000855,0.00000358,-0.00001432,-0.00000055,0
 .00000742,-0.00000114,-0.00000766,-0.00000743,-0.00000172,0.00000666,-
 0.00000495,-0.00000256,0.00000269,0.00000467,-0.00000930,0.00000525,-0
 .00000100,-0.00001707,-0.00000271,0.00000110,-0.00000658,-0.00000077,-
 0.00000746,-0.00000841,0.00000809,-0.00000941,-0.00001738,0.00000800,-
 0.00000815,-0.00001254,0.00000967,0.00000800,-0.00000376,-0.00000965,0
 .00001249,-0.00000922,-0.00001110,0.00000990,-0.00000671,-0.00001106,0
 .00001071,-0.00000428,-0.00000955,0.00001736,0.00000250,-0.00001631,0.
 00000808,0.00000112,-0.00000981,0.00000931,-0.00000519,-0.00000957,0.0
 0001601,-0.00000066,-0.00001696,0.00001408,0.00000756,-0.00001595,0.00
 001454,-0.00000337,-0.00001870,0.00000870,0.00000826,-0.00001030,0.000
 01136,0.00000867,-0.00001399,0.00000484,0.00003471,0.00000157,0.000006
 92,0.00000886,-0.00000766,0.00000983,0.00001212,-0.00001299,0.00000900
 ,0.00000701,-0.00001184,0.00001543,0.00000700,-0.00001690,-0.00000666,
 -0.00001186,-0.00000610,-0.00001319,0.00000440,0.00001243,-0.00001048,
 0.00000924,0.00000595,-0.00000737,0.00000661,0.00000638,-0.00001291,0.
 00000817,0.00001312,-0.00001337,0.00000421,0.00001606,-0.00000959,0.00
 000157,0.00001688,-0.00001397,-0.00000271,0.00001300,-0.00001341,-0.00
 000930,0.00001598,-0.00000550,-0.00000505,0.00000934,-0.00000821,-0.00
 000060,0.00000591,-0.00001573,-0.00000755,0.00001610,-0.00001053,-0.00
 001271,0.00001518,-0.00001701,-0.00000518,0.00001649,0.00000375,0.0000
 1102,0.00001813,-0.00000659,0.00001018,0.00000594,0.00000256,0.0000090
 3,-0.00000373,-0.00000742,0.00001604,0.00000598,-0.00001014,0.00000790
 ,0.00001288,0.00000141,0.00001663,-0.00000249,0.00000474,0.00000748,-0
 .00000755,-0.00000435,0.00001900,0.00000067,-0.00000993,0.00001624,0.0
 0000805,0.00000364,0.00001807,-0.00000693,-0.00000350,0.00002210,0.000
 00074\\\@
 The archive entry for this job was punched.


 ERWIN WITH HIS PSI CAN DO
 CALCULATIONS QUITE A FEW.
 BUT ONE THING HAS NOT BEEN SEEN
 JUST WHAT DOES PSI REALLY MEAN.
 -- WALTER HUCKEL, TRANS. BY FELIX BLOCH
 Job cpu time:       3 days  6 hours  7 minutes 10.8 seconds.
 Elapsed time:       0 days  1 hours 39 minutes 20.6 seconds.
 File lengths (MBytes):  RWF=   3343 Int=      0 D2E=      0 Chk=     80 Scr=      1
 Normal termination of Gaussian 16 at Wed Jun  8 12:37:56 2022.
