 Entering Gaussian System, Link 0=g16
 Input=TS_NCNPtMePh_NCNPt_PhMe.com
 Output=TS_NCNPtMePh_NCNPt_PhMe.log
 Initial command:
 /usr/local/g16/l1.exe "/hdd/Gau-98598.inp" -scrdir="/hdd/"
 Entering Link 1 = /usr/local/g16/l1.exe PID=     98600.
  
 Copyright (c) 1988-2019, Gaussian, Inc.  All Rights Reserved.
  
 This is part of the Gaussian(R) 16 program.  It is based on
 the Gaussian(R) 09 system (copyright 2009, Gaussian, Inc.),
 the Gaussian(R) 03 system (copyright 2003, Gaussian, Inc.),
 the Gaussian(R) 98 system (copyright 1998, Gaussian, Inc.),
 the Gaussian(R) 94 system (copyright 1995, Gaussian, Inc.),
 the Gaussian 92(TM) system (copyright 1992, Gaussian, Inc.),
 the Gaussian 90(TM) system (copyright 1990, Gaussian, Inc.),
 the Gaussian 88(TM) system (copyright 1988, Gaussian, Inc.),
 the Gaussian 86(TM) system (copyright 1986, Carnegie Mellon
 University), and the Gaussian 82(TM) system (copyright 1983,
 Carnegie Mellon University). Gaussian is a federally registered
 trademark of Gaussian, Inc.
  
 This software contains proprietary and confidential information,
 including trade secrets, belonging to Gaussian, Inc.
  
 This software is provided under written license and may be
 used, copied, transmitted, or stored only in accord with that
 written license.
  
 The following legend is applicable only to US Government
 contracts under FAR:
  
                    RESTRICTED RIGHTS LEGEND
  
 Use, reproduction and disclosure by the US Government is
 subject to restrictions as set forth in subparagraphs (a)
 and (c) of the Commercial Computer Software - Restricted
 Rights clause in FAR 52.227-19.
  
 Gaussian, Inc.
 340 Quinnipiac St., Bldg. 40, Wallingford CT 06492
  
  
 ---------------------------------------------------------------
 Warning -- This program may not be used in any manner that
 competes with the business of Gaussian, Inc. or will provide
 assistance to any competitor of Gaussian, Inc.  The licensee
 of this program is prohibited from giving any competitor of
 Gaussian, Inc. access to this program.  By using this program,
 the user acknowledges that Gaussian, Inc. is engaged in the
 business of creating and licensing software in the field of
 computational chemistry and represents and warrants to the
 licensee that it is not a competitor of Gaussian, Inc. and that
 it will not use this program in any manner prohibited above.
 ---------------------------------------------------------------
  

 Cite this work as:
 Gaussian 16, Revision C.01,
 M. J. Frisch, G. W. Trucks, H. B. Schlegel, G. E. Scuseria, 
 M. A. Robb, J. R. Cheeseman, G. Scalmani, V. Barone, 
 G. A. Petersson, H. Nakatsuji, X. Li, M. Caricato, A. V. Marenich, 
 J. Bloino, B. G. Janesko, R. Gomperts, B. Mennucci, H. P. Hratchian, 
 J. V. Ortiz, A. F. Izmaylov, J. L. Sonnenberg, D. Williams-Young, 
 F. Ding, F. Lipparini, F. Egidi, J. Goings, B. Peng, A. Petrone, 
 T. Henderson, D. Ranasinghe, V. G. Zakrzewski, J. Gao, N. Rega, 
 G. Zheng, W. Liang, M. Hada, M. Ehara, K. Toyota, R. Fukuda, 
 J. Hasegawa, M. Ishida, T. Nakajima, Y. Honda, O. Kitao, H. Nakai, 
 T. Vreven, K. Throssell, J. A. Montgomery, Jr., J. E. Peralta, 
 F. Ogliaro, M. J. Bearpark, J. J. Heyd, E. N. Brothers, K. N. Kudin, 
 V. N. Staroverov, T. A. Keith, R. Kobayashi, J. Normand, 
 K. Raghavachari, A. P. Rendell, J. C. Burant, S. S. Iyengar, 
 J. Tomasi, M. Cossi, J. M. Millam, M. Klene, C. Adamo, R. Cammi, 
 J. W. Ochterski, R. L. Martin, K. Morokuma, O. Farkas, 
 J. B. Foresman, and D. J. Fox, Gaussian, Inc., Wallingford CT, 2019.
 
 ******************************************
 Gaussian 16:  ES64L-G16RevC.01  3-Jul-2019
                29-May-2022 
 ******************************************
 %nprocshared=12
 Will use up to   12 processors via shared memory.
 %mem=128MW
 %chk=TS_NCNPtMePh_NCNPt_PhMe.chk
 ----------------------------------------------------------------------
 # opt=(ts,calcFC,noeigentest) freq gen scrf=(iefpcm,solvent=thf) m06 E
 mpiricalDispersion=GD3 Pseudo=Read
 ----------------------------------------------------------------------
 1/5=1,10=4,11=1,18=20,26=3,38=1/1,3;
 2/9=110,12=2,17=6,18=5,40=1/2;
 3/5=7,11=2,16=1,17=8,25=1,30=1,70=2201,71=2,72=20,74=-54,124=31,140=1/1,2,3;
 4//1;
 5/5=2,38=5,53=20/2;
 8/6=4,10=90,11=11/1;
 11/6=1,8=1,9=11,15=111,16=1/1,2,10;
 10/6=1,13=1/2;
 6/7=2,8=2,9=2,10=2,28=1/1;
 7/10=1,25=1/1,2,3,16;
 1/5=1,10=4,11=1,18=20,26=3/3(2);
 2/9=110/2;
 99//99;
 2/9=110/2;
 3/5=7,6=1,11=2,16=1,17=8,25=1,30=1,70=2205,71=1,72=20,74=-54,82=7,124=31/1,2,3;
 4/5=5,16=3,69=1/1;
 5/5=2,38=5,53=20/2;
 7//1,2,3,16;
 1/5=1,11=1,18=20,26=3/3(-5);
 2/9=110/2;
 6/7=2,8=2,9=2,10=2,19=2,28=1/1;
 99/9=1/99;
 ----------------------------------------------------------------------
 TS between (NCN)PtMe[eq]Ph[ax] and NCNPt + PhMe; M06 with Custom Lanl2
 tz(f)+6-311g(d,p) basis set
 ----------------------------------------------------------------------
 Symbolic Z-matrix:
 Charge =  1 Multiplicity = 1
 Pt                    0.10716  -0.11048  -0.1902 
 C                    -1.261     0.98848   0.76223 
 C                    -2.46467   0.3805    1.12841 
 C                    -0.96951   2.30757   1.10763 
 C                    -3.4405    1.14347   1.77796 
 C                    -1.94356   3.07512   1.7559 
 C                    -3.1801    2.49186   2.06882 
 H                    -4.39046   0.69907   2.06464 
 H                    -1.74404   4.10866   2.02837 
 H                    -3.94135   3.08722   2.56332 
 N                     1.00972   1.90754  -0.30081 
 N                    -1.69737  -1.42626  -0.35304 
 C                     1.28561  -1.48193  -1.80127 
 H                     0.40686  -1.19464  -2.38836 
 H                     2.1757   -1.06319  -2.25829 
 H                     1.35949  -2.56514  -1.76046 
 C                    -2.53477  -1.09507   0.86421 
 H                    -2.09256  -1.63568   1.71089 
 H                    -3.55922  -1.465     0.73816 
 C                     0.44776   2.7095    0.85355 
 H                     1.05891   2.44791   1.7279 
 H                     0.57456   3.78267   0.67626 
 C                     2.51057   1.92313  -0.24269 
 C                     3.19873   3.28114  -0.329 
 H                     2.84559   1.2973   -1.06673 
 H                     2.78572   1.42317   0.6923 
 H                     4.27041   3.12629  -0.1704 
 H                     3.07879   3.74466  -1.31215 
 H                     2.85438   3.98114   0.43856 
 C                     0.49759   2.4102   -1.65015 
 C                     0.26049   3.91164  -1.78953 
 H                    -0.4508    1.90479  -1.8554 
 H                     1.2196    2.05296  -2.3937 
 H                    -0.00797   4.10787  -2.8323 
 H                    -0.57883   4.24691  -1.17139 
 H                     1.13473   4.52174  -1.55224 
 C                    -2.38746  -0.89731  -1.60209 
 C                    -3.6875   -1.58355  -2.00522 
 H                    -1.66607  -0.97779  -2.4218 
 H                    -2.57037   0.16798  -1.43294 
 H                    -4.09225  -1.0475   -2.86919 
 H                    -3.53559  -2.62299  -2.30865 
 H                    -4.44839  -1.54923  -1.2189 
 C                    -1.42876  -2.91138  -0.48706 
 C                    -2.50708  -3.85707   0.03717 
 H                    -0.49211  -3.12984   0.0311 
 H                    -1.25105  -3.09925  -1.55143 
 H                    -2.20003  -4.87964  -0.2032 
 H                    -2.61365  -3.79912   1.12418 
 H                    -3.48683  -3.68935  -0.4164 
 C                     1.93725  -1.47036  -0.0742 
 C                     3.28199  -1.06585  -0.16564 
 C                     1.59824  -2.46169   0.87057 
 C                     4.24032  -1.57733   0.71403 
 H                     3.61136  -0.36713  -0.9286 
 C                     2.56419  -2.9691    1.74561 
 H                     0.57508  -2.80859   0.98522 
 C                     3.89026  -2.53112   1.67494 
 H                     5.26864  -1.23967   0.62725 
 H                     2.26856  -3.70774   2.48442 
 H                     4.63942  -2.93593   2.34738 
 

 GradGradGradGradGradGradGradGradGradGradGradGradGradGradGradGradGradGrad
 Berny optimization.
 Initialization pass.
                           ----------------------------
                           !    Initial Parameters    !
                           ! (Angstroms and Degrees)  !
 --------------------------                            --------------------------
 ! Name  Definition              Value          Derivative Info.                !
 --------------------------------------------------------------------------------
 ! R1    R(1,2)                  1.9967         calculate D2E/DX2 analytically  !
 ! R2    R(1,11)                 2.2134         calculate D2E/DX2 analytically  !
 ! R3    R(1,12)                 2.2392         calculate D2E/DX2 analytically  !
 ! R4    R(1,13)                 2.4218         calculate D2E/DX2 analytically  !
 ! R5    R(1,51)                 2.283          calculate D2E/DX2 analytically  !
 ! R6    R(2,3)                  1.3973         calculate D2E/DX2 analytically  !
 ! R7    R(2,4)                  1.3944         calculate D2E/DX2 analytically  !
 ! R8    R(3,5)                  1.3987         calculate D2E/DX2 analytically  !
 ! R9    R(3,17)                 1.5007         calculate D2E/DX2 analytically  !
 ! R10   R(4,6)                  1.3993         calculate D2E/DX2 analytically  !
 ! R11   R(4,20)                 1.4949         calculate D2E/DX2 analytically  !
 ! R12   R(5,7)                  1.4038         calculate D2E/DX2 analytically  !
 ! R13   R(5,8)                  1.0872         calculate D2E/DX2 analytically  !
 ! R14   R(6,7)                  1.4025         calculate D2E/DX2 analytically  !
 ! R15   R(6,9)                  1.0873         calculate D2E/DX2 analytically  !
 ! R16   R(7,10)                 1.0856         calculate D2E/DX2 analytically  !
 ! R17   R(11,20)                1.5138         calculate D2E/DX2 analytically  !
 ! R18   R(11,23)                1.5021         calculate D2E/DX2 analytically  !
 ! R19   R(11,30)                1.5283         calculate D2E/DX2 analytically  !
 ! R20   R(12,17)                1.5141         calculate D2E/DX2 analytically  !
 ! R21   R(12,37)                1.5219         calculate D2E/DX2 analytically  !
 ! R22   R(12,44)                1.5152         calculate D2E/DX2 analytically  !
 ! R23   R(13,14)                1.0952         calculate D2E/DX2 analytically  !
 ! R24   R(13,15)                1.0846         calculate D2E/DX2 analytically  !
 ! R25   R(13,16)                1.0865         calculate D2E/DX2 analytically  !
 ! R26   R(17,18)                1.0976         calculate D2E/DX2 analytically  !
 ! R27   R(17,19)                1.0965         calculate D2E/DX2 analytically  !
 ! R28   R(20,21)                1.0984         calculate D2E/DX2 analytically  !
 ! R29   R(20,22)                1.0951         calculate D2E/DX2 analytically  !
 ! R30   R(23,24)                1.5249         calculate D2E/DX2 analytically  !
 ! R31   R(23,25)                1.0876         calculate D2E/DX2 analytically  !
 ! R32   R(23,26)                1.0954         calculate D2E/DX2 analytically  !
 ! R33   R(24,27)                1.0944         calculate D2E/DX2 analytically  !
 ! R34   R(24,28)                1.0935         calculate D2E/DX2 analytically  !
 ! R35   R(24,29)                1.0944         calculate D2E/DX2 analytically  !
 ! R36   R(30,31)                1.5264         calculate D2E/DX2 analytically  !
 ! R37   R(30,32)                1.0941         calculate D2E/DX2 analytically  !
 ! R38   R(30,33)                1.0963         calculate D2E/DX2 analytically  !
 ! R39   R(31,34)                1.0945         calculate D2E/DX2 analytically  !
 ! R40   R(31,35)                1.095          calculate D2E/DX2 analytically  !
 ! R41   R(31,36)                1.0922         calculate D2E/DX2 analytically  !
 ! R42   R(37,38)                1.5243         calculate D2E/DX2 analytically  !
 ! R43   R(37,39)                1.0949         calculate D2E/DX2 analytically  !
 ! R44   R(37,40)                1.094          calculate D2E/DX2 analytically  !
 ! R45   R(38,41)                1.0944         calculate D2E/DX2 analytically  !
 ! R46   R(38,42)                1.0934         calculate D2E/DX2 analytically  !
 ! R47   R(38,43)                1.0947         calculate D2E/DX2 analytically  !
 ! R48   R(44,45)                1.5271         calculate D2E/DX2 analytically  !
 ! R49   R(44,46)                1.0925         calculate D2E/DX2 analytically  !
 ! R50   R(44,47)                1.0953         calculate D2E/DX2 analytically  !
 ! R51   R(45,48)                1.0944         calculate D2E/DX2 analytically  !
 ! R52   R(45,49)                1.0938         calculate D2E/DX2 analytically  !
 ! R53   R(45,50)                1.0926         calculate D2E/DX2 analytically  !
 ! R54   R(51,52)                1.4072         calculate D2E/DX2 analytically  !
 ! R55   R(51,53)                1.4108         calculate D2E/DX2 analytically  !
 ! R56   R(52,54)                1.3978         calculate D2E/DX2 analytically  !
 ! R57   R(52,55)                1.0857         calculate D2E/DX2 analytically  !
 ! R58   R(53,56)                1.3986         calculate D2E/DX2 analytically  !
 ! R59   R(53,57)                1.0864         calculate D2E/DX2 analytically  !
 ! R60   R(54,58)                1.3984         calculate D2E/DX2 analytically  !
 ! R61   R(54,59)                1.0858         calculate D2E/DX2 analytically  !
 ! R62   R(56,58)                1.3983         calculate D2E/DX2 analytically  !
 ! R63   R(56,60)                1.0857         calculate D2E/DX2 analytically  !
 ! R64   R(58,61)                1.085          calculate D2E/DX2 analytically  !
 ! A1    A(2,1,11)              78.5475         calculate D2E/DX2 analytically  !
 ! A2    A(2,1,12)              78.8079         calculate D2E/DX2 analytically  !
 ! A3    A(2,1,13)             164.2456         calculate D2E/DX2 analytically  !
 ! A4    A(2,1,51)             148.5287         calculate D2E/DX2 analytically  !
 ! A5    A(11,1,12)            149.3957         calculate D2E/DX2 analytically  !
 ! A6    A(11,1,13)            106.537          calculate D2E/DX2 analytically  !
 ! A7    A(11,1,51)            102.635          calculate D2E/DX2 analytically  !
 ! A8    A(12,1,13)             90.6306         calculate D2E/DX2 analytically  !
 ! A9    A(12,1,51)            107.439          calculate D2E/DX2 analytically  !
 ! A10   A(13,1,51)             46.0854         calculate D2E/DX2 analytically  !
 ! A11   A(1,2,3)              118.4102         calculate D2E/DX2 analytically  !
 ! A12   A(1,2,4)              119.7091         calculate D2E/DX2 analytically  !
 ! A13   A(3,2,4)              121.7873         calculate D2E/DX2 analytically  !
 ! A14   A(2,3,5)              119.035          calculate D2E/DX2 analytically  !
 ! A15   A(2,3,17)             114.9561         calculate D2E/DX2 analytically  !
 ! A16   A(5,3,17)             125.841          calculate D2E/DX2 analytically  !
 ! A17   A(2,4,6)              119.2182         calculate D2E/DX2 analytically  !
 ! A18   A(2,4,20)             114.2323         calculate D2E/DX2 analytically  !
 ! A19   A(6,4,20)             126.2415         calculate D2E/DX2 analytically  !
 ! A20   A(3,5,7)              119.3919         calculate D2E/DX2 analytically  !
 ! A21   A(3,5,8)              120.6021         calculate D2E/DX2 analytically  !
 ! A22   A(7,5,8)              120.0041         calculate D2E/DX2 analytically  !
 ! A23   A(4,6,7)              119.2714         calculate D2E/DX2 analytically  !
 ! A24   A(4,6,9)              120.6465         calculate D2E/DX2 analytically  !
 ! A25   A(7,6,9)              120.0769         calculate D2E/DX2 analytically  !
 ! A26   A(5,7,6)              121.1157         calculate D2E/DX2 analytically  !
 ! A27   A(5,7,10)             119.4121         calculate D2E/DX2 analytically  !
 ! A28   A(6,7,10)             119.4594         calculate D2E/DX2 analytically  !
 ! A29   A(1,11,20)            107.069          calculate D2E/DX2 analytically  !
 ! A30   A(1,11,23)            114.5176         calculate D2E/DX2 analytically  !
 ! A31   A(1,11,30)            101.9671         calculate D2E/DX2 analytically  !
 ! A32   A(20,11,23)           109.6286         calculate D2E/DX2 analytically  !
 ! A33   A(20,11,30)           112.0017         calculate D2E/DX2 analytically  !
 ! A34   A(23,11,30)           111.4437         calculate D2E/DX2 analytically  !
 ! A35   A(1,12,17)            104.9933         calculate D2E/DX2 analytically  !
 ! A36   A(1,12,37)            102.7602         calculate D2E/DX2 analytically  !
 ! A37   A(1,12,44)            116.0733         calculate D2E/DX2 analytically  !
 ! A38   A(17,12,37)           109.4512         calculate D2E/DX2 analytically  !
 ! A39   A(17,12,44)           112.5539         calculate D2E/DX2 analytically  !
 ! A40   A(37,12,44)           110.393          calculate D2E/DX2 analytically  !
 ! A41   A(1,13,14)             79.4916         calculate D2E/DX2 analytically  !
 ! A42   A(1,13,15)            117.4508         calculate D2E/DX2 analytically  !
 ! A43   A(1,13,16)            124.9371         calculate D2E/DX2 analytically  !
 ! A44   A(14,13,15)           109.3487         calculate D2E/DX2 analytically  !
 ! A45   A(14,13,16)           109.6464         calculate D2E/DX2 analytically  !
 ! A46   A(15,13,16)           110.1773         calculate D2E/DX2 analytically  !
 ! A47   A(3,17,12)            109.3153         calculate D2E/DX2 analytically  !
 ! A48   A(3,17,18)            109.249          calculate D2E/DX2 analytically  !
 ! A49   A(3,17,19)            113.3051         calculate D2E/DX2 analytically  !
 ! A50   A(12,17,18)           106.8338         calculate D2E/DX2 analytically  !
 ! A51   A(12,17,19)           110.5189         calculate D2E/DX2 analytically  !
 ! A52   A(18,17,19)           107.3938         calculate D2E/DX2 analytically  !
 ! A53   A(4,20,11)            109.8234         calculate D2E/DX2 analytically  !
 ! A54   A(4,20,21)            109.1586         calculate D2E/DX2 analytically  !
 ! A55   A(4,20,22)            113.6269         calculate D2E/DX2 analytically  !
 ! A56   A(11,20,21)           105.9211         calculate D2E/DX2 analytically  !
 ! A57   A(11,20,22)           110.6545         calculate D2E/DX2 analytically  !
 ! A58   A(21,20,22)           107.3282         calculate D2E/DX2 analytically  !
 ! A59   A(11,23,24)           117.2573         calculate D2E/DX2 analytically  !
 ! A60   A(11,23,25)           105.812          calculate D2E/DX2 analytically  !
 ! A61   A(11,23,26)           106.2171         calculate D2E/DX2 analytically  !
 ! A62   A(24,23,25)           109.3022         calculate D2E/DX2 analytically  !
 ! A63   A(24,23,26)           109.9647         calculate D2E/DX2 analytically  !
 ! A64   A(25,23,26)           107.8605         calculate D2E/DX2 analytically  !
 ! A65   A(23,24,27)           107.9218         calculate D2E/DX2 analytically  !
 ! A66   A(23,24,28)           112.2644         calculate D2E/DX2 analytically  !
 ! A67   A(23,24,29)           112.8254         calculate D2E/DX2 analytically  !
 ! A68   A(27,24,28)           107.3181         calculate D2E/DX2 analytically  !
 ! A69   A(27,24,29)           107.2771         calculate D2E/DX2 analytically  !
 ! A70   A(28,24,29)           108.9616         calculate D2E/DX2 analytically  !
 ! A71   A(11,30,31)           117.142          calculate D2E/DX2 analytically  !
 ! A72   A(11,30,32)           107.7082         calculate D2E/DX2 analytically  !
 ! A73   A(11,30,33)           105.7211         calculate D2E/DX2 analytically  !
 ! A74   A(31,30,32)           107.615          calculate D2E/DX2 analytically  !
 ! A75   A(31,30,33)           111.1561         calculate D2E/DX2 analytically  !
 ! A76   A(32,30,33)           107.0453         calculate D2E/DX2 analytically  !
 ! A77   A(30,31,34)           107.5445         calculate D2E/DX2 analytically  !
 ! A78   A(30,31,35)           111.635          calculate D2E/DX2 analytically  !
 ! A79   A(30,31,36)           113.9097         calculate D2E/DX2 analytically  !
 ! A80   A(34,31,35)           107.1538         calculate D2E/DX2 analytically  !
 ! A81   A(34,31,36)           107.649          calculate D2E/DX2 analytically  !
 ! A82   A(35,31,36)           108.6556         calculate D2E/DX2 analytically  !
 ! A83   A(12,37,38)           116.5713         calculate D2E/DX2 analytically  !
 ! A84   A(12,37,39)           106.8669         calculate D2E/DX2 analytically  !
 ! A85   A(12,37,40)           106.699          calculate D2E/DX2 analytically  !
 ! A86   A(38,37,39)           109.3198         calculate D2E/DX2 analytically  !
 ! A87   A(38,37,40)           109.6735         calculate D2E/DX2 analytically  !
 ! A88   A(39,37,40)           107.3062         calculate D2E/DX2 analytically  !
 ! A89   A(37,38,41)           107.6802         calculate D2E/DX2 analytically  !
 ! A90   A(37,38,42)           112.5112         calculate D2E/DX2 analytically  !
 ! A91   A(37,38,43)           112.8741         calculate D2E/DX2 analytically  !
 ! A92   A(41,38,42)           107.3346         calculate D2E/DX2 analytically  !
 ! A93   A(41,38,43)           107.136          calculate D2E/DX2 analytically  !
 ! A94   A(42,38,43)           109.0078         calculate D2E/DX2 analytically  !
 ! A95   A(12,44,45)           116.8371         calculate D2E/DX2 analytically  !
 ! A96   A(12,44,46)           107.8211         calculate D2E/DX2 analytically  !
 ! A97   A(12,44,47)           106.4296         calculate D2E/DX2 analytically  !
 ! A98   A(45,44,46)           108.5876         calculate D2E/DX2 analytically  !
 ! A99   A(45,44,47)           109.9945         calculate D2E/DX2 analytically  !
 ! A100  A(46,44,47)           106.7079         calculate D2E/DX2 analytically  !
 ! A101  A(44,45,48)           107.7653         calculate D2E/DX2 analytically  !
 ! A102  A(44,45,49)           112.158          calculate D2E/DX2 analytically  !
 ! A103  A(44,45,50)           113.3051         calculate D2E/DX2 analytically  !
 ! A104  A(48,45,49)           107.1653         calculate D2E/DX2 analytically  !
 ! A105  A(48,45,50)           107.6888         calculate D2E/DX2 analytically  !
 ! A106  A(49,45,50)           108.4857         calculate D2E/DX2 analytically  !
 ! A107  A(1,51,52)            126.2638         calculate D2E/DX2 analytically  !
 ! A108  A(1,51,53)            105.0678         calculate D2E/DX2 analytically  !
 ! A109  A(52,51,53)           118.3681         calculate D2E/DX2 analytically  !
 ! A110  A(51,52,54)           120.6028         calculate D2E/DX2 analytically  !
 ! A111  A(51,52,55)           121.3689         calculate D2E/DX2 analytically  !
 ! A112  A(54,52,55)           118.0168         calculate D2E/DX2 analytically  !
 ! A113  A(51,53,56)           120.5271         calculate D2E/DX2 analytically  !
 ! A114  A(51,53,57)           121.4227         calculate D2E/DX2 analytically  !
 ! A115  A(56,53,57)           117.9399         calculate D2E/DX2 analytically  !
 ! A116  A(52,54,58)           120.6892         calculate D2E/DX2 analytically  !
 ! A117  A(52,54,59)           119.0265         calculate D2E/DX2 analytically  !
 ! A118  A(58,54,59)           120.2707         calculate D2E/DX2 analytically  !
 ! A119  A(53,56,58)           120.6433         calculate D2E/DX2 analytically  !
 ! A120  A(53,56,60)           118.9791         calculate D2E/DX2 analytically  !
 ! A121  A(58,56,60)           120.3774         calculate D2E/DX2 analytically  !
 ! A122  A(54,58,56)           119.0616         calculate D2E/DX2 analytically  !
 ! A123  A(54,58,61)           120.4956         calculate D2E/DX2 analytically  !
 ! A124  A(56,58,61)           120.4375         calculate D2E/DX2 analytically  !
 ! D1    D(11,1,2,3)           172.9326         calculate D2E/DX2 analytically  !
 ! D2    D(11,1,2,4)           -10.5179         calculate D2E/DX2 analytically  !
 ! D3    D(12,1,2,3)            13.6561         calculate D2E/DX2 analytically  !
 ! D4    D(12,1,2,4)          -169.7944         calculate D2E/DX2 analytically  !
 ! D5    D(13,1,2,3)            62.3533         calculate D2E/DX2 analytically  !
 ! D6    D(13,1,2,4)          -121.0972         calculate D2E/DX2 analytically  !
 ! D7    D(51,1,2,3)           -91.5282         calculate D2E/DX2 analytically  !
 ! D8    D(51,1,2,4)            85.0213         calculate D2E/DX2 analytically  !
 ! D9    D(2,1,11,20)           24.6647         calculate D2E/DX2 analytically  !
 ! D10   D(2,1,11,23)          146.4184         calculate D2E/DX2 analytically  !
 ! D11   D(2,1,11,30)          -93.0898         calculate D2E/DX2 analytically  !
 ! D12   D(12,1,11,20)          67.6524         calculate D2E/DX2 analytically  !
 ! D13   D(12,1,11,23)        -170.594          calculate D2E/DX2 analytically  !
 ! D14   D(12,1,11,30)         -50.1021         calculate D2E/DX2 analytically  !
 ! D15   D(13,1,11,20)        -170.7115         calculate D2E/DX2 analytically  !
 ! D16   D(13,1,11,23)         -48.9579         calculate D2E/DX2 analytically  !
 ! D17   D(13,1,11,30)          71.534          calculate D2E/DX2 analytically  !
 ! D18   D(51,1,11,20)        -123.1587         calculate D2E/DX2 analytically  !
 ! D19   D(51,1,11,23)          -1.4051         calculate D2E/DX2 analytically  !
 ! D20   D(51,1,11,30)         119.0868         calculate D2E/DX2 analytically  !
 ! D21   D(2,1,12,17)          -28.5175         calculate D2E/DX2 analytically  !
 ! D22   D(2,1,12,37)           85.9465         calculate D2E/DX2 analytically  !
 ! D23   D(2,1,12,44)         -153.4847         calculate D2E/DX2 analytically  !
 ! D24   D(11,1,12,17)         -71.4566         calculate D2E/DX2 analytically  !
 ! D25   D(11,1,12,37)          43.0074         calculate D2E/DX2 analytically  !
 ! D26   D(11,1,12,44)         163.5762         calculate D2E/DX2 analytically  !
 ! D27   D(13,1,12,17)         163.2525         calculate D2E/DX2 analytically  !
 ! D28   D(13,1,12,37)         -82.2835         calculate D2E/DX2 analytically  !
 ! D29   D(13,1,12,44)          38.2853         calculate D2E/DX2 analytically  !
 ! D30   D(51,1,12,17)         119.604          calculate D2E/DX2 analytically  !
 ! D31   D(51,1,12,37)        -125.932          calculate D2E/DX2 analytically  !
 ! D32   D(51,1,12,44)          -5.3632         calculate D2E/DX2 analytically  !
 ! D33   D(2,1,13,14)            9.9411         calculate D2E/DX2 analytically  !
 ! D34   D(2,1,13,15)          116.4022         calculate D2E/DX2 analytically  !
 ! D35   D(2,1,13,16)          -96.7699         calculate D2E/DX2 analytically  !
 ! D36   D(11,1,13,14)         -96.8948         calculate D2E/DX2 analytically  !
 ! D37   D(11,1,13,15)           9.5663         calculate D2E/DX2 analytically  !
 ! D38   D(11,1,13,16)         156.3942         calculate D2E/DX2 analytically  !
 ! D39   D(12,1,13,14)          57.4168         calculate D2E/DX2 analytically  !
 ! D40   D(12,1,13,15)         163.8779         calculate D2E/DX2 analytically  !
 ! D41   D(12,1,13,16)         -49.2942         calculate D2E/DX2 analytically  !
 ! D42   D(51,1,13,14)         171.336          calculate D2E/DX2 analytically  !
 ! D43   D(51,1,13,15)         -82.2029         calculate D2E/DX2 analytically  !
 ! D44   D(51,1,13,16)          64.625          calculate D2E/DX2 analytically  !
 ! D45   D(2,1,51,52)          -93.1434         calculate D2E/DX2 analytically  !
 ! D46   D(2,1,51,53)           50.7337         calculate D2E/DX2 analytically  !
 ! D47   D(11,1,51,52)          -4.4924         calculate D2E/DX2 analytically  !
 ! D48   D(11,1,51,53)         139.3848         calculate D2E/DX2 analytically  !
 ! D49   D(12,1,51,52)         169.763          calculate D2E/DX2 analytically  !
 ! D50   D(12,1,51,53)         -46.3598         calculate D2E/DX2 analytically  !
 ! D51   D(13,1,51,52)          96.4076         calculate D2E/DX2 analytically  !
 ! D52   D(13,1,51,53)        -119.7153         calculate D2E/DX2 analytically  !
 ! D53   D(1,2,3,5)           -179.0327         calculate D2E/DX2 analytically  !
 ! D54   D(1,2,3,17)             5.4023         calculate D2E/DX2 analytically  !
 ! D55   D(4,2,3,5)              4.4932         calculate D2E/DX2 analytically  !
 ! D56   D(4,2,3,17)          -171.0718         calculate D2E/DX2 analytically  !
 ! D57   D(1,2,4,6)            178.9873         calculate D2E/DX2 analytically  !
 ! D58   D(1,2,4,20)            -6.9905         calculate D2E/DX2 analytically  !
 ! D59   D(3,2,4,6)             -4.5834         calculate D2E/DX2 analytically  !
 ! D60   D(3,2,4,20)           169.4389         calculate D2E/DX2 analytically  !
 ! D61   D(2,3,5,7)             -1.1744         calculate D2E/DX2 analytically  !
 ! D62   D(2,3,5,8)            179.3357         calculate D2E/DX2 analytically  !
 ! D63   D(17,3,5,7)           173.8643         calculate D2E/DX2 analytically  !
 ! D64   D(17,3,5,8)            -5.6257         calculate D2E/DX2 analytically  !
 ! D65   D(2,3,17,12)          -31.2498         calculate D2E/DX2 analytically  !
 ! D66   D(2,3,17,18)           85.3293         calculate D2E/DX2 analytically  !
 ! D67   D(2,3,17,19)         -154.9883         calculate D2E/DX2 analytically  !
 ! D68   D(5,3,17,12)          153.5343         calculate D2E/DX2 analytically  !
 ! D69   D(5,3,17,18)          -89.8866         calculate D2E/DX2 analytically  !
 ! D70   D(5,3,17,19)           29.7959         calculate D2E/DX2 analytically  !
 ! D71   D(2,4,6,7)              1.3454         calculate D2E/DX2 analytically  !
 ! D72   D(2,4,6,9)           -179.4877         calculate D2E/DX2 analytically  !
 ! D73   D(20,4,6,7)          -171.8925         calculate D2E/DX2 analytically  !
 ! D74   D(20,4,6,9)             7.2744         calculate D2E/DX2 analytically  !
 ! D75   D(2,4,20,11)           28.8119         calculate D2E/DX2 analytically  !
 ! D76   D(2,4,20,21)          -86.9054         calculate D2E/DX2 analytically  !
 ! D77   D(2,4,20,22)          153.3497         calculate D2E/DX2 analytically  !
 ! D78   D(6,4,20,11)         -157.6588         calculate D2E/DX2 analytically  !
 ! D79   D(6,4,20,21)           86.6239         calculate D2E/DX2 analytically  !
 ! D80   D(6,4,20,22)          -33.121          calculate D2E/DX2 analytically  !
 ! D81   D(3,5,7,6)             -1.9669         calculate D2E/DX2 analytically  !
 ! D82   D(3,5,7,10)           179.3416         calculate D2E/DX2 analytically  !
 ! D83   D(8,5,7,6)            177.5262         calculate D2E/DX2 analytically  !
 ! D84   D(8,5,7,10)            -1.1653         calculate D2E/DX2 analytically  !
 ! D85   D(4,6,7,5)              1.8826         calculate D2E/DX2 analytically  !
 ! D86   D(4,6,7,10)          -179.4265         calculate D2E/DX2 analytically  !
 ! D87   D(9,6,7,5)           -177.2892         calculate D2E/DX2 analytically  !
 ! D88   D(9,6,7,10)             1.4017         calculate D2E/DX2 analytically  !
 ! D89   D(1,11,20,4)          -34.656          calculate D2E/DX2 analytically  !
 ! D90   D(1,11,20,21)          83.0932         calculate D2E/DX2 analytically  !
 ! D91   D(1,11,20,22)        -160.8966         calculate D2E/DX2 analytically  !
 ! D92   D(23,11,20,4)        -159.4329         calculate D2E/DX2 analytically  !
 ! D93   D(23,11,20,21)        -41.6836         calculate D2E/DX2 analytically  !
 ! D94   D(23,11,20,22)         74.3266         calculate D2E/DX2 analytically  !
 ! D95   D(30,11,20,4)          76.3219         calculate D2E/DX2 analytically  !
 ! D96   D(30,11,20,21)       -165.9288         calculate D2E/DX2 analytically  !
 ! D97   D(30,11,20,22)        -49.9186         calculate D2E/DX2 analytically  !
 ! D98   D(1,11,23,24)         179.3654         calculate D2E/DX2 analytically  !
 ! D99   D(1,11,23,25)          57.2            calculate D2E/DX2 analytically  !
 ! D100  D(1,11,23,26)         -57.2777         calculate D2E/DX2 analytically  !
 ! D101  D(20,11,23,24)        -60.2913         calculate D2E/DX2 analytically  !
 ! D102  D(20,11,23,25)        177.5433         calculate D2E/DX2 analytically  !
 ! D103  D(20,11,23,26)         63.0656         calculate D2E/DX2 analytically  !
 ! D104  D(30,11,23,24)         64.2785         calculate D2E/DX2 analytically  !
 ! D105  D(30,11,23,25)        -57.8869         calculate D2E/DX2 analytically  !
 ! D106  D(30,11,23,26)       -172.3646         calculate D2E/DX2 analytically  !
 ! D107  D(1,11,30,31)         148.648          calculate D2E/DX2 analytically  !
 ! D108  D(1,11,30,32)          27.2706         calculate D2E/DX2 analytically  !
 ! D109  D(1,11,30,33)         -86.9055         calculate D2E/DX2 analytically  !
 ! D110  D(20,11,30,31)         34.4899         calculate D2E/DX2 analytically  !
 ! D111  D(20,11,30,32)        -86.8874         calculate D2E/DX2 analytically  !
 ! D112  D(20,11,30,33)        158.9365         calculate D2E/DX2 analytically  !
 ! D113  D(23,11,30,31)        -88.7371         calculate D2E/DX2 analytically  !
 ! D114  D(23,11,30,32)        149.8856         calculate D2E/DX2 analytically  !
 ! D115  D(23,11,30,33)         35.7095         calculate D2E/DX2 analytically  !
 ! D116  D(1,12,17,3)           38.4615         calculate D2E/DX2 analytically  !
 ! D117  D(1,12,17,18)         -79.6394         calculate D2E/DX2 analytically  !
 ! D118  D(1,12,17,19)         163.8276         calculate D2E/DX2 analytically  !
 ! D119  D(37,12,17,3)         -71.2376         calculate D2E/DX2 analytically  !
 ! D120  D(37,12,17,18)        170.6616         calculate D2E/DX2 analytically  !
 ! D121  D(37,12,17,19)         54.1285         calculate D2E/DX2 analytically  !
 ! D122  D(44,12,17,3)         165.6129         calculate D2E/DX2 analytically  !
 ! D123  D(44,12,17,18)         47.512          calculate D2E/DX2 analytically  !
 ! D124  D(44,12,17,19)        -69.021          calculate D2E/DX2 analytically  !
 ! D125  D(1,12,37,38)        -179.6446         calculate D2E/DX2 analytically  !
 ! D126  D(1,12,37,39)          57.7958         calculate D2E/DX2 analytically  !
 ! D127  D(1,12,37,40)         -56.7545         calculate D2E/DX2 analytically  !
 ! D128  D(17,12,37,38)        -68.4652         calculate D2E/DX2 analytically  !
 ! D129  D(17,12,37,39)        168.9753         calculate D2E/DX2 analytically  !
 ! D130  D(17,12,37,40)         54.4249         calculate D2E/DX2 analytically  !
 ! D131  D(44,12,37,38)         55.955          calculate D2E/DX2 analytically  !
 ! D132  D(44,12,37,39)        -66.6046         calculate D2E/DX2 analytically  !
 ! D133  D(44,12,37,40)        178.8451         calculate D2E/DX2 analytically  !
 ! D134  D(1,12,44,45)         152.2902         calculate D2E/DX2 analytically  !
 ! D135  D(1,12,44,46)          29.7505         calculate D2E/DX2 analytically  !
 ! D136  D(1,12,44,47)         -84.4313         calculate D2E/DX2 analytically  !
 ! D137  D(17,12,44,45)         31.2867         calculate D2E/DX2 analytically  !
 ! D138  D(17,12,44,46)        -91.2529         calculate D2E/DX2 analytically  !
 ! D139  D(17,12,44,47)        154.5653         calculate D2E/DX2 analytically  !
 ! D140  D(37,12,44,45)        -91.3348         calculate D2E/DX2 analytically  !
 ! D141  D(37,12,44,46)        146.1255         calculate D2E/DX2 analytically  !
 ! D142  D(37,12,44,47)         31.9437         calculate D2E/DX2 analytically  !
 ! D143  D(11,23,24,27)        174.3357         calculate D2E/DX2 analytically  !
 ! D144  D(11,23,24,28)        -67.5997         calculate D2E/DX2 analytically  !
 ! D145  D(11,23,24,29)         55.9908         calculate D2E/DX2 analytically  !
 ! D146  D(25,23,24,27)        -65.3187         calculate D2E/DX2 analytically  !
 ! D147  D(25,23,24,28)         52.7459         calculate D2E/DX2 analytically  !
 ! D148  D(25,23,24,29)        176.3364         calculate D2E/DX2 analytically  !
 ! D149  D(26,23,24,27)         52.909          calculate D2E/DX2 analytically  !
 ! D150  D(26,23,24,28)        170.9737         calculate D2E/DX2 analytically  !
 ! D151  D(26,23,24,29)        -65.4359         calculate D2E/DX2 analytically  !
 ! D152  D(11,30,31,34)        174.6698         calculate D2E/DX2 analytically  !
 ! D153  D(11,30,31,35)        -68.0613         calculate D2E/DX2 analytically  !
 ! D154  D(11,30,31,36)         55.4615         calculate D2E/DX2 analytically  !
 ! D155  D(32,30,31,34)        -63.9042         calculate D2E/DX2 analytically  !
 ! D156  D(32,30,31,35)         53.3647         calculate D2E/DX2 analytically  !
 ! D157  D(32,30,31,36)        176.8874         calculate D2E/DX2 analytically  !
 ! D158  D(33,30,31,34)         53.0094         calculate D2E/DX2 analytically  !
 ! D159  D(33,30,31,35)        170.2783         calculate D2E/DX2 analytically  !
 ! D160  D(33,30,31,36)        -66.1989         calculate D2E/DX2 analytically  !
 ! D161  D(12,37,38,41)        175.989          calculate D2E/DX2 analytically  !
 ! D162  D(12,37,38,42)        -65.9362         calculate D2E/DX2 analytically  !
 ! D163  D(12,37,38,43)         57.9467         calculate D2E/DX2 analytically  !
 ! D164  D(39,37,38,41)        -62.7383         calculate D2E/DX2 analytically  !
 ! D165  D(39,37,38,42)         55.3365         calculate D2E/DX2 analytically  !
 ! D166  D(39,37,38,43)        179.2194         calculate D2E/DX2 analytically  !
 ! D167  D(40,37,38,41)         54.6562         calculate D2E/DX2 analytically  !
 ! D168  D(40,37,38,42)        172.731          calculate D2E/DX2 analytically  !
 ! D169  D(40,37,38,43)        -63.386          calculate D2E/DX2 analytically  !
 ! D170  D(12,44,45,48)        175.6224         calculate D2E/DX2 analytically  !
 ! D171  D(12,44,45,49)        -66.6611         calculate D2E/DX2 analytically  !
 ! D172  D(12,44,45,50)         56.5821         calculate D2E/DX2 analytically  !
 ! D173  D(46,44,45,48)        -62.236          calculate D2E/DX2 analytically  !
 ! D174  D(46,44,45,49)         55.4805         calculate D2E/DX2 analytically  !
 ! D175  D(46,44,45,50)        178.7237         calculate D2E/DX2 analytically  !
 ! D176  D(47,44,45,48)         54.1959         calculate D2E/DX2 analytically  !
 ! D177  D(47,44,45,49)        171.9124         calculate D2E/DX2 analytically  !
 ! D178  D(47,44,45,50)        -64.8444         calculate D2E/DX2 analytically  !
 ! D179  D(1,51,52,54)         135.9045         calculate D2E/DX2 analytically  !
 ! D180  D(1,51,52,55)         -45.3572         calculate D2E/DX2 analytically  !
 ! D181  D(53,51,52,54)         -3.7843         calculate D2E/DX2 analytically  !
 ! D182  D(53,51,52,55)        174.954          calculate D2E/DX2 analytically  !
 ! D183  D(1,51,53,56)        -143.5974         calculate D2E/DX2 analytically  !
 ! D184  D(1,51,53,57)          32.5061         calculate D2E/DX2 analytically  !
 ! D185  D(52,51,53,56)          3.7053         calculate D2E/DX2 analytically  !
 ! D186  D(52,51,53,57)        179.8088         calculate D2E/DX2 analytically  !
 ! D187  D(51,52,54,58)          1.9764         calculate D2E/DX2 analytically  !
 ! D188  D(51,52,54,59)       -179.3625         calculate D2E/DX2 analytically  !
 ! D189  D(55,52,54,58)       -176.8033         calculate D2E/DX2 analytically  !
 ! D190  D(55,52,54,59)          1.8577         calculate D2E/DX2 analytically  !
 ! D191  D(51,53,56,58)         -1.8164         calculate D2E/DX2 analytically  !
 ! D192  D(51,53,56,60)        178.009          calculate D2E/DX2 analytically  !
 ! D193  D(57,53,56,58)       -178.0529         calculate D2E/DX2 analytically  !
 ! D194  D(57,53,56,60)          1.7726         calculate D2E/DX2 analytically  !
 ! D195  D(52,54,58,56)          0.0032         calculate D2E/DX2 analytically  !
 ! D196  D(52,54,58,61)        179.1705         calculate D2E/DX2 analytically  !
 ! D197  D(59,54,58,56)       -178.6412         calculate D2E/DX2 analytically  !
 ! D198  D(59,54,58,61)          0.5261         calculate D2E/DX2 analytically  !
 ! D199  D(53,56,58,54)         -0.0796         calculate D2E/DX2 analytically  !
 ! D200  D(53,56,58,61)       -179.2474         calculate D2E/DX2 analytically  !
 ! D201  D(60,56,58,54)       -179.9026         calculate D2E/DX2 analytically  !
 ! D202  D(60,56,58,61)          0.9296         calculate D2E/DX2 analytically  !
 --------------------------------------------------------------------------------
 Trust Radius=3.00D-01 FncErr=1.00D-07 GrdErr=1.00D-06 EigMax=2.50D+02 EigMin=1.00D-04
 Number of steps in this run=    366 maximum allowed number of steps=    366.
 Search for a saddle point of order  1.
 GradGradGradGradGradGradGradGradGradGradGradGradGradGradGradGradGradGrad

 Stoichiometry    C23H35N2Pt(1+)
 Framework group  C1[X(C23H35N2Pt)]
 Deg. of freedom   177
 Full point group                 C1      NOp   1
 Largest Abelian subgroup         C1      NOp   1
 Largest concise Abelian subgroup C1      NOp   1
                         Standard orientation:                         
 ---------------------------------------------------------------------
 Center     Atomic      Atomic             Coordinates (Angstroms)
 Number     Number       Type             X           Y           Z
 ---------------------------------------------------------------------
      1         78           0       -0.107163   -0.110475    0.190200
      2          6           0        1.260995    0.988478   -0.762233
      3          6           0        2.464666    0.380503   -1.128406
      4          6           0        0.969510    2.307569   -1.107626
      5          6           0        3.440497    1.143473   -1.777963
      6          6           0        1.943564    3.075119   -1.755904
      7          6           0        3.180097    2.491861   -2.068825
      8          1           0        4.390457    0.699071   -2.064637
      9          1           0        1.744043    4.108656   -2.028374
     10          1           0        3.941352    3.087215   -2.563323
     11          7           0       -1.009719    1.907536    0.300814
     12          7           0        1.697372   -1.426258    0.353035
     13          6           0       -1.285612   -1.481924    1.801273
     14          1           0       -0.406856   -1.194643    2.388356
     15          1           0       -2.175695   -1.063185    2.258289
     16          1           0       -1.359486   -2.565139    1.760462
     17          6           0        2.534770   -1.095074   -0.864206
     18          1           0        2.092561   -1.635682   -1.710893
     19          1           0        3.559218   -1.465004   -0.738156
     20          6           0       -0.447760    2.709497   -0.853548
     21          1           0       -1.058905    2.447911   -1.727897
     22          1           0       -0.574561    3.782666   -0.676255
     23          6           0       -2.510572    1.923134    0.242685
     24          6           0       -3.198731    3.281145    0.328997
     25          1           0       -2.845590    1.297301    1.066729
     26          1           0       -2.785718    1.423169   -0.692301
     27          1           0       -4.270408    3.126295    0.170399
     28          1           0       -3.078793    3.744658    1.312146
     29          1           0       -2.854373    3.981137   -0.438563
     30          6           0       -0.497585    2.410203    1.650152
     31          6           0       -0.260486    3.911640    1.789534
     32          1           0        0.450801    1.904788    1.855399
     33          1           0       -1.219597    2.052957    2.393704
     34          1           0        0.007969    4.107868    2.832302
     35          1           0        0.578834    4.246907    1.171394
     36          1           0       -1.134730    4.521743    1.552237
     37          6           0        2.387455   -0.897315    1.602091
     38          6           0        3.687502   -1.583555    2.005222
     39          1           0        1.666071   -0.977788    2.421795
     40          1           0        2.570371    0.167977    1.432940
     41          1           0        4.092251   -1.047503    2.869186
     42          1           0        3.535590   -2.622989    2.308650
     43          1           0        4.448393   -1.549231    1.218896
     44          6           0        1.428757   -2.911377    0.487059
     45          6           0        2.507081   -3.857071   -0.037173
     46          1           0        0.492105   -3.129840   -0.031102
     47          1           0        1.251053   -3.099249    1.551432
     48          1           0        2.200024   -4.879639    0.203198
     49          1           0        2.613649   -3.799116   -1.124177
     50          1           0        3.486827   -3.689347    0.416400
     51          6           0       -1.937254   -1.470354    0.074198
     52          6           0       -3.281985   -1.065853    0.165639
     53          6           0       -1.598242   -2.461690   -0.870570
     54          6           0       -4.240323   -1.577332   -0.714028
     55          1           0       -3.611363   -0.367128    0.928598
     56          6           0       -2.564186   -2.969102   -1.745614
     57          1           0       -0.575078   -2.808593   -0.985217
     58          6           0       -3.890264   -2.531113   -1.674942
     59          1           0       -5.268636   -1.239669   -0.627249
     60          1           0       -2.268562   -3.707738   -2.484422
     61          1           0       -4.639422   -2.935923   -2.347376
 ---------------------------------------------------------------------
 Rotational constants (GHZ):           0.2102841           0.1910848           0.1294832
 General basis read from cards:  (5D, 7F)
 ======================================================================================================
                                       Pseudopotential Parameters
 ======================================================================================================
  Center     Atomic      Valence      Angular      Power
  Number     Number     Electrons     Momentum     of R      Exponent        Coefficient   SO-Coeffient
 ======================================================================================================
    1         78           18
                                      G and up 
                                                     1      728.9394056       -0.16192680    0.00000000
                                                     2      320.6567800    -1320.28738520    0.00000000
                                                     2       52.8680174     -298.31781350    0.00000000
                                                     2       12.0280128      -87.58370650    0.00000000
                                                     2        3.5238913       -8.14932740    0.00000000
                                      S - G
                                                     0      409.4437358        2.73342180    0.00000000
                                                     1      274.5419231       59.70243290    0.00000000
                                                     2      127.5658570      891.45895500    0.00000000
                                                     2       32.9036631      368.44676560    0.00000000
                                                     2        5.0593880      238.02630900    0.00000000
                                                     2        4.1506556     -107.05564540    0.00000000
                                      P - G
                                                     0      466.1728892        1.88785680    0.00000000
                                                     1      120.7888259       76.01386290    0.00000000
                                                     2       36.4118791      343.55111160    0.00000000
                                                     2        5.6985408      119.49117860    0.00000000
                                      D - G
                                                     0      249.5650763        2.93436780    0.00000000
                                                     1      126.6678585       59.33065710    0.00000000
                                                     2       63.1430586      452.44451940    0.00000000
                                                     2       17.9059470      210.47694790    0.00000000
                                                     2        4.2239373       58.62541120    0.00000000
                                      F - G
                                                     0      121.8158799        3.95342530    0.00000000
                                                     1       60.8757030       53.85551820    0.00000000
                                                     2       31.4767147      247.43051330    0.00000000
                                                     2        9.8811751      127.81879760    0.00000000
                                                     2        2.7319874       15.37720460    0.00000000
    2          6
                                   No pseudopotential on this center.
    3          6
                                   No pseudopotential on this center.
    4          6
                                   No pseudopotential on this center.
    5          6
                                   No pseudopotential on this center.
    6          6
                                   No pseudopotential on this center.
    7          6
                                   No pseudopotential on this center.
    8          1
                                   No pseudopotential on this center.
    9          1
                                   No pseudopotential on this center.
   10          1
                                   No pseudopotential on this center.
   11          7
                                   No pseudopotential on this center.
   12          7
                                   No pseudopotential on this center.
   13          6
                                   No pseudopotential on this center.
   14          1
                                   No pseudopotential on this center.
   15          1
                                   No pseudopotential on this center.
   16          1
                                   No pseudopotential on this center.
   17          6
                                   No pseudopotential on this center.
   18          1
                                   No pseudopotential on this center.
   19          1
                                   No pseudopotential on this center.
   20          6
                                   No pseudopotential on this center.
   21          1
                                   No pseudopotential on this center.
   22          1
                                   No pseudopotential on this center.
   23          6
                                   No pseudopotential on this center.
   24          6
                                   No pseudopotential on this center.
   25          1
                                   No pseudopotential on this center.
   26          1
                                   No pseudopotential on this center.
   27          1
                                   No pseudopotential on this center.
   28          1
                                   No pseudopotential on this center.
   29          1
                                   No pseudopotential on this center.
   30          6
                                   No pseudopotential on this center.
   31          6
                                   No pseudopotential on this center.
   32          1
                                   No pseudopotential on this center.
   33          1
                                   No pseudopotential on this center.
   34          1
                                   No pseudopotential on this center.
   35          1
                                   No pseudopotential on this center.
   36          1
                                   No pseudopotential on this center.
   37          6
                                   No pseudopotential on this center.
   38          6
                                   No pseudopotential on this center.
   39          1
                                   No pseudopotential on this center.
   40          1
                                   No pseudopotential on this center.
   41          1
                                   No pseudopotential on this center.
   42          1
                                   No pseudopotential on this center.
   43          1
                                   No pseudopotential on this center.
   44          6
                                   No pseudopotential on this center.
   45          6
                                   No pseudopotential on this center.
   46          1
                                   No pseudopotential on this center.
   47          1
                                   No pseudopotential on this center.
   48          1
                                   No pseudopotential on this center.
   49          1
                                   No pseudopotential on this center.
   50          1
                                   No pseudopotential on this center.
   51          6
                                   No pseudopotential on this center.
   52          6
                                   No pseudopotential on this center.
   53          6
                                   No pseudopotential on this center.
   54          6
                                   No pseudopotential on this center.
   55          1
                                   No pseudopotential on this center.
   56          6
                                   No pseudopotential on this center.
   57          1
                                   No pseudopotential on this center.
   58          6
                                   No pseudopotential on this center.
   59          1
                                   No pseudopotential on this center.
   60          1
                                   No pseudopotential on this center.
   61          1
                                   No pseudopotential on this center.
 ======================================================================================================
 There are   883 symmetry adapted cartesian basis functions of A   symmetry.
 There are   827 symmetry adapted basis functions of A   symmetry.
   827 basis functions,  1278 primitive gaussians,   883 cartesian basis functions
   102 alpha electrons      102 beta electrons
       nuclear repulsion energy      2830.2689276039 Hartrees.
 NAtoms=   61 NActive=   61 NUniq=   61 SFac= 1.00D+00 NAtFMM=   60 NAOKFM=T Big=T
 Integral buffers will be    131072 words long.
 Raffenetti 2 integral format.
 Two-electron integral symmetry is turned on.
 Nuclear repulsion after empirical dispersion term =     2830.2518486527 Hartrees.
 Force inversion solution in PCM.
 ------------------------------------------------------------------------------
 Polarizable Continuum Model (PCM)
 =================================
 Model                : PCM.
 Atomic radii         : UFF (Universal Force Field).
 Polarization charges : Total charges.
 Charge compensation  : None.
 Solution method      : Matrix inversion.
 Cavity type          : Scaled VdW (van der Waals Surface) (Alpha=1.100).
 Cavity algorithm     : GePol (No added spheres)
                        Default sphere list used, NSphG=   61.
                        Lebedev-Laikov grids with approx.  5.0 points / Ang**2.
                        Smoothing algorithm: York/Karplus (Gamma=1.0000).
                        Polarization charges: spherical gaussians, with
                                              point-specific exponents (IZeta= 3).
                        Self-potential: point-specific (ISelfS= 7).
                        Self-field    : sphere-specific E.n sum rule (ISelfD= 2).
 1st derivatives      : Analytical E(r).r(x)/FMM algorithm (CHGder, D1EAlg=3).
                        Cavity 1st derivative terms included.
 2nd derivatives      : Analytical E(r).r(xy)/FMM algorithm (CHGder, D2EAlg=3).
                        Cavity 2nd derivative terms included.
 Solvent              : TetraHydroFuran, Eps=   7.425700 Eps(inf)=   1.974025
 ------------------------------------------------------------------------------
 One-electron integrals computed using PRISM.
   1 Symmetry operations used in ECPInt.
 ECPInt:  NShTT=   46360 NPrTT=  151530 LenC2=   39512 LenP2D=   84899.
 LDataN:  DoStor=T MaxTD1= 7 Len=  274
 Number of processors reduced to  10 by ecpmxn.
 NBasis=   827 RedAO= T EigKep=  4.90D-05  NBF=   827
 NBsUse=   827 1.00D-06 EigRej= -1.00D+00 NBFU=   827
 Defaulting to unpruned grid for atomic number  78.
 ExpMin= 2.90D-02 ExpMax= 6.29D+03 ExpMxC= 9.49D+02 IAcc=3 IRadAn=         5 AccDes= 0.00D+00
 Harris functional with IExCor= 1009 and IRadAn=       5 diagonalized for initial guess.
 HarFok:  IExCor= 1009 AccDes= 0.00D+00 IRadAn=         5 IDoV= 1 UseB2=F ITyADJ=14
 ICtDFT=  3500011 ScaDFX=  1.000000  1.000000  1.000000  1.000000
 Defaulting to unpruned grid for atomic number  78.
 FoFCou: FMM=F IPFlag=           0 FMFlag=      100000 FMFlg1=        2001
         NFxFlg=           0 DoJE=T BraDBF=F KetDBF=T FulRan=T
         wScrn=  0.000000 ICntrl=       500 IOpCl=  0 I1Cent=   200000004 NGrid=           0
         NMat0=    1 NMatS0=      1 NMatT0=    0 NMatD0=    1 NMtDS0=    0 NMtDT0=    0
 Petite list used in FoFCou.
 Requested convergence on RMS density matrix=1.00D-08 within 128 cycles.
 Requested convergence on MAX density matrix=1.00D-06.
 Requested convergence on             energy=1.00D-06.
 No special actions if energy rises.
 Defaulting to unpruned grid for atomic number  78.
 Defaulting to unpruned grid for atomic number  78.
 Defaulting to unpruned grid for atomic number  78.
 Defaulting to unpruned grid for atomic number  78.
 Defaulting to unpruned grid for atomic number  78.
 Defaulting to unpruned grid for atomic number  78.
 Defaulting to unpruned grid for atomic number  78.
 Defaulting to unpruned grid for atomic number  78.
 Defaulting to unpruned grid for atomic number  78.
 Defaulting to unpruned grid for atomic number  78.
 Defaulting to unpruned grid for atomic number  78.
 Defaulting to unpruned grid for atomic number  78.
 Inv3:  Mode=1 IEnd=    38384787.
 Iteration    1 A*A^-1 deviation from unit magnitude is 3.77D-15 for   1804.
 Iteration    1 A*A^-1 deviation from orthogonality  is 2.11D-15 for   2844    489.
 Iteration    1 A^-1*A deviation from unit magnitude is 3.77D-15 for   1086.
 Iteration    1 A^-1*A deviation from orthogonality  is 2.00D-15 for   2692   1679.
 Error on total polarization charges =  0.02154
 SCF Done:  E(RM06) =  -1125.44649094     A.U. after   16 cycles
            NFock= 16  Conv=0.34D-08     -V/T= 2.0830
 DoSCS=F DFT=T ScalE2(SS,OS)=  1.000000  1.000000
 Range of M.O.s used for correlation:     1   827
 NBasis=   827 NAE=   102 NBE=   102 NFC=     0 NFV=     0
 NROrb=    827 NOA=   102 NOB=   102 NVA=   725 NVB=   725

 **** Warning!!: The largest alpha MO coefficient is  0.18634909D+02

 PrsmSu:  requested number of processors reduced to:   1 ShMem   1 Linda.
   1 Symmetry operations used in ECPInt.
 ECPInt:  NShTT=   46360 NPrTT=  151530 LenC2=   39512 LenP2D=   84899.
 LDataN:  DoStor=T MaxTD1= 8 Len=  415
 Number of processors reduced to   1 by ecpmxn.
 Symmetrizing basis deriv contribution to polar:
 IMax=3 JMax=2 DiffMx= 0.00D+00
 G2DrvN: will do     4 centers at a time, making   16 passes.
 Calling FoFCou, ICntrl=  3107 FMM=T I1Cent=   0 AccDes= 0.00D+00.
 Defaulting to unpruned grid for atomic number  78.
 Defaulting to unpruned grid for atomic number  78.
 Defaulting to unpruned grid for atomic number  78.
 Defaulting to unpruned grid for atomic number  78.
 Defaulting to unpruned grid for atomic number  78.
 Defaulting to unpruned grid for atomic number  78.
 Defaulting to unpruned grid for atomic number  78.
 Defaulting to unpruned grid for atomic number  78.
 Defaulting to unpruned grid for atomic number  78.
 Defaulting to unpruned grid for atomic number  78.
 Defaulting to unpruned grid for atomic number  78.
 Defaulting to unpruned grid for atomic number  78.
 Calling FoFCou, ICntrl=  3107 FMM=T I1Cent=   0 AccDes= 0.00D+00.
 Calling FoFCou, ICntrl=  3107 FMM=T I1Cent=   0 AccDes= 0.00D+00.
 Calling FoFCou, ICntrl=  3107 FMM=T I1Cent=   0 AccDes= 0.00D+00.
 Calling FoFCou, ICntrl=  3107 FMM=T I1Cent=   0 AccDes= 0.00D+00.
 Calling FoFCou, ICntrl=  3107 FMM=T I1Cent=   0 AccDes= 0.00D+00.
 Calling FoFCou, ICntrl=  3107 FMM=T I1Cent=   0 AccDes= 0.00D+00.
 Calling FoFCou, ICntrl=  3107 FMM=T I1Cent=   0 AccDes= 0.00D+00.
 Calling FoFCou, ICntrl=  3107 FMM=T I1Cent=   0 AccDes= 0.00D+00.
 Calling FoFCou, ICntrl=  3107 FMM=T I1Cent=   0 AccDes= 0.00D+00.
 Calling FoFCou, ICntrl=  3107 FMM=T I1Cent=   0 AccDes= 0.00D+00.
 Calling FoFCou, ICntrl=  3107 FMM=T I1Cent=   0 AccDes= 0.00D+00.
 Calling FoFCou, ICntrl=  3107 FMM=T I1Cent=   0 AccDes= 0.00D+00.
 Calling FoFCou, ICntrl=  3107 FMM=T I1Cent=   0 AccDes= 0.00D+00.
 Calling FoFCou, ICntrl=  3107 FMM=T I1Cent=   0 AccDes= 0.00D+00.
 Calling FoFCou, ICntrl=  3107 FMM=T I1Cent=   0 AccDes= 0.00D+00.
 NEqPCM:  Using equilibrium solvation (IEInf=0, Eps=   7.4257, EpsInf=   1.9740)
 G2PCM: DoFxE=T DoFxN=T DoGrad=T DoDP/DQ/DG/TGxP=FFFF NFrqRd=   0 IEInf=0 SqF1=F DoCFld=F IF1Alg=4.
 CoulSu:  requested number of processors reduced to:  11 ShMem   1 Linda.
 CoulSu:  requested number of processors reduced to:   9 ShMem   1 Linda.
 CoulSu:  requested number of processors reduced to:  11 ShMem   1 Linda.
 CoulSu:  requested number of processors reduced to:  11 ShMem   1 Linda.
 CoulSu:  requested number of processors reduced to:   9 ShMem   1 Linda.
 CoulSu:  requested number of processors reduced to:  11 ShMem   1 Linda.
 CoulSu:  requested number of processors reduced to:  11 ShMem   1 Linda.
 CoulSu:  requested number of processors reduced to:   9 ShMem   1 Linda.
 CoulSu:  requested number of processors reduced to:  11 ShMem   1 Linda.
 CoulSu:  requested number of processors reduced to:  11 ShMem   1 Linda.
 CoulSu:  requested number of processors reduced to:   9 ShMem   1 Linda.
 CoulSu:  requested number of processors reduced to:  11 ShMem   1 Linda.
 CoulSu:  requested number of processors reduced to:  11 ShMem   1 Linda.
 CoulSu:  requested number of processors reduced to:   9 ShMem   1 Linda.
 CoulSu:  requested number of processors reduced to:  11 ShMem   1 Linda.
 CoulSu:  requested number of processors reduced to:  11 ShMem   1 Linda.
 CoulSu:  requested number of processors reduced to:   9 ShMem   1 Linda.
 CoulSu:  requested number of processors reduced to:  11 ShMem   1 Linda.
 CoulSu:  requested number of processors reduced to:  11 ShMem   1 Linda.
 CoulSu:  requested number of processors reduced to:   9 ShMem   1 Linda.
 CoulSu:  requested number of processors reduced to:  11 ShMem   1 Linda.
 CoulSu:  requested number of processors reduced to:  11 ShMem   1 Linda.
 CoulSu:  requested number of processors reduced to:   9 ShMem   1 Linda.
 CoulSu:  requested number of processors reduced to:  11 ShMem   1 Linda.
 CoulSu:  requested number of processors reduced to:  11 ShMem   1 Linda.
 CoulSu:  requested number of processors reduced to:   9 ShMem   1 Linda.
 CoulSu:  requested number of processors reduced to:  11 ShMem   1 Linda.
 CoulSu:  requested number of processors reduced to:  11 ShMem   1 Linda.
 CoulSu:  requested number of processors reduced to:   9 ShMem   1 Linda.
 CoulSu:  requested number of processors reduced to:  11 ShMem   1 Linda.
 End of G2Drv F.D. properties file   721 does not exist.
 End of G2Drv F.D. properties file   722 does not exist.
 End of G2Drv F.D. properties file   788 does not exist.
          IDoAtm=11111111111111111111111111111111111111111111111111
          IDoAtm=11111111111
 NEqPCM:  Using equilibrium solvation (IEInf=0, Eps=   7.4257, EpsInf=   1.9740)
          Differentiating once with respect to nuclear coordinates.
 Defaulting to unpruned grid for atomic number  78.
 CalDSu exits because no D1Ps are significant.
 Defaulting to unpruned grid for atomic number  78.
 Defaulting to unpruned grid for atomic number  78.
 Defaulting to unpruned grid for atomic number  78.
 Defaulting to unpruned grid for atomic number  78.
 Defaulting to unpruned grid for atomic number  78.
 Defaulting to unpruned grid for atomic number  78.
 Defaulting to unpruned grid for atomic number  78.
 Defaulting to unpruned grid for atomic number  78.
 Defaulting to unpruned grid for atomic number  78.
 Defaulting to unpruned grid for atomic number  78.
 Defaulting to unpruned grid for atomic number  78.
 Defaulting to unpruned grid for atomic number  78.
          There are   186 degrees of freedom in the 1st order CPHF.  IDoFFX=6 NUNeed=     0.
    180 vectors produced by pass  0 Test12= 7.40D-14 1.00D-09 XBig12= 1.15D-01 1.36D-01.
 AX will form     9 AO Fock derivatives at one time.
    180 vectors produced by pass  1 Test12= 7.40D-14 1.00D-09 XBig12= 5.20D-02 5.02D-02.
    180 vectors produced by pass  2 Test12= 7.40D-14 1.00D-09 XBig12= 6.72D-04 3.59D-03.
    180 vectors produced by pass  3 Test12= 7.40D-14 1.00D-09 XBig12= 9.20D-06 2.63D-04.
    180 vectors produced by pass  4 Test12= 7.40D-14 1.00D-09 XBig12= 5.82D-08 1.84D-05.
    180 vectors produced by pass  5 Test12= 7.40D-14 1.00D-09 XBig12= 2.19D-10 9.78D-07.
     89 vectors produced by pass  6 Test12= 7.40D-14 1.00D-09 XBig12= 5.33D-13 5.06D-08.
      7 vectors produced by pass  7 Test12= 7.40D-14 1.00D-09 XBig12= 1.14D-15 1.78D-09.
 InvSVY:  IOpt=1 It=  1 EMax= 5.55D-16
 Solved reduced A of dimension  1176 with   186 vectors.
 End of Minotr F.D. properties file   721 does not exist.
 End of Minotr F.D. properties file   722 does not exist.
 End of Minotr F.D. properties file   788 does not exist.

 **********************************************************************

            Population analysis using the SCF Density.

 **********************************************************************

 Orbital symmetries:
       Occupied  (A) (A) (A) (A) (A) (A) (A) (A) (A) (A) (A) (A)
                 (A) (A) (A) (A) (A) (A) (A) (A) (A) (A) (A) (A)
                 (A) (A) (A) (A) (A) (A) (A) (A) (A) (A) (A) (A)
                 (A) (A) (A) (A) (A) (A) (A) (A) (A) (A) (A) (A)
                 (A) (A) (A) (A) (A) (A) (A) (A) (A) (A) (A) (A)
                 (A) (A) (A) (A) (A) (A) (A) (A) (A) (A) (A) (A)
                 (A) (A) (A) (A) (A) (A) (A) (A) (A) (A) (A) (A)
                 (A) (A) (A) (A) (A) (A) (A) (A) (A) (A) (A) (A)
                 (A) (A) (A) (A) (A) (A)
       Virtual   (A) (A) (A) (A) (A) (A) (A) (A) (A) (A) (A) (A)
                 (A) (A) (A) (A) (A) (A) (A) (A) (A) (A) (A) (A)
                 (A) (A) (A) (A) (A) (A) (A) (A) (A) (A) (A) (A)
                 (A) (A) (A) (A) (A) (A) (A) (A) (A) (A) (A) (A)
                 (A) (A) (A) (A) (A) (A) (A) (A) (A) (A) (A) (A)
                 (A) (A) (A) (A) (A) (A) (A) (A) (A) (A) (A) (A)
                 (A) (A) (A) (A) (A) (A) (A) (A) (A) (A) (A) (A)
                 (A) (A) (A) (A) (A) (A) (A) (A) (A) (A) (A) (A)
                 (A) (A) (A) (A) (A) (A) (A) (A) (A) (A) (A) (A)
                 (A) (A) (A) (A) (A) (A) (A) (A) (A) (A) (A) (A)
                 (A) (A) (A) (A) (A) (A) (A) (A) (A) (A) (A) (A)
                 (A) (A) (A) (A) (A) (A) (A) (A) (A) (A) (A) (A)
                 (A) (A) (A) (A) (A) (A) (A) (A) (A) (A) (A) (A)
                 (A) (A) (A) (A) (A) (A) (A) (A) (A) (A) (A) (A)
                 (A) (A) (A) (A) (A) (A) (A) (A) (A) (A) (A) (A)
                 (A) (A) (A) (A) (A) (A) (A) (A) (A) (A) (A) (A)
                 (A) (A) (A) (A) (A) (A) (A) (A) (A) (A) (A) (A)
                 (A) (A) (A) (A) (A) (A) (A) (A) (A) (A) (A) (A)
                 (A) (A) (A) (A) (A) (A) (A) (A) (A) (A) (A) (A)
                 (A) (A) (A) (A) (A) (A) (A) (A) (A) (A) (A) (A)
                 (A) (A) (A) (A) (A) (A) (A) (A) (A) (A) (A) (A)
                 (A) (A) (A) (A) (A) (A) (A) (A) (A) (A) (A) (A)
                 (A) (A) (A) (A) (A) (A) (A) (A) (A) (A) (A) (A)
                 (A) (A) (A) (A) (A) (A) (A) (A) (A) (A) (A) (A)
                 (A) (A) (A) (A) (A) (A) (A) (A) (A) (A) (A) (A)
                 (A) (A) (A) (A) (A) (A) (A) (A) (A) (A) (A) (A)
                 (A) (A) (A) (A) (A) (A) (A) (A) (A) (A) (A) (A)
                 (A) (A) (A) (A) (A) (A) (A) (A) (A) (A) (A) (A)
                 (A) (A) (A) (A) (A) (A) (A) (A) (A) (A) (A) (A)
                 (A) (A) (A) (A) (A) (A) (A) (A) (A) (A) (A) (A)
                 (A) (A) (A) (A) (A) (A) (A) (A) (A) (A) (A) (A)
                 (A) (A) (A) (A) (A) (A) (A) (A) (A) (A) (A) (A)
                 (A) (A) (A) (A) (A) (A) (A) (A) (A) (A) (A) (A)
                 (A) (A) (A) (A) (A) (A) (A) (A) (A) (A) (A) (A)
                 (A) (A) (A) (A) (A) (A) (A) (A) (A) (A) (A) (A)
                 (A) (A) (A) (A) (A) (A) (A) (A) (A) (A) (A) (A)
                 (A) (A) (A) (A) (A) (A) (A) (A) (A) (A) (A) (A)
                 (A) (A) (A) (A) (A) (A) (A) (A) (A) (A) (A) (A)
                 (A) (A) (A) (A) (A) (A) (A) (A) (A) (A) (A) (A)
                 (A) (A) (A) (A) (A) (A) (A) (A) (A) (A) (A) (A)
                 (A) (A) (A) (A) (A) (A) (A) (A) (A) (A) (A) (A)
                 (A) (A) (A) (A) (A) (A) (A) (A) (A) (A) (A) (A)
                 (A) (A) (A) (A) (A) (A) (A) (A) (A) (A) (A) (A)
                 (A) (A) (A) (A) (A) (A) (A) (A) (A) (A) (A) (A)
                 (A) (A) (A) (A) (A) (A) (A) (A) (A) (A) (A) (A)
                 (A) (A) (A) (A) (A) (A) (A) (A) (A) (A) (A) (A)
                 (A) (A) (A) (A) (A) (A) (A) (A) (A) (A) (A) (A)
                 (A) (A) (A) (A) (A) (A) (A) (A) (A) (A) (A) (A)
                 (A) (A) (A) (A) (A) (A) (A) (A) (A) (A) (A) (A)
                 (A) (A) (A) (A) (A) (A) (A) (A) (A) (A) (A) (A)
                 (A) (A) (A) (A) (A) (A) (A) (A) (A) (A) (A) (A)
                 (A) (A) (A) (A) (A) (A) (A) (A) (A) (A) (A) (A)
                 (A) (A) (A) (A) (A) (A) (A) (A) (A) (A) (A) (A)
                 (A) (A) (A) (A) (A) (A) (A) (A) (A) (A) (A) (A)
                 (A) (A) (A) (A) (A) (A) (A) (A) (A) (A) (A) (A)
                 (A) (A) (A) (A) (A) (A) (A) (A) (A) (A) (A) (A)
                 (A) (A) (A) (A) (A) (A) (A) (A) (A) (A) (A) (A)
                 (A) (A) (A) (A) (A) (A) (A) (A) (A) (A) (A) (A)
                 (A) (A) (A) (A) (A) (A) (A) (A) (A) (A) (A) (A)
                 (A) (A) (A) (A) (A) (A) (A) (A) (A) (A) (A) (A)
                 (A) (A) (A) (A) (A)
 The electronic state is 1-A.
 Alpha  occ. eigenvalues --  -14.48208 -14.48101 -10.31140 -10.30314 -10.30054
 Alpha  occ. eigenvalues --  -10.29981 -10.29958 -10.29936 -10.29672 -10.29051
 Alpha  occ. eigenvalues --  -10.26839 -10.26773 -10.26668 -10.26580 -10.26322
 Alpha  occ. eigenvalues --  -10.26261 -10.26155 -10.26078 -10.25906 -10.25900
 Alpha  occ. eigenvalues --  -10.25630 -10.25160 -10.25134 -10.25058 -10.25036
 Alpha  occ. eigenvalues --   -3.93225  -2.17458  -2.16667  -2.14097  -0.99007
 Alpha  occ. eigenvalues --   -0.98669  -0.89512  -0.89252  -0.82416  -0.80646
 Alpha  occ. eigenvalues --   -0.80490  -0.80076  -0.79989  -0.78406  -0.77003
 Alpha  occ. eigenvalues --   -0.76569  -0.73246  -0.72385  -0.71888  -0.67227
 Alpha  occ. eigenvalues --   -0.67029  -0.64585  -0.64046  -0.63106  -0.62913
 Alpha  occ. eigenvalues --   -0.60548  -0.60147  -0.55959  -0.54713  -0.54268
 Alpha  occ. eigenvalues --   -0.53832  -0.52875  -0.52442  -0.50614  -0.50472
 Alpha  occ. eigenvalues --   -0.49979  -0.49357  -0.48710  -0.47868  -0.47483
 Alpha  occ. eigenvalues --   -0.46250  -0.46127  -0.45700  -0.45671  -0.45287
 Alpha  occ. eigenvalues --   -0.44740  -0.44685  -0.43895  -0.43752  -0.43360
 Alpha  occ. eigenvalues --   -0.43188  -0.43065  -0.42518  -0.42074  -0.41544
 Alpha  occ. eigenvalues --   -0.40526  -0.40019  -0.39779  -0.39229  -0.39122
 Alpha  occ. eigenvalues --   -0.38503  -0.38151  -0.37832  -0.37727  -0.37335
 Alpha  occ. eigenvalues --   -0.37073  -0.36352  -0.34286  -0.33404  -0.33208
 Alpha  occ. eigenvalues --   -0.30288  -0.29679  -0.29267  -0.27782  -0.27408
 Alpha  occ. eigenvalues --   -0.26466  -0.24200
 Alpha virt. eigenvalues --   -0.07727  -0.06451  -0.03731  -0.03087  -0.02539
 Alpha virt. eigenvalues --   -0.01717  -0.00923  -0.00202   0.00541   0.01282
 Alpha virt. eigenvalues --    0.03509   0.04115   0.04562   0.04676   0.04987
 Alpha virt. eigenvalues --    0.05400   0.06149   0.06343   0.06620   0.06931
 Alpha virt. eigenvalues --    0.07115   0.07389   0.08030   0.08264   0.08513
 Alpha virt. eigenvalues --    0.08812   0.09252   0.09616   0.09867   0.10311
 Alpha virt. eigenvalues --    0.10364   0.10795   0.11165   0.11584   0.11783
 Alpha virt. eigenvalues --    0.11867   0.12131   0.12530   0.12725   0.13451
 Alpha virt. eigenvalues --    0.13892   0.14286   0.14495   0.14770   0.15337
 Alpha virt. eigenvalues --    0.15470   0.15911   0.16535   0.16899   0.17472
 Alpha virt. eigenvalues --    0.18203   0.18449   0.18585   0.19450   0.20297
 Alpha virt. eigenvalues --    0.20627   0.21283   0.21860   0.22468   0.22720
 Alpha virt. eigenvalues --    0.23068   0.24631   0.24973   0.25495   0.25809
 Alpha virt. eigenvalues --    0.25940   0.26701   0.26796   0.27329   0.27747
 Alpha virt. eigenvalues --    0.28069   0.28557   0.28876   0.29179   0.29703
 Alpha virt. eigenvalues --    0.30168   0.30576   0.31618   0.31874   0.32469
 Alpha virt. eigenvalues --    0.32803   0.33177   0.33679   0.34254   0.34891
 Alpha virt. eigenvalues --    0.35277   0.35439   0.35894   0.36377   0.37309
 Alpha virt. eigenvalues --    0.37382   0.37598   0.37862   0.38159   0.38271
 Alpha virt. eigenvalues --    0.38616   0.38806   0.39501   0.39988   0.40407
 Alpha virt. eigenvalues --    0.40696   0.41047   0.41975   0.42257   0.42460
 Alpha virt. eigenvalues --    0.43271   0.43625   0.43750   0.43928   0.44966
 Alpha virt. eigenvalues --    0.45387   0.45992   0.46146   0.46337   0.47329
 Alpha virt. eigenvalues --    0.47541   0.47999   0.48132   0.48573   0.49063
 Alpha virt. eigenvalues --    0.49371   0.49453   0.49693   0.49852   0.50318
 Alpha virt. eigenvalues --    0.50885   0.51106   0.51420   0.51694   0.52057
 Alpha virt. eigenvalues --    0.52161   0.52466   0.52855   0.53049   0.53169
 Alpha virt. eigenvalues --    0.53391   0.53992   0.54248   0.54495   0.54552
 Alpha virt. eigenvalues --    0.54874   0.55071   0.55383   0.55714   0.55900
 Alpha virt. eigenvalues --    0.56401   0.56797   0.57161   0.57295   0.57330
 Alpha virt. eigenvalues --    0.57657   0.58326   0.58629   0.59169   0.59324
 Alpha virt. eigenvalues --    0.59541   0.60389   0.60468   0.60784   0.61728
 Alpha virt. eigenvalues --    0.62151   0.62338   0.63090   0.63204   0.63908
 Alpha virt. eigenvalues --    0.64526   0.64761   0.65235   0.65443   0.65892
 Alpha virt. eigenvalues --    0.66190   0.66489   0.67206   0.67526   0.67992
 Alpha virt. eigenvalues --    0.68397   0.69143   0.69629   0.69892   0.70677
 Alpha virt. eigenvalues --    0.71172   0.71598   0.71713   0.72120   0.72739
 Alpha virt. eigenvalues --    0.72909   0.73377   0.73695   0.74413   0.75056
 Alpha virt. eigenvalues --    0.75223   0.75517   0.76361   0.76728   0.77409
 Alpha virt. eigenvalues --    0.77694   0.78688   0.79538   0.80211   0.80689
 Alpha virt. eigenvalues --    0.81122   0.81791   0.82016   0.82431   0.83014
 Alpha virt. eigenvalues --    0.83751   0.84103   0.84896   0.85932   0.86421
 Alpha virt. eigenvalues --    0.87010   0.87567   0.88122   0.88812   0.90094
 Alpha virt. eigenvalues --    0.90845   0.91155   0.91462   0.92702   0.92920
 Alpha virt. eigenvalues --    0.94008   0.94274   0.94308   0.94832   0.95192
 Alpha virt. eigenvalues --    0.96757   0.97648   0.97886   0.98044   0.98768
 Alpha virt. eigenvalues --    0.99566   1.00311   1.01440   1.02192   1.02515
 Alpha virt. eigenvalues --    1.03078   1.03907   1.04333   1.04509   1.05391
 Alpha virt. eigenvalues --    1.05469   1.05915   1.06425   1.07619   1.07922
 Alpha virt. eigenvalues --    1.08509   1.09237   1.09905   1.10560   1.11310
 Alpha virt. eigenvalues --    1.11691   1.11916   1.12248   1.12606   1.12866
 Alpha virt. eigenvalues --    1.13649   1.13842   1.14748   1.15170   1.15645
 Alpha virt. eigenvalues --    1.15842   1.17377   1.17741   1.17972   1.18358
 Alpha virt. eigenvalues --    1.18836   1.19558   1.19784   1.20831   1.20980
 Alpha virt. eigenvalues --    1.21565   1.22881   1.23347   1.23748   1.23893
 Alpha virt. eigenvalues --    1.24257   1.24631   1.25083   1.25541   1.25832
 Alpha virt. eigenvalues --    1.26117   1.27019   1.27805   1.27997   1.28548
 Alpha virt. eigenvalues --    1.29127   1.30052   1.31420   1.31919   1.32154
 Alpha virt. eigenvalues --    1.32580   1.33201   1.33544   1.34720   1.35207
 Alpha virt. eigenvalues --    1.36432   1.36973   1.37240   1.38020   1.38489
 Alpha virt. eigenvalues --    1.38824   1.39810   1.40264   1.40902   1.41852
 Alpha virt. eigenvalues --    1.42310   1.42654   1.43119   1.44598   1.45053
 Alpha virt. eigenvalues --    1.46298   1.46824   1.47227   1.47978   1.48518
 Alpha virt. eigenvalues --    1.49266   1.50677   1.51028   1.51551   1.52228
 Alpha virt. eigenvalues --    1.53092   1.53876   1.54760   1.55049   1.56186
 Alpha virt. eigenvalues --    1.56721   1.57917   1.58479   1.59240   1.60072
 Alpha virt. eigenvalues --    1.61090   1.62045   1.63281   1.64458   1.64518
 Alpha virt. eigenvalues --    1.65254   1.65496   1.66460   1.67402   1.68320
 Alpha virt. eigenvalues --    1.69088   1.69587   1.70309   1.70370   1.71000
 Alpha virt. eigenvalues --    1.71479   1.72414   1.72782   1.73456   1.74774
 Alpha virt. eigenvalues --    1.75047   1.75655   1.76293   1.77438   1.78040
 Alpha virt. eigenvalues --    1.78627   1.79328   1.80667   1.82858   1.83026
 Alpha virt. eigenvalues --    1.83977   1.84635   1.85646   1.85992   1.87071
 Alpha virt. eigenvalues --    1.87355   1.88449   1.88677   1.90866   1.92150
 Alpha virt. eigenvalues --    1.93195   1.95298   1.95783   1.97015   1.97839
 Alpha virt. eigenvalues --    1.98385   1.99223   1.99858   2.02166   2.02654
 Alpha virt. eigenvalues --    2.02833   2.03626   2.05253   2.06196   2.06888
 Alpha virt. eigenvalues --    2.07318   2.07833   2.07893   2.09023   2.09545
 Alpha virt. eigenvalues --    2.10230   2.11007   2.11379   2.11728   2.12252
 Alpha virt. eigenvalues --    2.12829   2.13191   2.13684   2.14420   2.14890
 Alpha virt. eigenvalues --    2.15095   2.15419   2.15704   2.16157   2.16378
 Alpha virt. eigenvalues --    2.17342   2.17883   2.19015   2.19436   2.19897
 Alpha virt. eigenvalues --    2.20467   2.21538   2.21796   2.22798   2.24066
 Alpha virt. eigenvalues --    2.24245   2.25575   2.25612   2.26377   2.26836
 Alpha virt. eigenvalues --    2.28680   2.28842   2.29590   2.30680   2.31510
 Alpha virt. eigenvalues --    2.32267   2.33554   2.34128   2.35122   2.35485
 Alpha virt. eigenvalues --    2.36568   2.37280   2.38492   2.38947   2.39010
 Alpha virt. eigenvalues --    2.40128   2.41332   2.41539   2.42164   2.42775
 Alpha virt. eigenvalues --    2.43790   2.44668   2.45409   2.45903   2.47500
 Alpha virt. eigenvalues --    2.48586   2.49129   2.50907   2.51031   2.51576
[...]
 2,-0.00000160,0.00000243,-0.00004044,0.00129455,-0.00242212,-0.0166863
 6,-0.00484094,0.00481136,0.00025508,0.00037978,-0.00044774,-0.31484894
 ,-0.04999250,0.04361210,0.00097693,-0.00000401,0.00036778,0.00155525,-
 0.00115621,0.00127590,-0.00009192,-0.00002118,0.00004473,-0.00450167,-
 0.00001204,-0.00059523,0.33402041,0.00004759,0.00009431,0.00000328,-0.
 00006594,0.00003549,-0.00002676,0.00000548,-0.00001422,-0.00000295,0.0
 0002318,0.00000263,-0.00000327,0.00000211,-0.00000227,0.00000441,0.000
 00149,-0.00000445,0.00000737,0.00000571,-0.00000411,-0.00000570,0.0000
 0271,-0.00000087,-0.00000044,0.00000199,-0.00000335,-0.00000085,0.0000
 0048,-0.00000036,-0.00000114,0.00001240,-0.00000837,0.00002514,0.00000
 692,-0.00003731,0.00002217,0.00053703,-0.00008880,0.00007205,-0.000090
 20,0.00014931,0.00015747,-0.00005600,-0.00009616,-0.00007810,-0.000009
 45,0.00001986,-0.00005481,-0.00000051,-0.00000575,0.00000747,-0.000005
 31,0.00000508,-0.00000401,0.00000254,-0.00000042,-0.00000075,-0.000000
 53,0.00000618,0.00000607,-0.00000616,0.00000074,-0.00000367,0.00000185
 ,-0.00000504,-0.00000292,-0.00000745,-0.00011152,0.00007131,0.00002347
 ,-0.00000867,-0.00001695,0.00001871,-0.00002273,-0.00005392,0.00001715
 ,0.00000961,0.00000926,-0.00001472,-0.00000552,0.00000293,-0.00000456,
 0.00000013,-0.00000165,-0.00000639,-0.00000832,0.00000242,0.00000476,-
 0.00002006,0.00000143,-0.00000420,0.00000095,0.00000494,-0.00000940,0.
 00000261,-0.00000875,0.00000024,0.00000353,-0.00000105,0.00000042,-0.0
 0000221,0.00000007,-0.00000018,-0.00000005,-0.00000059,-0.00000028,-0.
 00000560,0.00000031,-0.00000532,-0.00000593,-0.00000517,0.00000005,-0.
 00000050,0.00000154,-0.00000664,0.00000129,-0.00000270,-0.00000099,0.0
 0000228,-0.00000338,0.00000106,0.00000116,0.00000115,0.00000113,0.0000
 0083,0.00000091,0.00000143,0.00000064,-0.00000066,-0.00000177,-0.00001
 098,-0.00003915,0.00000417,-0.00000097,0.00000198,0.00001657,0.0000103
 9,0.00002506,-0.00001145,-0.00000040,-0.00000721,0.00000029,0.00000063
 ,0.00000043,0.00000170,0.00000022,-0.00000060,0.00000038,0.00000099,-0
 .00000033,0.00095117,0.00375922,0.00439935,0.01356517,0.00525696,-0.00
 115246,0.00048827,-0.00061591,-0.00013251,-0.04987119,-0.05315939,0.01
 796152,-0.00010238,-0.00239150,-0.00251445,-0.00072343,0.00216303,0.00
 586947,0.00000348,-0.00048292,-0.00045644,-0.01855883,0.00077305,0.002
 28824,0.05414063,0.04678165,-0.00071908,-0.00018205,-0.00048159,0.0001
 4050,0.00008927,0.00020978,0.00000535,0.00004247,0.00000525,-0.0000929
 8,-0.00002334,0.00003742,-0.00001846,-0.00000243,-0.00001058,0.0000096
 8,0.00003040,-0.00001369,-0.00000280,-0.00000052,0.00000466,-0.0000074
 7,0.00000229,0.00000335,-0.00000725,0.00000902,0.00000456,-0.00000068,
 0.00000043,0.00000386,0.00010276,-0.00004983,-0.00001537,0.00002420,-0
 .00001738,0.00002541,-0.00020009,0.00025968,0.00014653,0.00003399,-0.0
 0001230,-0.00011739,-0.00003414,-0.00005097,-0.00009096,-0.00000144,-0
 .00002176,-0.00001976,0.00000423,0.00000253,0.00000154,-0.00000489,-0.
 00000626,0.00000165,-0.00000502,-0.00000467,0.00000359,0.00001434,-0.0
 0000687,0.00000538,0.00000478,0.00000044,-0.00000229,-0.00000028,0.000
 00347,-0.00000026,-0.00005326,-0.00004506,0.00004590,0.00003476,-0.000
 02193,-0.00000997,0.00000049,-0.00001636,-0.00006139,0.00001382,0.0000
 0161,0.00002673,0.00000324,0.00000660,0.00000797,-0.00000484,-0.000000
 57,-0.00000082,-0.00000005,-0.00001208,-0.00000123,0.00001509,-0.00001
 460,0.00002296,-0.00000380,-0.00000166,-0.00000243,-0.00000441,-0.0000
 0782,0.00000244,-0.00000258,-0.00000216,-0.00000294,-0.00000124,0.0000
 0142,-0.00000106,0.00000120,-0.00000039,0.00000044,-0.00000022,0.00000
 042,0.00000177,0.00002080,0.00000231,0.00000429,-0.00000256,0.00000282
 ,0.00000200,0.00000259,0.00000022,0.00000387,0.00000137,0.00000166,0.0
 0000443,-0.00000118,-0.00000036,-0.00000042,0.00000005,-0.00000152,-0.
 00000031,-0.00000094,-0.00000053,0.00000038,-0.00001232,0.00002733,-0.
 00001675,0.00000589,-0.00000659,0.,0.00001312,0.00000354,-0.00000264,0
 .00000497,-0.00000135,-0.00000047,-0.00000235,-0.00000332,-0.00000063,
 -0.00000341,0.00000092,0.00000158,0.00000106,0.00000100,0.00000122,-0.
 00265887,0.00394412,0.00163021,-0.01878255,-0.00267686,0.00569183,-0.0
 0032075,0.00044176,-0.00135767,0.04379183,0.01842859,-0.05718617,0.000
 52778,-0.00253501,-0.00074619,0.00099449,0.00583012,-0.00065689,0.0000
 8147,-0.00046741,-0.00026241,0.02305035,0.00335164,0.00104933,-0.04670
 450,-0.02400555,0.05275225,-0.00040609,0.00058209,-0.00036533,0.000152
 82,-0.00012304,0.00015536,0.00000788,0.00006632,0.00001322,-0.00004943
 ,-0.00002010,0.00001135,-0.00001350,0.00000562,-0.00001644,-0.00000678
 ,0.00000454,-0.00001758,-0.00001639,0.00000982,0.00001589,-0.00001018,
 0.00000192,0.00000204,-0.00000390,0.00000685,0.00000159,-0.00000091,0.
 00000041,0.00000338,-0.00001155,-0.00003578,-0.00001949,0.00000284,-0.
 00002507,-0.00000586,0.00021881,0.00025041,0.00016814,0.00005223,-0.00
 002623,-0.00003939,-0.00001323,-0.00004668,-0.00018142,0.00001000,-0.0
 0003987,0.00000184,0.00000789,0.00000380,-0.00002150,-0.00000989,-0.00
 001144,0.00000561,-0.00000782,-0.00000254,0.00000889,0.00000728,-0.000
 01376,0.00000202,0.00000866,-0.00000046,0.00000063,-0.00000149,0.00000
 534,0.00000147,-0.00004228,0.00000946,-0.00000483,0.00001257,-0.000007
 08,0.00000123,-0.00000038,0.00000011,-0.00001614,-0.00000204,0.0000095
 8,0.00001057,0.00000438,0.00000539,-0.00000027,-0.00000149,-0.00000169
 ,0.00000087,-0.00000171,-0.00000230,-0.00000108,-0.00000619,0.00000651
 ,0.00000347,0.00000761,0.00000056,-0.00000443,0.00000986,-0.00000818,0
 .00001551,0.00000058,-0.00000126,-0.00000228,-0.00000038,0.00000247,-0
 .00000137,0.00000021,-0.00000085,0.00000125,-0.00000019,0.00000546,-0.
 00000016,0.00000562,0.00000380,0.00000301,-0.00000024,0.00000359,0.000
 00060,0.00000396,0.00000012,0.00000426,0.00000428,-0.00000121,0.000005
 74,-0.00000228,-0.00000245,-0.00000040,-0.00000159,-0.00000257,-0.0000
 0265,-0.00000305,0.00000009,0.00000079,-0.00002075,0.00004658,0.000024
 87,0.00000920,-0.00001492,-0.00001338,0.00001631,-0.00001234,-0.000025
 96,0.00001657,-0.00000929,0.00001218,-0.00000433,-0.00000510,-0.000001
 76,-0.00001149,0.00000133,0.00000695,0.00000344,-0.00000092,0.00000683
 ,-0.00113982,0.00108695,-0.00284716,-0.00112415,0.00038300,-0.00051787
 ,0.00785673,0.01318973,-0.01710905,-0.00534815,-0.00101442,0.00021343,
 0.00009196,-0.00000783,0.00008961,-0.08229933,-0.05091242,0.06221391,0
 .00116665,0.00003501,0.00060312,-0.00349316,-0.01832998,0.02305104,-0.
 00033482,-0.00088390,0.00110725,0.08335464,0.00037338,-0.00034659,0.00
 026644,-0.00018638,0.00013461,-0.00010804,0.00001512,-0.00007720,-0.00
 003226,0.00008259,0.00000987,-0.00003779,0.00001066,0.00000021,0.00001
 187,0.00000085,-0.00001155,0.00001255,0.00002471,-0.00001793,-0.000023
 64,0.00001552,-0.00000223,-0.00000290,0.00000702,-0.00001394,-0.000002
 51,0.00000389,-0.00000304,-0.00000392,-0.00003767,-0.00002724,0.000020
 17,0.00000744,0.00001862,0.00001991,-0.00064383,-0.00007649,-0.0004752
 5,0.00002907,-0.00004271,-0.00008322,0.00008008,0.00007090,0.00027754,
 -0.00002038,0.00006039,0.00005957,-0.00001852,0.00001174,0.00001645,-0
 .00000541,0.00001287,0.00001774,0.00001411,-0.00000019,-0.00000497,-0.
 00000734,0.00002237,0.00003385,-0.00001395,0.00000166,0.00000257,0.000
 00179,-0.00001363,-0.00000835,0.00007107,-0.00002014,0.00002255,-0.000
 01399,0.00000477,-0.00000764,0.00000253,0.00001438,-0.00001142,-0.0000
 0376,0.00003084,0.00001012,-0.00000654,-0.00000469,0.00000188,0.000001
 31,-0.00000232,0.00000048,0.00000312,-0.00000686,-0.00000058,0.0000001
 7,0.00000039,-0.00002455,-0.00000349,-0.00000070,0.00001218,-0.0000052
 5,0.00000605,-0.00001288,-0.00000159,-0.00000041,-0.00000117,0.0000013
 0,-0.00000564,0.00000273,0.00000048,-0.00000004,-0.00000322,-0.0000010
 9,-0.00000430,-0.00000110,-0.00000958,0.00001322,-0.00002367,0.0000032
 2,-0.00000895,0.00000554,-0.00000031,0.00000045,-0.00000852,-0.0000047
 5,-0.00000012,-0.00000370,0.00000557,0.00000190,0.00000319,0.00000056,
 0.00000369,0.00000075,0.00000361,0.00000158,-0.00000234,0.00002849,-0.
 00008854,-0.00004317,-0.00001988,0.00001482,0.00000571,-0.00009173,-0.
 00000632,-0.00001179,-0.00002199,0.00000259,-0.00000906,0.00000259,0.0
 0000404,-0.00000320,0.00000243,-0.00000077,-0.00000268,-0.00000061,-0.
 00000577,0.00000056,0.00141509,0.00447111,0.00382619,0.00031180,-0.000
 37791,-0.00050154,-0.00421722,-0.00369536,0.00912558,-0.00151420,0.004
 91323,0.00226683,0.00002318,-0.00056390,-0.00037467,-0.05060072,-0.140
 97054,0.13157390,-0.00002584,-0.00234926,-0.00249403,-0.00053017,0.000
 27394,0.00433528,0.00004257,-0.00007401,0.00025141,0.05527238,0.140910
 16,-0.00021137,0.00042411,-0.00035295,0.00005487,-0.00008767,0.0000535
 0,0.00001641,0.00008353,0.00001979,-0.00004880,-0.00003804,0.00001471,
 -0.00001211,0.00000964,-0.00000539,-0.00001542,0.00000463,0.00000063,-
 0.00001489,0.00001221,0.00001534,-0.00001452,0.00000119,0.00000486,-0.
 00000495,0.00001214,0.00000389,-0.00000410,0.00000313,0.00000487,-0.00
 003169,-0.00003241,-0.00004249,-0.00002022,-0.00002517,-0.00004702,-0.
 00021165,0.00017160,0.00028588,0.00003283,-0.00003746,-0.00012826,0.00
 006412,-0.00000439,0.00004117,-0.00000811,0.00002007,0.00000044,0.0000
 2532,-0.00001412,-0.00002617,-0.00000424,-0.00000628,-0.00000399,-0.00
 001987,0.00000151,0.00000793,0.00000881,-0.00001923,-0.00002934,0.0000
 1313,-0.00000332,-0.00000042,-0.00000202,0.00001415,0.00000636,-0.0000
 2075,0.00001471,0.00000128,0.00000578,-0.00000524,-0.00000035,0.000000
 15,-0.00001173,0.00000823,-0.00000335,0.,-0.00001076,0.00000695,0.0000
 0407,0.00000031,-0.00000098,0.00000692,-0.00000322,-0.00000258,0.00000
 589,0.00000091,-0.00000776,0.00002177,0.00003881,0.00001630,0.00000187
 ,-0.00001640,0.00002158,-0.00002387,0.00003069,0.00000437,-0.00000385,
 -0.00000056,-0.00000219,0.00000803,-0.00000496,0.,0.00000107,0.0000041
 5,0.00000169,0.00001051,0.00000122,0.00001910,-0.00000942,0.00003986,-
 0.00000462,0.00001154,-0.00001003,0.00000682,0.00000141,0.00000379,0.0
 0000784,0.00000057,0.00000395,-0.00000866,-0.00000268,-0.00000467,-0.0
 0000186,-0.00000652,-0.00000070,-0.00000432,-0.00000169,0.00000383,0.0
 0001472,-0.00000990,-0.00001965,-0.00000063,0.00000184,-0.00002895,-0.
 00006222,0.00003962,-0.00004379,-0.00002097,-0.00000309,-0.00000848,-0
 .00000998,-0.00001598,-0.00000675,-0.00000776,0.00000701,0.00001363,-0
 .00001114,-0.00001183,0.00001227,-0.00198606,0.00347188,0.00182248,-0.
 00059878,-0.00056718,-0.00016881,0.00705244,0.01108287,-0.01034923,0.0
 0039786,0.00253597,0.00347042,0.00007767,-0.00040546,-0.00037906,0.062
 26588,0.13147703,-0.20151028,0.00031698,-0.00257422,-0.00094080,-0.000
 92848,0.00206964,0.00074357,-0.00013648,0.00014167,-0.00004445,-0.0662
 8186,-0.14571766,0.20867025,0.00006035,0.00003122,-0.00001386,0.000032
 27,-0.00004406,0.00000638,-0.00000365,0.00001993,0.00000998,-0.0000298
 0,-0.00000560,0.00001193,-0.00000158,0.00000541,-0.00000027,0.00000324
 ,0.00000669,-0.00000191,-0.00000906,0.00000334,0.00000774,-0.00000736,
 0.00000024,0.00000153,-0.00000255,0.00000669,0.00000251,-0.00000272,0.
 00000289,0.00000232,-0.00001935,-0.00001022,-0.00003263,-0.00003958,-0
 .00004836,-0.00002645,0.00000473,0.00009644,0.00009010,0.00001376,-0.0
 0000159,-0.00002961,-0.00000340,-0.00000822,-0.00004915,0.00000065,0.0
 0000407,0.00002649,0.00002730,-0.00001362,-0.00001737,0.00002549,-0.00
 000190,-0.00001706,-0.00001274,0.00000339,-0.00000079,0.00000401,-0.00
 000942,-0.00001831,0.00000510,-0.00000238,-0.00000014,-0.00000119,0.00
 000785,0.00000315,-0.00001666,0.00000275,0.00000854,0.00000827,-0.0000
 0399,-0.00000303,-0.00000303,0.00000312,0.00000029,-0.00000125,-0.0000
 1033,-0.00000830,0.00000386,0.00000250,-0.00000049,-0.00000041,0.00000
 333,-0.00000086,-0.00000279,0.00000169,0.00000028,-0.00000183,0.000013
 29,0.00002102,0.00000599,0.00000057,-0.00000952,0.00000825,-0.00000823
 ,0.00001273,0.00000100,-0.00000140,-0.00000079,-0.00000110,0.00000428,
 -0.00000223,-0.00000042,-0.00000016,0.00000212,0.00000105,0.00000481,0
 .00000064,0.00001502,-0.00001457,0.00004156,-0.00000305,0.00001070,-0.
 00001348,0.00000146,-0.00000120,-0.00000130,-0.00000087,0.00000574,-0.
 00000161,-0.00000731,-0.00000034,-0.00000398,0.00000200,-0.00000267,0.
 00000297,-0.00000096,-0.00000152,0.00000338,0.00004307,-0.00001263,-0.
 00002412,-0.00000085,0.00001409,-0.00001704,-0.00000581,0.00005810,0.0
 0003858,-0.00003302,0.00000833,-0.00001883,-0.00000069,-0.00000686,-0.
 00000056,0.00000401,0.00000354,0.00000668,-0.00001597,-0.00000714,0.00
 000595,-0.00037470,-0.00074714,0.00094360,0.00082479,-0.00163958,0.001
 58054,-0.00439216,-0.00178416,0.00129894,0.00954160,-0.00468924,0.0064
 9760,0.00024420,-0.00024839,0.00037198,-0.01498771,0.01380554,-0.01913
 077,-0.00089709,0.00050697,-0.00086946,-0.18652476,0.07838008,-0.11356
 876,0.00045919,0.00055543,-0.00035702,0.00135599,0.00014846,0.00029377
 ,0.19470874,-0.00030349,-0.00030508,0.00033479,0.00011966,-0.00001422,
 -0.00002999,0.00000577,-0.00005786,-0.00003832,0.00000993,0.00000649,-
 0.00001162,0.00000960,0.00003612,0.00000566,-0.00000155,-0.00001830,-0
 .00000938,-0.00001602,-0.00000700,0.00000777,0.00000311,-0.00000371,-0
 .00000211,0.00000375,-0.00000121,-0.00000215,-0.00000053,-0.00000013,-
 0.00000105,0.00001299,0.00009213,-0.00009559,-0.00006507,0.00008613,-0
 .00005607,0.00047104,-0.00046848,0.00029499,0.00008624,0.00004261,0.00
 016037,0.00004131,0.00000215,-0.00009766,-0.00001810,-0.00003565,-0.00
 013885,-0.00000367,0.00001835,-0.00000252,0.00001920,-0.00000722,0.000
 00482,-0.00000281,0.00000194,0.00000552,0.00001662,-0.00000974,-0.0000
 0380,0.00000280,-0.00000324,0.00000265,-0.00000362,0.00000295,0.000004
 78,-0.00007108,0.00002144,0.00003534,0.00002789,-0.00001289,-0.0000096
 7,0.00000777,0.00001783,-0.00003912,0.00000328,0.00002566,0.00002416,0
 .00000070,0.00000582,0.00000256,-0.00000429,-0.00000461,0.00000068,-0.
 00000398,-0.00001141,-0.00000117,-0.00001109,0.00005708,0.00000049,0.0
 0001339,0.00000153,-0.00001471,0.00001344,0.00000272,0.00000858,0.0000
 0129,0.00000332,-0.00000809,-0.00000109,0.00000485,-0.00000156,0.00000
 093,-0.00000195,0.00000127,-0.00000107,0.00000560,-0.00000061,-0.00003
 677,-0.00001515,0.00000433,0.00000275,0.00000953,-0.00001322,-0.000006
 16,-0.00000139,-0.00000471,0.00000027,-0.00000381,0.00000283,-0.000005
 23,-0.00000213,-0.00000152,-0.00000131,-0.00000279,-0.00000169,0.00000
 082,0.00000154,0.00000083,0.00000106,0.00003592,0.00000731,0.00000300,
 -0.00000651,0.00000061,-0.00001656,-0.00001043,-0.00000181,0.00000256,
 -0.00000560,-0.00000171,-0.00000243,-0.00000197,-0.00000152,0.00000028
 ,0.00000335,-0.00000091,0.00000429,0.00000185,-0.00000038,-0.00062375,
 -0.00055060,-0.00077187,-0.00201875,0.00268934,0.00525563,-0.00165615,
 0.00444890,0.00291216,0.01398556,-0.00387716,0.00992639,0.00063701,-0.
 00023120,0.00049961,-0.00510010,0.00555402,-0.00364591,-0.00035596,0.0
 0014039,-0.00012035,0.07857400,-0.09266762,0.07970302,0.00008045,-0.00
 188416,-0.00253796,0.00056443,-0.00219114,-0.00203540,-0.08439657,0.08
 909481,-0.00042232,-0.00020154,0.00013126,0.00015342,-0.00002411,-0.00
 001087,0.00000068,-0.00000702,-0.00001425,-0.00003439,-0.00000017,0.00
 001711,0.00000232,0.00002536,0.00000143,-0.00000143,-0.00001074,-0.000
 00937,-0.00002277,0.00000310,0.00001436,-0.00000494,-0.00000249,0.0000
 0174,-0.00000060,0.00000737,0.00000141,-0.00000381,0.00000167,0.000001
 86,0.00004710,0.00010950,-0.00006184,-0.00004011,0.00007017,-0.0000492
 2,0.00030613,-0.00034561,0.00026749,0.00000161,-0.00000780,0.00010072,
 0.00003855,0.00000933,0.00003911,-0.00002730,-0.00004417,-0.00012074,0
 .00000906,0.00001022,-0.00001497,0.00001366,-0.00000975,0.00000393,-0.
 00001078,0.00000028,0.00000824,0.00000858,-0.00003103,-0.00004378,0.00
 000800,-0.00000568,-0.00000151,-0.00000394,0.00001238,0.00000851,-0.00
 005165,0.00005546,-0.00004309,-0.00001353,0.00000622,0.00001295,-0.000
 00116,-0.00002381,0.00005649,0.00000417,-0.00002360,-0.00003039,0.0000
 0763,0.00000087,-0.00000049,0.00000028,0.00000931,-0.00000414,0.000000
 75,0.00001601,0.00000165,-0.00000031,0.00002790,0.00004005,0.00000859,
 0.00000026,-0.00002058,0.00000920,-0.00000597,0.00001238,0.00000477,-0
 .00000182,0.00000086,-0.00000272,0.00000898,-0.00000457,-0.00000046,0.
 00000042,0.00000392,0.00000197,0.00000574,0.00000223,-0.00000975,-0.00
 001302,0.00002162,-0.00000110,0.00001171,-0.00001229,0.00000044,-0.000
 00071,0.00000145,0.00000251,-0.00000256,0.00000424,-0.00000737,-0.0000
 0237,-0.00000374,-0.00000128,-0.00000515,-0.00000094,-0.00000185,-0.00
 000055,0.00000274,0.00000576,0.00003551,0.00003018,-0.00000123,-0.0000
 0668,-0.00000597,-0.00000909,-0.00000640,-0.00001234,0.00000890,-0.000
 00401,0.00000095,-0.00000286,-0.00000544,0.00000021,-0.00000120,0.0000
 0263,-0.00000044,-0.00000124,0.00000038,0.00000025,0.00114257,-0.00011
 958,-0.00099332,0.00177029,0.00536173,0.00007611,0.00110730,0.00263980
 ,0.00351872,-0.01713108,0.00841492,-0.00910829,-0.00072371,0.00039848,
 -0.00055654,0.00417970,-0.00199317,0.00596917,0.00022297,-0.00000674,0
 .00015060,-0.11339016,0.07981277,-0.14766825,0.00018105,-0.00250060,-0
 .00059585,-0.00027026,-0.00214204,-0.00114109,0.12294641,-0.08950415,0
 .15002492\\-0.00000826,-0.00000762,-0.00000556,-0.00000006,0.00000053,
 -0.00000103,-0.00000204,-0.00000221,-0.00000156,-0.00000005,-0.0000022
 7,0.00000466,-0.00000319,-0.00000281,-0.00000384,-0.00000044,-0.000004
 65,0.00000743,-0.00000115,-0.00000351,0.00000202,-0.00000356,-0.000002
 64,-0.00000640,0.00000023,-0.00000552,0.00001022,-0.00000196,-0.000005
 01,0.00000239,0.00000091,0.00000274,0.00000845,-0.00000123,0.00000142,
 -0.00001054,0.00000596,0.00000639,-0.00000164,0.00000329,0.00000796,-0
 .00000274,0.00000214,0.00000551,-0.00000033,-0.00000355,0.00000261,-0.
 00000780,-0.00000406,-0.00000068,-0.00000935,-0.00000482,-0.00000344,-
 0.00000986,-0.00000440,0.00000048,-0.00001130,0.00000096,-0.00000343,0
 .00001054,-0.00000041,-0.00000669,0.00001045,0.00000211,-0.00000367,0.
 00001377,0.00000232,-0.00000280,0.00001289,0.00000404,-0.00000307,0.00
 001849,0.00000389,0.00000126,0.00001100,-0.00000032,-0.00000593,0.0000
 1061,0.00000422,-0.00000468,0.00001844,0.00000564,0.00000144,0.0000197
 3,0.00000454,-0.00000536,0.00001998,0.00000910,0.00000375,0.00000919,0
 .00000789,0.00000514,0.00001429,0.00000574,0.00000864,0.00000535,0.000
 00678,0.00000653,0.00000938,0.00001005,0.00000924,0.00001419,0.0000070
 1,0.00000401,0.00001363,0.00000837,0.00000342,0.00001743,0.00000479,0.
 00000791,-0.00000596,0.00000156,0.00001068,-0.00001266,0.00000430,0.00
 001116,-0.00000745,0.00000336,0.00000698,-0.00000330,0.00000473,0.0000
 1348,-0.00001238,0.00000095,0.00001113,-0.00001503,0.00000009,0.000009
 49,-0.00001448,-0.00000276,0.00000383,-0.00001288,-0.00000456,0.000002
 52,-0.00001824,-0.00000872,0.00000249,-0.00001778,-0.00000179,0.000005
 48,-0.00001294,-0.00000578,0.00000324,-0.00002174,-0.00000649,-0.00000
 158,-0.00001822,-0.00000376,0.00000552,-0.00001879,0.00000206,-0.00000
 415,-0.00000098,-0.00000252,-0.00000399,0.00000410,-0.00000125,-0.0000
 0762,0.00000123,-0.00000372,-0.00000807,0.00000327,0.00000094,-0.00000
 282,0.00000483,-0.00000953,-0.00000962,-0.00000528,-0.00000007,-0.0000
 0480,-0.00000248,-0.00000563,-0.00001088,-0.00000169,-0.00000324,-0.00
 000865,0.00000509,-0.00000997,-0.00001258,-0.00000752,-0.00000863,-0.0
 0001420,-0.00000131\\\@
 The archive entry for this job was punched.


 IT CANNOT BE MY BEAUTY, FOR I HAVE NONE; AND IT CANNOT BE MY WIT,
 FOR HE HAS NOT ENOUGH TO KNOW THAT I HAVE ANY.
 -- CATHARINE SEDLEY, PUZZLED ABOUT WHY SHE WAS MISTRESS TO JAMES II
 Job cpu time:       2 days 11 hours 56 minutes  9.9 seconds.
 Elapsed time:       0 days  5 hours  0 minutes  1.4 seconds.
 File lengths (MBytes):  RWF=   3341 Int=      0 D2E=      0 Chk=     80 Scr=      1
 Normal termination of Gaussian 16 at Mon May 30 05:22:08 2022.
