 Entering Gaussian System, Link 0=g16
 Input=TS_NCNPtPhMe_NCNPt_PhMe.com
 Output=TS_NCNPtPhMe_NCNPt_PhMe.log
 Initial command:
 /usr/local/g16/l1.exe "/hdd/Gau-52272.inp" -scrdir="/hdd/"
 Entering Link 1 = /usr/local/g16/l1.exe PID=     52274.
  
 Copyright (c) 1988-2019, Gaussian, Inc.  All Rights Reserved.
  
 This is part of the Gaussian(R) 16 program.  It is based on
 the Gaussian(R) 09 system (copyright 2009, Gaussian, Inc.),
 the Gaussian(R) 03 system (copyright 2003, Gaussian, Inc.),
 the Gaussian(R) 98 system (copyright 1998, Gaussian, Inc.),
 the Gaussian(R) 94 system (copyright 1995, Gaussian, Inc.),
 the Gaussian 92(TM) system (copyright 1992, Gaussian, Inc.),
 the Gaussian 90(TM) system (copyright 1990, Gaussian, Inc.),
 the Gaussian 88(TM) system (copyright 1988, Gaussian, Inc.),
 the Gaussian 86(TM) system (copyright 1986, Carnegie Mellon
 University), and the Gaussian 82(TM) system (copyright 1983,
 Carnegie Mellon University). Gaussian is a federally registered
 trademark of Gaussian, Inc.
  
 This software contains proprietary and confidential information,
 including trade secrets, belonging to Gaussian, Inc.
  
 This software is provided under written license and may be
 used, copied, transmitted, or stored only in accord with that
 written license.
  
 The following legend is applicable only to US Government
 contracts under FAR:
  
                    RESTRICTED RIGHTS LEGEND
  
 Use, reproduction and disclosure by the US Government is
 subject to restrictions as set forth in subparagraphs (a)
 and (c) of the Commercial Computer Software - Restricted
 Rights clause in FAR 52.227-19.
  
 Gaussian, Inc.
 340 Quinnipiac St., Bldg. 40, Wallingford CT 06492
  
  
 ---------------------------------------------------------------
 Warning -- This program may not be used in any manner that
 competes with the business of Gaussian, Inc. or will provide
 assistance to any competitor of Gaussian, Inc.  The licensee
 of this program is prohibited from giving any competitor of
 Gaussian, Inc. access to this program.  By using this program,
 the user acknowledges that Gaussian, Inc. is engaged in the
 business of creating and licensing software in the field of
 computational chemistry and represents and warrants to the
 licensee that it is not a competitor of Gaussian, Inc. and that
 it will not use this program in any manner prohibited above.
 ---------------------------------------------------------------
  

 Cite this work as:
 Gaussian 16, Revision C.01,
 M. J. Frisch, G. W. Trucks, H. B. Schlegel, G. E. Scuseria, 
 M. A. Robb, J. R. Cheeseman, G. Scalmani, V. Barone, 
 G. A. Petersson, H. Nakatsuji, X. Li, M. Caricato, A. V. Marenich, 
 J. Bloino, B. G. Janesko, R. Gomperts, B. Mennucci, H. P. Hratchian, 
 J. V. Ortiz, A. F. Izmaylov, J. L. Sonnenberg, D. Williams-Young, 
 F. Ding, F. Lipparini, F. Egidi, J. Goings, B. Peng, A. Petrone, 
 T. Henderson, D. Ranasinghe, V. G. Zakrzewski, J. Gao, N. Rega, 
 G. Zheng, W. Liang, M. Hada, M. Ehara, K. Toyota, R. Fukuda, 
 J. Hasegawa, M. Ishida, T. Nakajima, Y. Honda, O. Kitao, H. Nakai, 
 T. Vreven, K. Throssell, J. A. Montgomery, Jr., J. E. Peralta, 
 F. Ogliaro, M. J. Bearpark, J. J. Heyd, E. N. Brothers, K. N. Kudin, 
 V. N. Staroverov, T. A. Keith, R. Kobayashi, J. Normand, 
 K. Raghavachari, A. P. Rendell, J. C. Burant, S. S. Iyengar, 
 J. Tomasi, M. Cossi, J. M. Millam, M. Klene, C. Adamo, R. Cammi, 
 J. W. Ochterski, R. L. Martin, K. Morokuma, O. Farkas, 
 J. B. Foresman, and D. J. Fox, Gaussian, Inc., Wallingford CT, 2019.
 
 ******************************************
 Gaussian 16:  ES64L-G16RevC.01  3-Jul-2019
                27-May-2022 
 ******************************************
 %nprocshared=12
 Will use up to   12 processors via shared memory.
 %mem=64MW
 %chk=TS_NCNPtPhMe_NCNPt_PhMe.chk
 ----------------------------------------------------------------------
 # opt=(calcFC,ts,noeigentest) freq gen scrf=(iefpcm,solvent=thf) m06 E
 mpiricalDispersion=GD3 Pseudo=Read
 ----------------------------------------------------------------------
 1/5=1,10=4,11=1,18=20,26=3,38=1/1,3;
 2/9=110,12=2,17=6,18=5,40=1/2;
 3/5=7,11=2,16=1,17=8,25=1,30=1,70=2201,71=2,72=20,74=-54,124=31,140=1/1,2,3;
 4//1;
 5/5=2,38=5,53=20/2;
 8/6=4,10=90,11=11/1;
 11/6=1,8=1,9=11,15=111,16=1/1,2,10;
 10/6=1,13=1/2;
 6/7=2,8=2,9=2,10=2,28=1/1;
 7/10=1,25=1/1,2,3,16;
 1/5=1,10=4,11=1,18=20,26=3/3(2);
 2/9=110/2;
 99//99;
 2/9=110/2;
 3/5=7,6=1,11=2,16=1,17=8,25=1,30=1,70=2205,71=1,72=20,74=-54,82=7,124=31/1,2,3;
 4/5=5,16=3,69=1/1;
 5/5=2,38=5,53=20/2;
 7//1,2,3,16;
 1/5=1,11=1,18=20,26=3/3(-5);
 2/9=110/2;
 6/7=2,8=2,9=2,10=2,19=2,28=1/1;
 99/9=1/99;
 ----------------------------------------------------------------------
 M06 TS between (NCN)PtPhMe and NCNPt + PhMe; Custom Lanl2tz(f)+6-311g(
 d,p) basis set
 ----------------------------------------------------------------------
 Symbolic Z-matrix:
 Charge =  1 Multiplicity = 1
 Pt                    0.01927  -0.07946  -0.41062 
 C                    -1.49826   1.18192  -0.04148 
 C                    -1.23792   2.54052   0.1596 
 C                    -2.81138   0.69699  -0.09792 
 C                    -2.30016   3.41129   0.44578 
 C                    -3.88021   1.56122   0.17478 
 C                    -3.61373   2.90919   0.4781 
 H                    -2.11747   4.46915   0.61879 
 H                    -4.90577   1.20039   0.14319 
 H                    -4.43673   3.57871   0.70882 
 N                    -1.69949  -1.48596  -0.11848 
 N                     1.13233   1.80347  -0.0055 
 C                     0.85649  -1.24034  -2.10401 
 H                     1.68643  -0.72177  -2.58201 
 H                    -0.08527  -1.01314  -2.62927 
 H                     1.02422  -2.31781  -2.10047 
 C                     0.16225   2.9614   -0.16318 
 H                     0.18764   3.24679  -1.22254 
 H                     0.51399   3.82444   0.4147 
 C                    -2.9214   -0.71643  -0.58411 
 H                    -2.89415  -0.7319   -1.6825 
 H                    -3.84358  -1.217    -0.27045 
 C                    -1.57586  -2.78261  -0.88263 
 C                    -2.69817  -3.79595  -0.66594 
 H                    -0.6155   -3.22926  -0.6017 
 H                    -1.52222  -2.51919  -1.94449 
 H                    -2.50881  -4.6571   -1.31448 
 H                    -2.73183  -4.16481   0.36383 
 H                    -3.68192  -3.39633  -0.93317 
 C                    -1.76695  -1.73889   1.39519 
 C                    -3.15795  -1.86508   2.01839 
 H                    -1.23141  -0.92227   1.88891 
 H                    -1.21012  -2.6628    1.57931 
 H                    -3.02029  -2.11853   3.07484 
 H                    -3.71435  -0.92301   1.97935 
 H                    -3.76486  -2.65464   1.5649 
 C                     1.50381   1.62452   1.46268 
 C                     2.36318   2.71374   2.10215 
 H                     2.02026   0.6613    1.54157 
 H                     0.55252   1.53486   2.00118 
 H                     2.43438   2.49159   3.17203 
 H                     3.38295   2.72403   1.70623 
 H                     1.93162   3.71598   2.00834 
 C                     2.34194   2.02591  -0.89334 
 C                     2.85624   3.46153  -1.04069 
 H                     2.06831   1.64965  -1.88664 
 H                     3.13782   1.39309  -0.49371 
 H                     3.76079   3.4242   -1.65713 
 H                     2.14441   4.11376  -1.55481 
 H                     3.12529   3.92488  -0.08854 
 C                     1.81142  -1.33836  -0.1867 
 C                     3.14682  -1.08305  -0.56665 
 C                     1.59371  -2.28914   0.83268 
 C                     4.21921  -1.68941   0.10128 
 H                     3.37483  -0.43542  -1.40761 
 C                     2.66822  -2.89267   1.50619 
 H                     0.59034  -2.56063   1.13562 
 C                     3.98832  -2.59018   1.15132 
 H                     5.23428  -1.46435  -0.21246 
 H                     2.46381  -3.60279   2.30212 
 H                     4.81951  -3.06149   1.66577 
 

 GradGradGradGradGradGradGradGradGradGradGradGradGradGradGradGradGradGrad
 Berny optimization.
 Initialization pass.
                           ----------------------------
                           !    Initial Parameters    !
                           ! (Angstroms and Degrees)  !
 --------------------------                            --------------------------
 ! Name  Definition              Value          Derivative Info.                !
 --------------------------------------------------------------------------------
 ! R1    R(1,2)                  2.0075         calculate D2E/DX2 analytically  !
 ! R2    R(1,11)                 2.24           calculate D2E/DX2 analytically  !
 ! R3    R(1,12)                 2.2245         calculate D2E/DX2 analytically  !
 ! R4    R(1,13)                 2.2172         calculate D2E/DX2 analytically  !
 ! R5    R(1,51)                 2.2015         calculate D2E/DX2 analytically  !
 ! R6    R(2,3)                  1.3979         calculate D2E/DX2 analytically  !
 ! R7    R(2,4)                  1.4009         calculate D2E/DX2 analytically  !
 ! R8    R(3,5)                  1.403          calculate D2E/DX2 analytically  !
 ! R9    R(3,17)                 1.4973         calculate D2E/DX2 analytically  !
 ! R10   R(4,6)                  1.4013         calculate D2E/DX2 analytically  !
 ! R11   R(4,20)                 1.4988         calculate D2E/DX2 analytically  !
 ! R12   R(5,7)                  1.4066         calculate D2E/DX2 analytically  !
 ! R13   R(5,8)                  1.0874         calculate D2E/DX2 analytically  !
 ! R14   R(6,7)                  1.4071         calculate D2E/DX2 analytically  !
 ! R15   R(6,9)                  1.0876         calculate D2E/DX2 analytically  !
 ! R16   R(7,10)                 1.0857         calculate D2E/DX2 analytically  !
 ! R17   R(11,20)                1.5172         calculate D2E/DX2 analytically  !
 ! R18   R(11,23)                1.5101         calculate D2E/DX2 analytically  !
 ! R19   R(11,30)                1.5361         calculate D2E/DX2 analytically  !
 ! R20   R(12,17)                1.5188         calculate D2E/DX2 analytically  !
 ! R21   R(12,37)                1.525          calculate D2E/DX2 analytically  !
 ! R22   R(12,44)                1.5169         calculate D2E/DX2 analytically  !
 ! R23   R(13,14)                1.0891         calculate D2E/DX2 analytically  !
 ! R24   R(13,15)                1.102          calculate D2E/DX2 analytically  !
 ! R25   R(13,16)                1.0904         calculate D2E/DX2 analytically  !
 ! R26   R(17,18)                1.0974         calculate D2E/DX2 analytically  !
 ! R27   R(17,19)                1.0966         calculate D2E/DX2 analytically  !
 ! R28   R(20,21)                1.0988         calculate D2E/DX2 analytically  !
 ! R29   R(20,22)                1.0952         calculate D2E/DX2 analytically  !
 ! R30   R(23,24)                1.5275         calculate D2E/DX2 analytically  !
 ! R31   R(23,25)                1.0958         calculate D2E/DX2 analytically  !
 ! R32   R(23,26)                1.0954         calculate D2E/DX2 analytically  !
 ! R33   R(24,27)                1.0946         calculate D2E/DX2 analytically  !
 ! R34   R(24,28)                1.0944         calculate D2E/DX2 analytically  !
 ! R35   R(24,29)                1.0949         calculate D2E/DX2 analytically  !
 ! R36   R(30,31)                1.5294         calculate D2E/DX2 analytically  !
 ! R37   R(30,32)                1.0943         calculate D2E/DX2 analytically  !
 ! R38   R(30,33)                1.0943         calculate D2E/DX2 analytically  !
 ! R39   R(31,34)                1.0951         calculate D2E/DX2 analytically  !
 ! R40   R(31,35)                1.0948         calculate D2E/DX2 analytically  !
 ! R41   R(31,36)                1.0943         calculate D2E/DX2 analytically  !
 ! R42   R(37,38)                1.5277         calculate D2E/DX2 analytically  !
 ! R43   R(37,39)                1.0958         calculate D2E/DX2 analytically  !
 ! R44   R(37,40)                1.0968         calculate D2E/DX2 analytically  !
 ! R45   R(38,41)                1.095          calculate D2E/DX2 analytically  !
 ! R46   R(38,42)                1.094          calculate D2E/DX2 analytically  !
 ! R47   R(38,43)                1.0952         calculate D2E/DX2 analytically  !
 ! R48   R(44,45)                1.5321         calculate D2E/DX2 analytically  !
 ! R49   R(44,46)                1.0969         calculate D2E/DX2 analytically  !
 ! R50   R(44,47)                1.0925         calculate D2E/DX2 analytically  !
 ! R51   R(45,48)                1.0953         calculate D2E/DX2 analytically  !
 ! R52   R(45,49)                1.0938         calculate D2E/DX2 analytically  !
 ! R53   R(45,50)                1.0926         calculate D2E/DX2 analytically  !
 ! R54   R(51,52)                1.4117         calculate D2E/DX2 analytically  !
 ! R55   R(51,53)                1.4109         calculate D2E/DX2 analytically  !
 ! R56   R(52,54)                1.4014         calculate D2E/DX2 analytically  !
 ! R57   R(52,55)                1.0856         calculate D2E/DX2 analytically  !
 ! R58   R(53,56)                1.4044         calculate D2E/DX2 analytically  !
 ! R59   R(53,57)                1.0827         calculate D2E/DX2 analytically  !
 ! R60   R(54,58)                1.4026         calculate D2E/DX2 analytically  !
 ! R61   R(54,59)                1.086          calculate D2E/DX2 analytically  !
 ! R62   R(56,58)                1.4            calculate D2E/DX2 analytically  !
 ! R63   R(56,60)                1.0861         calculate D2E/DX2 analytically  !
 ! R64   R(58,61)                1.0852         calculate D2E/DX2 analytically  !
 ! A1    A(2,1,11)              77.9085         calculate D2E/DX2 analytically  !
 ! A2    A(2,1,12)              79.2167         calculate D2E/DX2 analytically  !
 ! A3    A(2,1,13)             139.011          calculate D2E/DX2 analytically  !
 ! A4    A(2,1,51)             162.9274         calculate D2E/DX2 analytically  !
 ! A5    A(11,1,12)            153.0815         calculate D2E/DX2 analytically  !
 ! A6    A(11,1,13)             93.4734         calculate D2E/DX2 analytically  !
 ! A7    A(11,1,51)            104.6137         calculate D2E/DX2 analytically  !
 ! A8    A(12,1,13)            113.162          calculate D2E/DX2 analytically  !
 ! A9    A(12,1,51)             93.3354         calculate D2E/DX2 analytically  !
 ! A10   A(13,1,51)             58.0559         calculate D2E/DX2 analytically  !
 ! A11   A(1,2,3)              119.7583         calculate D2E/DX2 analytically  !
 ! A12   A(1,2,4)              118.9231         calculate D2E/DX2 analytically  !
 ! A13   A(3,2,4)              121.1167         calculate D2E/DX2 analytically  !
 ! A14   A(2,3,5)              119.4426         calculate D2E/DX2 analytically  !
 ! A15   A(2,3,17)             114.6048         calculate D2E/DX2 analytically  !
 ! A16   A(5,3,17)             125.2758         calculate D2E/DX2 analytically  !
 ! A17   A(2,4,6)              119.5782         calculate D2E/DX2 analytically  !
 ! A18   A(2,4,20)             114.0987         calculate D2E/DX2 analytically  !
 ! A19   A(6,4,20)             126.0691         calculate D2E/DX2 analytically  !
 ! A20   A(3,5,7)              119.3507         calculate D2E/DX2 analytically  !
 ! A21   A(3,5,8)              120.6005         calculate D2E/DX2 analytically  !
 ! A22   A(7,5,8)              120.0336         calculate D2E/DX2 analytically  !
 ! A23   A(4,6,7)              119.229          calculate D2E/DX2 analytically  !
 ! A24   A(4,6,9)              120.5936         calculate D2E/DX2 analytically  !
 ! A25   A(7,6,9)              120.1744         calculate D2E/DX2 analytically  !
 ! A26   A(5,7,6)              120.9201         calculate D2E/DX2 analytically  !
 ! A27   A(5,7,10)             119.5133         calculate D2E/DX2 analytically  !
 ! A28   A(6,7,10)             119.5366         calculate D2E/DX2 analytically  !
 ! A29   A(1,11,20)            105.0376         calculate D2E/DX2 analytically  !
 ! A30   A(1,11,23)            114.2249         calculate D2E/DX2 analytically  !
 ! A31   A(1,11,30)            105.4022         calculate D2E/DX2 analytically  !
 ! A32   A(20,11,23)           110.2506         calculate D2E/DX2 analytically  !
 ! A33   A(20,11,30)           110.5207         calculate D2E/DX2 analytically  !
 ! A34   A(23,11,30)           111.1511         calculate D2E/DX2 analytically  !
 ! A35   A(1,12,17)            107.8685         calculate D2E/DX2 analytically  !
 ! A36   A(1,12,37)            101.4137         calculate D2E/DX2 analytically  !
 ! A37   A(1,12,44)            114.6162         calculate D2E/DX2 analytically  !
 ! A38   A(17,12,37)           110.1823         calculate D2E/DX2 analytically  !
 ! A39   A(17,12,44)           109.6803         calculate D2E/DX2 analytically  !
 ! A40   A(37,12,44)           112.7346         calculate D2E/DX2 analytically  !
 ! A41   A(1,13,14)            111.9404         calculate D2E/DX2 analytically  !
 ! A42   A(1,13,15)             86.1811         calculate D2E/DX2 analytically  !
 ! A43   A(1,13,16)            124.9554         calculate D2E/DX2 analytically  !
 ! A44   A(14,13,15)           110.1116         calculate D2E/DX2 analytically  !
 ! A45   A(14,13,16)           110.7739         calculate D2E/DX2 analytically  !
 ! A46   A(15,13,16)           109.6764         calculate D2E/DX2 analytically  !
 ! A47   A(3,17,12)            111.1374         calculate D2E/DX2 analytically  !
 ! A48   A(3,17,18)            107.6287         calculate D2E/DX2 analytically  !
 ! A49   A(3,17,19)            114.053          calculate D2E/DX2 analytically  !
 ! A50   A(12,17,18)           106.4818         calculate D2E/DX2 analytically  !
 ! A51   A(12,17,19)           109.9038         calculate D2E/DX2 analytically  !
 ! A52   A(18,17,19)           107.2539         calculate D2E/DX2 analytically  !
 ! A53   A(4,20,11)            108.6411         calculate D2E/DX2 analytically  !
 ! A54   A(4,20,21)            109.6162         calculate D2E/DX2 analytically  !
 ! A55   A(4,20,22)            113.5754         calculate D2E/DX2 analytically  !
 ! A56   A(11,20,21)           106.2399         calculate D2E/DX2 analytically  !
 ! A57   A(11,20,22)           111.0034         calculate D2E/DX2 analytically  !
 ! A58   A(21,20,22)           107.502          calculate D2E/DX2 analytically  !
 ! A59   A(11,23,24)           115.9552         calculate D2E/DX2 analytically  !
 ! A60   A(11,23,25)           106.9785         calculate D2E/DX2 analytically  !
 ! A61   A(11,23,26)           106.742          calculate D2E/DX2 analytically  !
 ! A62   A(24,23,25)           109.7034         calculate D2E/DX2 analytically  !
 ! A63   A(24,23,26)           109.4523         calculate D2E/DX2 analytically  !
 ! A64   A(25,23,26)           107.6765         calculate D2E/DX2 analytically  !
 ! A65   A(23,24,27)           108.105          calculate D2E/DX2 analytically  !
 ! A66   A(23,24,28)           112.3136         calculate D2E/DX2 analytically  !
 ! A67   A(23,24,29)           112.5432         calculate D2E/DX2 analytically  !
 ! A68   A(27,24,28)           107.318          calculate D2E/DX2 analytically  !
 ! A69   A(27,24,29)           107.3363         calculate D2E/DX2 analytically  !
 ! A70   A(28,24,29)           108.9681         calculate D2E/DX2 analytically  !
 ! A71   A(11,30,31)           117.0673         calculate D2E/DX2 analytically  !
 ! A72   A(11,30,32)           107.4704         calculate D2E/DX2 analytically  !
 ! A73   A(11,30,33)           106.4066         calculate D2E/DX2 analytically  !
 ! A74   A(31,30,32)           108.8344         calculate D2E/DX2 analytically  !
 ! A75   A(31,30,33)           108.939          calculate D2E/DX2 analytically  !
 ! A76   A(32,30,33)           107.7651         calculate D2E/DX2 analytically  !
 ! A77   A(30,31,34)           107.3289         calculate D2E/DX2 analytically  !
 ! A78   A(30,31,35)           112.1286         calculate D2E/DX2 analytically  !
 ! A79   A(30,31,36)           113.2717         calculate D2E/DX2 analytically  !
 ! A80   A(34,31,35)           107.3035         calculate D2E/DX2 analytically  !
 ! A81   A(34,31,36)           107.6094         calculate D2E/DX2 analytically  !
 ! A82   A(35,31,36)           108.9192         calculate D2E/DX2 analytically  !
 ! A83   A(12,37,38)           117.1523         calculate D2E/DX2 analytically  !
 ! A84   A(12,37,39)           106.6949         calculate D2E/DX2 analytically  !
 ! A85   A(12,37,40)           105.7238         calculate D2E/DX2 analytically  !
 ! A86   A(38,37,39)           109.3579         calculate D2E/DX2 analytically  !
 ! A87   A(38,37,40)           109.9174         calculate D2E/DX2 analytically  !
 ! A88   A(39,37,40)           107.5524         calculate D2E/DX2 analytically  !
 ! A89   A(37,38,41)           107.5127         calculate D2E/DX2 analytically  !
 ! A90   A(37,38,42)           112.3083         calculate D2E/DX2 analytically  !
 ! A91   A(37,38,43)           113.2625         calculate D2E/DX2 analytically  !
 ! A92   A(41,38,42)           107.151          calculate D2E/DX2 analytically  !
 ! A93   A(41,38,43)           107.1544         calculate D2E/DX2 analytically  !
 ! A94   A(42,38,43)           109.129          calculate D2E/DX2 analytically  !
 ! A95   A(12,44,45)           117.4775         calculate D2E/DX2 analytically  !
 ! A96   A(12,44,46)           106.3087         calculate D2E/DX2 analytically  !
 ! A97   A(12,44,47)           106.3726         calculate D2E/DX2 analytically  !
 ! A98   A(45,44,46)           108.5468         calculate D2E/DX2 analytically  !
 ! A99   A(45,44,47)           109.4757         calculate D2E/DX2 analytically  !
 ! A100  A(46,44,47)           108.3181         calculate D2E/DX2 analytically  !
 ! A101  A(44,45,48)           107.4234         calculate D2E/DX2 analytically  !
 ! A102  A(44,45,49)           112.6749         calculate D2E/DX2 analytically  !
 ! A103  A(44,45,50)           113.3436         calculate D2E/DX2 analytically  !
 ! A104  A(48,45,49)           107.0525         calculate D2E/DX2 analytically  !
 ! A105  A(48,45,50)           107.5519         calculate D2E/DX2 analytically  !
 ! A106  A(49,45,50)           108.4817         calculate D2E/DX2 analytically  !
 ! A107  A(1,51,52)            129.7371         calculate D2E/DX2 analytically  !
 ! A108  A(1,51,53)            109.4648         calculate D2E/DX2 analytically  !
 ! A109  A(52,51,53)           117.5369         calculate D2E/DX2 analytically  !
 ! A110  A(51,52,54)           121.1552         calculate D2E/DX2 analytically  !
 ! A111  A(51,52,55)           121.0006         calculate D2E/DX2 analytically  !
 ! A112  A(54,52,55)           117.8141         calculate D2E/DX2 analytically  !
 ! A113  A(51,53,56)           121.1998         calculate D2E/DX2 analytically  !
 ! A114  A(51,53,57)           120.9409         calculate D2E/DX2 analytically  !
 ! A115  A(56,53,57)           117.8459         calculate D2E/DX2 analytically  !
 ! A116  A(52,54,58)           120.5796         calculate D2E/DX2 analytically  !
 ! A117  A(52,54,59)           119.2022         calculate D2E/DX2 analytically  !
 ! A118  A(58,54,59)           120.2129         calculate D2E/DX2 analytically  !
 ! A119  A(53,56,58)           120.4646         calculate D2E/DX2 analytically  !
 ! A120  A(53,56,60)           119.2373         calculate D2E/DX2 analytically  !
 ! A121  A(58,56,60)           120.2969         calculate D2E/DX2 analytically  !
 ! A122  A(54,58,56)           118.9292         calculate D2E/DX2 analytically  !
 ! A123  A(54,58,61)           120.5126         calculate D2E/DX2 analytically  !
 ! A124  A(56,58,61)           120.5448         calculate D2E/DX2 analytically  !
 ! D1    D(11,1,2,3)           170.9804         calculate D2E/DX2 analytically  !
 ! D2    D(11,1,2,4)           -14.1251         calculate D2E/DX2 analytically  !
 ! D3    D(12,1,2,3)             5.2667         calculate D2E/DX2 analytically  !
 ! D4    D(12,1,2,4)          -179.8388         calculate D2E/DX2 analytically  !
 ! D5    D(13,1,2,3)          -107.7666         calculate D2E/DX2 analytically  !
 ! D6    D(13,1,2,4)            67.1279         calculate D2E/DX2 analytically  !
 ! D7    D(51,1,2,3)            70.5324         calculate D2E/DX2 analytically  !
 ! D8    D(51,1,2,4)          -114.5731         calculate D2E/DX2 analytically  !
 ! D9    D(2,1,11,20)           30.1391         calculate D2E/DX2 analytically  !
 ! D10   D(2,1,11,23)          151.062          calculate D2E/DX2 analytically  !
 ! D11   D(2,1,11,30)          -86.6372         calculate D2E/DX2 analytically  !
 ! D12   D(12,1,11,20)          62.5135         calculate D2E/DX2 analytically  !
 ! D13   D(12,1,11,23)        -176.5635         calculate D2E/DX2 analytically  !
 ! D14   D(12,1,11,30)         -54.2628         calculate D2E/DX2 analytically  !
 ! D15   D(13,1,11,20)        -109.3586         calculate D2E/DX2 analytically  !
 ! D16   D(13,1,11,23)          11.5643         calculate D2E/DX2 analytically  !
 ! D17   D(13,1,11,30)         133.8651         calculate D2E/DX2 analytically  !
 ! D18   D(51,1,11,20)        -167.2205         calculate D2E/DX2 analytically  !
 ! D19   D(51,1,11,23)         -46.2976         calculate D2E/DX2 analytically  !
 ! D20   D(51,1,11,30)          76.0032         calculate D2E/DX2 analytically  !
 ! D21   D(2,1,12,17)          -18.7478         calculate D2E/DX2 analytically  !
 ! D22   D(2,1,12,37)           97.0307         calculate D2E/DX2 analytically  !
 ! D23   D(2,1,12,44)         -141.2221         calculate D2E/DX2 analytically  !
 ! D24   D(11,1,12,17)         -50.955          calculate D2E/DX2 analytically  !
 ! D25   D(11,1,12,37)          64.8235         calculate D2E/DX2 analytically  !
 ! D26   D(11,1,12,44)        -173.4293         calculate D2E/DX2 analytically  !
 ! D27   D(13,1,12,17)         120.2155         calculate D2E/DX2 analytically  !
 ! D28   D(13,1,12,37)        -124.0061         calculate D2E/DX2 analytically  !
 ! D29   D(13,1,12,44)          -2.2588         calculate D2E/DX2 analytically  !
 ! D30   D(51,1,12,17)         176.7441         calculate D2E/DX2 analytically  !
 ! D31   D(51,1,12,37)         -67.4775         calculate D2E/DX2 analytically  !
 ! D32   D(51,1,12,44)          54.2698         calculate D2E/DX2 analytically  !
 ! D33   D(2,1,13,14)           97.1305         calculate D2E/DX2 analytically  !
 ! D34   D(2,1,13,15)          -13.0289         calculate D2E/DX2 analytically  !
 ! D35   D(2,1,13,16)         -124.441          calculate D2E/DX2 analytically  !
 ! D36   D(11,1,13,14)         172.6472         calculate D2E/DX2 analytically  !
 ! D37   D(11,1,13,15)          62.4877         calculate D2E/DX2 analytically  !
 ! D38   D(11,1,13,16)         -48.9243         calculate D2E/DX2 analytically  !
 ! D39   D(12,1,13,14)          -3.3607         calculate D2E/DX2 analytically  !
 ! D40   D(12,1,13,15)        -113.5202         calculate D2E/DX2 analytically  !
 ! D41   D(12,1,13,16)         135.0678         calculate D2E/DX2 analytically  !
 ! D42   D(51,1,13,14)         -82.2811         calculate D2E/DX2 analytically  !
 ! D43   D(51,1,13,15)         167.5595         calculate D2E/DX2 analytically  !
 ! D44   D(51,1,13,16)          56.1474         calculate D2E/DX2 analytically  !
 ! D45   D(2,1,51,52)         -100.1616         calculate D2E/DX2 analytically  !
 ! D46   D(2,1,51,53)           58.5018         calculate D2E/DX2 analytically  !
 ! D47   D(11,1,51,52)         163.4297         calculate D2E/DX2 analytically  !
 ! D48   D(11,1,51,53)         -37.9068         calculate D2E/DX2 analytically  !
 ! D49   D(12,1,51,52)         -36.8155         calculate D2E/DX2 analytically  !
 ! D50   D(12,1,51,53)         121.848          calculate D2E/DX2 analytically  !
 ! D51   D(13,1,51,52)          78.5236         calculate D2E/DX2 analytically  !
 ! D52   D(13,1,51,53)        -122.8129         calculate D2E/DX2 analytically  !
 ! D53   D(1,2,3,5)           -178.6276         calculate D2E/DX2 analytically  !
 ! D54   D(1,2,3,17)            10.3054         calculate D2E/DX2 analytically  !
 ! D55   D(4,2,3,5)              6.5924         calculate D2E/DX2 analytically  !
 ! D56   D(4,2,3,17)          -164.4745         calculate D2E/DX2 analytically  !
 ! D57   D(1,2,4,6)            179.1559         calculate D2E/DX2 analytically  !
 ! D58   D(1,2,4,20)            -6.2857         calculate D2E/DX2 analytically  !
 ! D59   D(3,2,4,6)             -6.0214         calculate D2E/DX2 analytically  !
 ! D60   D(3,2,4,20)           168.537          calculate D2E/DX2 analytically  !
 ! D61   D(2,3,5,7)             -2.2472         calculate D2E/DX2 analytically  !
 ! D62   D(2,3,5,8)            179.1697         calculate D2E/DX2 analytically  !
 ! D63   D(17,3,5,7)           167.7943         calculate D2E/DX2 analytically  !
 ! D64   D(17,3,5,8)           -10.7889         calculate D2E/DX2 analytically  !
 ! D65   D(2,3,17,12)          -26.7545         calculate D2E/DX2 analytically  !
 ! D66   D(2,3,17,18)           89.4784         calculate D2E/DX2 analytically  !
 ! D67   D(2,3,17,19)         -151.6631         calculate D2E/DX2 analytically  !
 ! D68   D(5,3,17,12)          162.78           calculate D2E/DX2 analytically  !
 ! D69   D(5,3,17,18)          -80.9871         calculate D2E/DX2 analytically  !
 ! D70   D(5,3,17,19)           37.8714         calculate D2E/DX2 analytically  !
 ! D71   D(2,4,6,7)              1.1032         calculate D2E/DX2 analytically  !
 ! D72   D(2,4,6,9)           -179.528          calculate D2E/DX2 analytically  !
 ! D73   D(20,4,6,7)          -172.7488         calculate D2E/DX2 analytically  !
 ! D74   D(20,4,6,9)             6.62           calculate D2E/DX2 analytically  !
 ! D75   D(2,4,20,11)           33.3909         calculate D2E/DX2 analytically  !
 ! D76   D(2,4,20,21)          -82.3026         calculate D2E/DX2 analytically  !
 ! D77   D(2,4,20,22)          157.4412         calculate D2E/DX2 analytically  !
 ! D78   D(6,4,20,11)         -152.4654         calculate D2E/DX2 analytically  !
 ! D79   D(6,4,20,21)           91.8412         calculate D2E/DX2 analytically  !
 ! D80   D(6,4,20,22)          -28.4151         calculate D2E/DX2 analytically  !
 ! D81   D(3,5,7,6)             -2.5956         calculate D2E/DX2 analytically  !
 ! D82   D(3,5,7,10)           179.4061         calculate D2E/DX2 analytically  !
 ! D83   D(8,5,7,6)            175.9958         calculate D2E/DX2 analytically  !
 ! D84   D(8,5,7,10)            -2.0026         calculate D2E/DX2 analytically  !
 ! D85   D(4,6,7,5)              3.1671         calculate D2E/DX2 analytically  !
 ! D86   D(4,6,7,10)          -178.8351         calculate D2E/DX2 analytically  !
 ! D87   D(9,6,7,5)           -176.2045         calculate D2E/DX2 analytically  !
 ! D88   D(9,6,7,10)             1.7934         calculate D2E/DX2 analytically  !
 ! D89   D(1,11,20,4)          -41.1462         calculate D2E/DX2 analytically  !
 ! D90   D(1,11,20,21)          76.7124         calculate D2E/DX2 analytically  !
 ! D91   D(1,11,20,22)        -166.7131         calculate D2E/DX2 analytically  !
 ! D92   D(23,11,20,4)        -164.6488         calculate D2E/DX2 analytically  !
 ! D93   D(23,11,20,21)        -46.7903         calculate D2E/DX2 analytically  !
 ! D94   D(23,11,20,22)         69.7843         calculate D2E/DX2 analytically  !
 ! D95   D(30,11,20,4)          72.0699         calculate D2E/DX2 analytically  !
 ! D96   D(30,11,20,21)       -170.0715         calculate D2E/DX2 analytically  !
 ! D97   D(30,11,20,22)        -53.497          calculate D2E/DX2 analytically  !
 ! D98   D(1,11,23,24)         177.5173         calculate D2E/DX2 analytically  !
 ! D99   D(1,11,23,25)          54.7874         calculate D2E/DX2 analytically  !
 ! D100  D(1,11,23,26)         -60.2607         calculate D2E/DX2 analytically  !
 ! D101  D(20,11,23,24)        -64.4972         calculate D2E/DX2 analytically  !
 ! D102  D(20,11,23,25)        172.7729         calculate D2E/DX2 analytically  !
 ! D103  D(20,11,23,26)         57.7248         calculate D2E/DX2 analytically  !
 ! D104  D(30,11,23,24)         58.416          calculate D2E/DX2 analytically  !
 ! D105  D(30,11,23,25)        -64.314          calculate D2E/DX2 analytically  !
 ! D106  D(30,11,23,26)       -179.362          calculate D2E/DX2 analytically  !
 ! D107  D(1,11,30,31)         142.593          calculate D2E/DX2 analytically  !
 ! D108  D(1,11,30,32)          19.8478         calculate D2E/DX2 analytically  !
 ! D109  D(1,11,30,33)         -95.3736         calculate D2E/DX2 analytically  !
 ! D110  D(20,11,30,31)         29.6094         calculate D2E/DX2 analytically  !
 ! D111  D(20,11,30,32)        -93.1357         calculate D2E/DX2 analytically  !
 ! D112  D(20,11,30,33)        151.6429         calculate D2E/DX2 analytically  !
 ! D113  D(23,11,30,31)        -93.1482         calculate D2E/DX2 analytically  !
 ! D114  D(23,11,30,32)        144.1067         calculate D2E/DX2 analytically  !
 ! D115  D(23,11,30,33)         28.8852         calculate D2E/DX2 analytically  !
 ! D116  D(1,12,17,3)           28.892          calculate D2E/DX2 analytically  !
 ! D117  D(1,12,17,18)         -88.0441         calculate D2E/DX2 analytically  !
 ! D118  D(1,12,17,19)         156.1011         calculate D2E/DX2 analytically  !
 ! D119  D(37,12,17,3)         -80.9864         calculate D2E/DX2 analytically  !
 ! D120  D(37,12,17,18)        162.0775         calculate D2E/DX2 analytically  !
 ! D121  D(37,12,17,19)         46.2227         calculate D2E/DX2 analytically  !
 ! D122  D(44,12,17,3)         154.3499         calculate D2E/DX2 analytically  !
 ! D123  D(44,12,17,18)         37.4139         calculate D2E/DX2 analytically  !
 ! D124  D(44,12,17,19)        -78.4409         calculate D2E/DX2 analytically  !
 ! D125  D(1,12,37,38)         176.8637         calculate D2E/DX2 analytically  !
 ! D126  D(1,12,37,39)          53.9937         calculate D2E/DX2 analytically  !
 ! D127  D(1,12,37,40)         -60.3071         calculate D2E/DX2 analytically  !
 ! D128  D(17,12,37,38)        -69.0752         calculate D2E/DX2 analytically  !
 ! D129  D(17,12,37,39)        168.0547         calculate D2E/DX2 analytically  !
 ! D130  D(17,12,37,40)         53.7539         calculate D2E/DX2 analytically  !
 ! D131  D(44,12,37,38)         53.8163         calculate D2E/DX2 analytically  !
 ! D132  D(44,12,37,39)        -69.0537         calculate D2E/DX2 analytically  !
 ! D133  D(44,12,37,40)        176.6454         calculate D2E/DX2 analytically  !
 ! D134  D(1,12,44,45)         158.691          calculate D2E/DX2 analytically  !
 ! D135  D(1,12,44,46)          36.9744         calculate D2E/DX2 analytically  !
 ! D136  D(1,12,44,47)         -78.3201         calculate D2E/DX2 analytically  !
 ! D137  D(17,12,44,45)         37.203          calculate D2E/DX2 analytically  !
 ! D138  D(17,12,44,46)        -84.5135         calculate D2E/DX2 analytically  !
 ! D139  D(17,12,44,47)        160.192          calculate D2E/DX2 analytically  !
 ! D140  D(37,12,44,45)        -85.9685         calculate D2E/DX2 analytically  !
 ! D141  D(37,12,44,46)        152.3149         calculate D2E/DX2 analytically  !
 ! D142  D(37,12,44,47)         37.0205         calculate D2E/DX2 analytically  !
 ! D143  D(11,23,24,27)        177.0854         calculate D2E/DX2 analytically  !
 ! D144  D(11,23,24,28)        -64.7041         calculate D2E/DX2 analytically  !
 ! D145  D(11,23,24,29)         58.7161         calculate D2E/DX2 analytically  !
 ! D146  D(25,23,24,27)        -61.63           calculate D2E/DX2 analytically  !
 ! D147  D(25,23,24,28)         56.5804         calculate D2E/DX2 analytically  !
 ! D148  D(25,23,24,29)       -179.9993         calculate D2E/DX2 analytically  !
 ! D149  D(26,23,24,27)         56.3091         calculate D2E/DX2 analytically  !
 ! D150  D(26,23,24,28)        174.5195         calculate D2E/DX2 analytically  !
 ! D151  D(26,23,24,29)        -62.0602         calculate D2E/DX2 analytically  !
 ! D152  D(11,30,31,34)        175.6764         calculate D2E/DX2 analytically  !
 ! D153  D(11,30,31,35)        -66.7279         calculate D2E/DX2 analytically  !
 ! D154  D(11,30,31,36)         57.0452         calculate D2E/DX2 analytically  !
 ! D155  D(32,30,31,34)        -62.2833         calculate D2E/DX2 analytically  !
 ! D156  D(32,30,31,35)         55.3124         calculate D2E/DX2 analytically  !
 ! D157  D(32,30,31,36)        179.0854         calculate D2E/DX2 analytically  !
 ! D158  D(33,30,31,34)         54.9665         calculate D2E/DX2 analytically  !
 ! D159  D(33,30,31,35)        172.5622         calculate D2E/DX2 analytically  !
 ! D160  D(33,30,31,36)        -63.6647         calculate D2E/DX2 analytically  !
 ! D161  D(12,37,38,41)        173.4242         calculate D2E/DX2 analytically  !
 ! D162  D(12,37,38,42)        -68.9493         calculate D2E/DX2 analytically  !
 ! D163  D(12,37,38,43)         55.2404         calculate D2E/DX2 analytically  !
 ! D164  D(39,37,38,41)        -65.0831         calculate D2E/DX2 analytically  !
 ! D165  D(39,37,38,42)         52.5434         calculate D2E/DX2 analytically  !
 ! D166  D(39,37,38,43)        176.7331         calculate D2E/DX2 analytically  !
 ! D167  D(40,37,38,41)         52.7752         calculate D2E/DX2 analytically  !
 ! D168  D(40,37,38,42)        170.4017         calculate D2E/DX2 analytically  !
 ! D169  D(40,37,38,43)        -65.4086         calculate D2E/DX2 analytically  !
 ! D170  D(12,44,45,48)        176.4415         calculate D2E/DX2 analytically  !
 ! D171  D(12,44,45,49)        -65.8994         calculate D2E/DX2 analytically  !
 ! D172  D(12,44,45,50)         57.7764         calculate D2E/DX2 analytically  !
 ! D173  D(46,44,45,48)        -63.0051         calculate D2E/DX2 analytically  !
 ! D174  D(46,44,45,49)         54.6541         calculate D2E/DX2 analytically  !
 ! D175  D(46,44,45,50)        178.3298         calculate D2E/DX2 analytically  !
 ! D176  D(47,44,45,48)         55.0472         calculate D2E/DX2 analytically  !
 ! D177  D(47,44,45,49)        172.7064         calculate D2E/DX2 analytically  !
 ! D178  D(47,44,45,50)        -63.6179         calculate D2E/DX2 analytically  !
 ! D179  D(1,51,52,54)         153.3413         calculate D2E/DX2 analytically  !
 ! D180  D(1,51,52,55)         -28.6961         calculate D2E/DX2 analytically  !
 ! D181  D(53,51,52,54)         -3.8983         calculate D2E/DX2 analytically  !
 ! D182  D(53,51,52,55)        174.0643         calculate D2E/DX2 analytically  !
 ! D183  D(1,51,53,56)        -157.428          calculate D2E/DX2 analytically  !
 ! D184  D(1,51,53,57)          21.2121         calculate D2E/DX2 analytically  !
 ! D185  D(52,51,53,56)          4.1787         calculate D2E/DX2 analytically  !
 ! D186  D(52,51,53,57)       -177.1811         calculate D2E/DX2 analytically  !
 ! D187  D(51,52,54,58)          1.3055         calculate D2E/DX2 analytically  !
 ! D188  D(51,52,54,59)       -179.5267         calculate D2E/DX2 analytically  !
 ! D189  D(55,52,54,58)       -176.72           calculate D2E/DX2 analytically  !
 ! D190  D(55,52,54,59)          2.4477         calculate D2E/DX2 analytically  !
 ! D191  D(51,53,56,58)         -1.8687         calculate D2E/DX2 analytically  !
 ! D192  D(51,53,56,60)        178.5396         calculate D2E/DX2 analytically  !
 ! D193  D(57,53,56,58)        179.4504         calculate D2E/DX2 analytically  !
 ! D194  D(57,53,56,60)         -0.1413         calculate D2E/DX2 analytically  !
 ! D195  D(52,54,58,56)          1.1338         calculate D2E/DX2 analytically  !
 ! D196  D(52,54,58,61)        179.8082         calculate D2E/DX2 analytically  !
 ! D197  D(59,54,58,56)       -178.0255         calculate D2E/DX2 analytically  !
 ! D198  D(59,54,58,61)          0.6489         calculate D2E/DX2 analytically  !
 ! D199  D(53,56,58,54)         -0.8563         calculate D2E/DX2 analytically  !
 ! D200  D(53,56,58,61)       -179.5302         calculate D2E/DX2 analytically  !
 ! D201  D(60,56,58,54)        178.7311         calculate D2E/DX2 analytically  !
 ! D202  D(60,56,58,61)          0.0572         calculate D2E/DX2 analytically  !
 --------------------------------------------------------------------------------
 Trust Radius=3.00D-01 FncErr=1.00D-07 GrdErr=1.00D-06 EigMax=2.50D+02 EigMin=1.00D-04
 Number of steps in this run=    366 maximum allowed number of steps=    366.
 Search for a saddle point of order  1.
 GradGradGradGradGradGradGradGradGradGradGradGradGradGradGradGradGradGrad

 Stoichiometry    C23H35N2Pt(1+)
 Framework group  C1[X(C23H35N2Pt)]
 Deg. of freedom   177
 Full point group                 C1      NOp   1
 Largest Abelian subgroup         C1      NOp   1
 Largest concise Abelian subgroup C1      NOp   1
                         Standard orientation:                         
 ---------------------------------------------------------------------
 Center     Atomic      Atomic             Coordinates (Angstroms)
 Number     Number       Type             X           Y           Z
 ---------------------------------------------------------------------
      1         78           0        0.019273   -0.079459   -0.410623
      2          6           0       -1.498257    1.181917   -0.041477
      3          6           0       -1.237921    2.540515    0.159604
      4          6           0       -2.811380    0.696994   -0.097922
      5          6           0       -2.300155    3.411294    0.445784
      6          6           0       -3.880207    1.561221    0.174782
      7          6           0       -3.613726    2.909190    0.478095
      8          1           0       -2.117465    4.469153    0.618788
      9          1           0       -4.905772    1.200389    0.143194
     10          1           0       -4.436728    3.578713    0.708820
     11          7           0       -1.699490   -1.485959   -0.118482
     12          7           0        1.132332    1.803470   -0.005500
     13          6           0        0.856492   -1.240343   -2.104006
     14          1           0        1.686426   -0.721773   -2.582014
     15          1           0       -0.085271   -1.013142   -2.629272
     16          1           0        1.024218   -2.317809   -2.100465
     17          6           0        0.162251    2.961398   -0.163184
     18          1           0        0.187644    3.246791   -1.222538
     19          1           0        0.513993    3.824443    0.414698
     20          6           0       -2.921397   -0.716432   -0.584113
     21          1           0       -2.894151   -0.731897   -1.682500
     22          1           0       -3.843575   -1.217001   -0.270451
     23          6           0       -1.575860   -2.782605   -0.882627
     24          6           0       -2.698175   -3.795946   -0.665940
     25          1           0       -0.615502   -3.229259   -0.601697
     26          1           0       -1.522221   -2.519192   -1.944491
     27          1           0       -2.508807   -4.657101   -1.314476
     28          1           0       -2.731831   -4.164812    0.363829
     29          1           0       -3.681921   -3.396331   -0.933166
     30          6           0       -1.766952   -1.738893    1.395191
     31          6           0       -3.157951   -1.865082    2.018392
     32          1           0       -1.231411   -0.922272    1.888907
     33          1           0       -1.210120   -2.662802    1.579308
     34          1           0       -3.020295   -2.118530    3.074837
     35          1           0       -3.714347   -0.923012    1.979352
     36          1           0       -3.764860   -2.654640    1.564897
     37          6           0        1.503809    1.624519    1.462679
     38          6           0        2.363175    2.713735    2.102147
     39          1           0        2.020264    0.661297    1.541573
     40          1           0        0.552515    1.534862    2.001181
     41          1           0        2.434381    2.491592    3.172031
     42          1           0        3.382954    2.724029    1.706226
     43          1           0        1.931620    3.715976    2.008342
     44          6           0        2.341943    2.025909   -0.893337
     45          6           0        2.856240    3.461529   -1.040693
     46          1           0        2.068313    1.649654   -1.886642
     47          1           0        3.137822    1.393089   -0.493709
     48          1           0        3.760792    3.424196   -1.657132
     49          1           0        2.144409    4.113758   -1.554813
     50          1           0        3.125293    3.924876   -0.088542
     51          6           0        1.811421   -1.338357   -0.186700
     52          6           0        3.146821   -1.083051   -0.566650
     53          6           0        1.593705   -2.289144    0.832676
     54          6           0        4.219205   -1.689405    0.101284
     55          1           0        3.374833   -0.435422   -1.407612
     56          6           0        2.668216   -2.892666    1.506185
     57          1           0        0.590335   -2.560631    1.135615
     58          6           0        3.988316   -2.590182    1.151318
     59          1           0        5.234283   -1.464351   -0.212455
     60          1           0        2.463812   -3.602785    2.302124
     61          1           0        4.819515   -3.061486    1.665772
 ---------------------------------------------------------------------
 Rotational constants (GHZ):           0.2255676           0.1903117           0.1256173
 General basis read from cards:  (5D, 7F)
 ======================================================================================================
                                       Pseudopotential Parameters
 ======================================================================================================
  Center     Atomic      Valence      Angular      Power
  Number     Number     Electrons     Momentum     of R      Exponent        Coefficient   SO-Coeffient
 ======================================================================================================
    1         78           18
                                      G and up 
                                                     1      728.9394056       -0.16192680    0.00000000
                                                     2      320.6567800    -1320.28738520    0.00000000
                                                     2       52.8680174     -298.31781350    0.00000000
                                                     2       12.0280128      -87.58370650    0.00000000
                                                     2        3.5238913       -8.14932740    0.00000000
                                      S - G
                                                     0      409.4437358        2.73342180    0.00000000
                                                     1      274.5419231       59.70243290    0.00000000
                                                     2      127.5658570      891.45895500    0.00000000
                                                     2       32.9036631      368.44676560    0.00000000
                                                     2        5.0593880      238.02630900    0.00000000
                                                     2        4.1506556     -107.05564540    0.00000000
                                      P - G
                                                     0      466.1728892        1.88785680    0.00000000
                                                     1      120.7888259       76.01386290    0.00000000
                                                     2       36.4118791      343.55111160    0.00000000
                                                     2        5.6985408      119.49117860    0.00000000
                                      D - G
                                                     0      249.5650763        2.93436780    0.00000000
                                                     1      126.6678585       59.33065710    0.00000000
                                                     2       63.1430586      452.44451940    0.00000000
                                                     2       17.9059470      210.47694790    0.00000000
                                                     2        4.2239373       58.62541120    0.00000000
                                      F - G
                                                     0      121.8158799        3.95342530    0.00000000
                                                     1       60.8757030       53.85551820    0.00000000
                                                     2       31.4767147      247.43051330    0.00000000
                                                     2        9.8811751      127.81879760    0.00000000
                                                     2        2.7319874       15.37720460    0.00000000
    2          6
                                   No pseudopotential on this center.
    3          6
                                   No pseudopotential on this center.
    4          6
                                   No pseudopotential on this center.
    5          6
                                   No pseudopotential on this center.
    6          6
                                   No pseudopotential on this center.
    7          6
                                   No pseudopotential on this center.
    8          1
                                   No pseudopotential on this center.
    9          1
                                   No pseudopotential on this center.
   10          1
                                   No pseudopotential on this center.
   11          7
                                   No pseudopotential on this center.
   12          7
                                   No pseudopotential on this center.
   13          6
                                   No pseudopotential on this center.
   14          1
                                   No pseudopotential on this center.
   15          1
                                   No pseudopotential on this center.
   16          1
                                   No pseudopotential on this center.
   17          6
                                   No pseudopotential on this center.
   18          1
                                   No pseudopotential on this center.
   19          1
                                   No pseudopotential on this center.
   20          6
                                   No pseudopotential on this center.
   21          1
                                   No pseudopotential on this center.
   22          1
                                   No pseudopotential on this center.
   23          6
                                   No pseudopotential on this center.
   24          6
                                   No pseudopotential on this center.
   25          1
                                   No pseudopotential on this center.
   26          1
                                   No pseudopotential on this center.
   27          1
                                   No pseudopotential on this center.
   28          1
                                   No pseudopotential on this center.
   29          1
                                   No pseudopotential on this center.
   30          6
                                   No pseudopotential on this center.
   31          6
                                   No pseudopotential on this center.
   32          1
                                   No pseudopotential on this center.
   33          1
                                   No pseudopotential on this center.
   34          1
                                   No pseudopotential on this center.
   35          1
                                   No pseudopotential on this center.
   36          1
                                   No pseudopotential on this center.
   37          6
                                   No pseudopotential on this center.
   38          6
                                   No pseudopotential on this center.
   39          1
                                   No pseudopotential on this center.
   40          1
                                   No pseudopotential on this center.
   41          1
                                   No pseudopotential on this center.
   42          1
                                   No pseudopotential on this center.
   43          1
                                   No pseudopotential on this center.
   44          6
                                   No pseudopotential on this center.
   45          6
                                   No pseudopotential on this center.
   46          1
                                   No pseudopotential on this center.
   47          1
                                   No pseudopotential on this center.
   48          1
                                   No pseudopotential on this center.
   49          1
                                   No pseudopotential on this center.
   50          1
                                   No pseudopotential on this center.
   51          6
                                   No pseudopotential on this center.
   52          6
                                   No pseudopotential on this center.
   53          6
                                   No pseudopotential on this center.
   54          6
                                   No pseudopotential on this center.
   55          1
                                   No pseudopotential on this center.
   56          6
                                   No pseudopotential on this center.
   57          1
                                   No pseudopotential on this center.
   58          6
                                   No pseudopotential on this center.
   59          1
                                   No pseudopotential on this center.
   60          1
                                   No pseudopotential on this center.
   61          1
                                   No pseudopotential on this center.
 ======================================================================================================
 There are   883 symmetry adapted cartesian basis functions of A   symmetry.
 There are   827 symmetry adapted basis functions of A   symmetry.
   827 basis functions,  1278 primitive gaussians,   883 cartesian basis functions
   102 alpha electrons      102 beta electrons
       nuclear repulsion energy      2840.3004996529 Hartrees.
 NAtoms=   61 NActive=   61 NUniq=   61 SFac= 1.00D+00 NAtFMM=   60 NAOKFM=T Big=T
 Integral buffers will be    131072 words long.
 Raffenetti 2 integral format.
 Two-electron integral symmetry is turned on.
 Nuclear repulsion after empirical dispersion term =     2840.2831683050 Hartrees.
 Force inversion solution in PCM.
 ------------------------------------------------------------------------------
 Polarizable Continuum Model (PCM)
 =================================
 Model                : PCM.
 Atomic radii         : UFF (Universal Force Field).
 Polarization charges : Total charges.
 Charge compensation  : None.
 Solution method      : Matrix inversion.
 Cavity type          : Scaled VdW (van der Waals Surface) (Alpha=1.100).
 Cavity algorithm     : GePol (No added spheres)
                        Default sphere list used, NSphG=   61.
                        Lebedev-Laikov grids with approx.  5.0 points / Ang**2.
                        Smoothing algorithm: York/Karplus (Gamma=1.0000).
                        Polarization charges: spherical gaussians, with
                                              point-specific exponents (IZeta= 3).
                        Self-potential: point-specific (ISelfS= 7).
                        Self-field    : sphere-specific E.n sum rule (ISelfD= 2).
 1st derivatives      : Analytical E(r).r(x)/FMM algorithm (CHGder, D1EAlg=3).
                        Cavity 1st derivative terms included.
 2nd derivatives      : Analytical E(r).r(xy)/FMM algorithm (CHGder, D2EAlg=3).
                        Cavity 2nd derivative terms included.
 Solvent              : TetraHydroFuran, Eps=   7.425700 Eps(inf)=   1.974025
 ------------------------------------------------------------------------------
 One-electron integrals computed using PRISM.
 PrsmSu:  requested number of processors reduced to:   7 ShMem   1 Linda.
   1 Symmetry operations used in ECPInt.
 ECPInt:  NShTT=   46360 NPrTT=  151530 LenC2=   39661 LenP2D=   85355.
 LDataN:  DoStor=T MaxTD1= 7 Len=  274
 Number of processors reduced to   7 by ecpmxn.
 NBasis=   827 RedAO= T EigKep=  5.12D-05  NBF=   827
 NBsUse=   827 1.00D-06 EigRej= -1.00D+00 NBFU=   827
 Defaulting to unpruned grid for atomic number  78.
 ExpMin= 2.90D-02 ExpMax= 6.29D+03 ExpMxC= 9.49D+02 IAcc=3 IRadAn=         5 AccDes= 0.00D+00
 Harris functional with IExCor= 1009 and IRadAn=       5 diagonalized for initial guess.
 HarFok:  IExCor= 1009 AccDes= 0.00D+00 IRadAn=         5 IDoV= 1 UseB2=F ITyADJ=14
 ICtDFT=  3500011 ScaDFX=  1.000000  1.000000  1.000000  1.000000
 Defaulting to unpruned grid for atomic number  78.
 FoFCou: FMM=F IPFlag=           0 FMFlag=      100000 FMFlg1=        2001
         NFxFlg=           0 DoJE=T BraDBF=F KetDBF=T FulRan=T
         wScrn=  0.000000 ICntrl=       500 IOpCl=  0 I1Cent=   200000004 NGrid=           0
         NMat0=    1 NMatS0=      1 NMatT0=    0 NMatD0=    1 NMtDS0=    0 NMtDT0=    0
 Petite list used in FoFCou.
 Requested convergence on RMS density matrix=1.00D-08 within 128 cycles.
 Requested convergence on MAX density matrix=1.00D-06.
 Requested convergence on             energy=1.00D-06.
 No special actions if energy rises.
 Defaulting to unpruned grid for atomic number  78.
 Defaulting to unpruned grid for atomic number  78.
 Defaulting to unpruned grid for atomic number  78.
 Defaulting to unpruned grid for atomic number  78.
 Defaulting to unpruned grid for atomic number  78.
 Defaulting to unpruned grid for atomic number  78.
 Defaulting to unpruned grid for atomic number  78.
 Defaulting to unpruned grid for atomic number  78.
 Defaulting to unpruned grid for atomic number  78.
 Defaulting to unpruned grid for atomic number  78.
 Defaulting to unpruned grid for atomic number  78.
 Defaulting to unpruned grid for atomic number  78.
 CoulSu:  requested number of processors reduced to:   7 ShMem   1 Linda.
 Inv3:  Mode=1 IEnd=    38384787.
 Iteration    1 A*A^-1 deviation from unit magnitude is 3.33D-15 for   1082.
 Iteration    1 A*A^-1 deviation from orthogonality  is 2.20D-15 for   2106   1987.
 Iteration    1 A^-1*A deviation from unit magnitude is 3.33D-15 for   1082.
 Iteration    1 A^-1*A deviation from orthogonality  is 9.58D-15 for   2450   2431.
 CoulSu:  requested number of processors reduced to:   7 ShMem   1 Linda.
 CoulSu:  requested number of processors reduced to:   7 ShMem   1 Linda.
 Error on total polarization charges =  0.02174
 SCF Done:  E(RM06) =  -1125.44230420     A.U. after   16 cycles
            NFock= 16  Conv=0.32D-08     -V/T= 2.0833
 DoSCS=F DFT=T ScalE2(SS,OS)=  1.000000  1.000000
 Range of M.O.s used for correlation:     1   827
 NBasis=   827 NAE=   102 NBE=   102 NFC=     0 NFV=     0
 NROrb=    827 NOA=   102 NOB=   102 NVA=   725 NVB=   725

 **** Warning!!: The largest alpha MO coefficient is  0.16630499D+02

 PrsmSu:  requested number of processors reduced to:   5 ShMem   1 Linda.
 PrsmSu:  requested number of processors reduced to:   1 ShMem   1 Linda.
   1 Symmetry operations used in ECPInt.
 ECPInt:  NShTT=   46360 NPrTT=  151530 LenC2=   39661 LenP2D=   85355.
 LDataN:  DoStor=T MaxTD1= 8 Len=  415
 Number of processors reduced to   1 by ecpmxn.
 PrsmSu:  requested number of processors reduced to:   1 ShMem   1 Linda.
 ECPInt:  NShTT=   46360 NPrTT=  151530 LenC2=   39661 LenP2D=   85355.
 LDataN:  DoStor=T MaxTD1= 8 Len=  415
 Number of processors reduced to   1 by ecpmxn.
 Symmetrizing basis deriv contribution to polar:
 IMax=3 JMax=2 DiffMx= 0.00D+00
 G2DrvN: will do     1 centers at a time, making   62 passes.
 Estimated number of processors is:    9
 Calling FoFCou, ICntrl=  3107 FMM=T I1Cent=   0 AccDes= 0.00D+00.
 CoulSu:  requested number of processors reduced to:  11 ShMem   1 Linda.
 Defaulting to unpruned grid for atomic number  78.
 Defaulting to unpruned grid for atomic number  78.
 Defaulting to unpruned grid for atomic number  78.
 Defaulting to unpruned grid for atomic number  78.
 Defaulting to unpruned grid for atomic number  78.
 Defaulting to unpruned grid for atomic number  78.
 Defaulting to unpruned grid for atomic number  78.
 Defaulting to unpruned grid for atomic number  78.
 Defaulting to unpruned grid for atomic number  78.
 Defaulting to unpruned grid for atomic number  78.
 Defaulting to unpruned grid for atomic number  78.
 Defaulting to unpruned grid for atomic number  78.
 Calling FoFCou, ICntrl=  3107 FMM=T I1Cent=   0 AccDes= 0.00D+00.
 CoulSu:  requested number of processors reduced to:   9 ShMem   1 Linda.
 Calling FoFCou, ICntrl=  3107 FMM=T I1Cent=   0 AccDes= 0.00D+00.
 CoulSu:  requested number of processors reduced to:   9 ShMem   1 Linda.
 Calling FoFCou, ICntrl=  3107 FMM=T I1Cent=   0 AccDes= 0.00D+00.
 CoulSu:  requested number of processors reduced to:   9 ShMem   1 Linda.
 Calling FoFCou, ICntrl=  3107 FMM=T I1Cent=   0 AccDes= 0.00D+00.
 CoulSu:  requested number of processors reduced to:   9 ShMem   1 Linda.
 Calling FoFCou, ICntrl=  3107 FMM=T I1Cent=   0 AccDes= 0.00D+00.
 CoulSu:  requested number of processors reduced to:   9 ShMem   1 Linda.
 Calling FoFCou, ICntrl=  3107 FMM=T I1Cent=   0 AccDes= 0.00D+00.
 CoulSu:  requested number of processors reduced to:   9 ShMem   1 Linda.
 Calling FoFCou, ICntrl=  3107 FMM=T I1Cent=   0 AccDes= 0.00D+00.
 CoulSu:  requested number of processors reduced to:   9 ShMem   1 Linda.
 Calling FoFCou, ICntrl=  3107 FMM=T I1Cent=   0 AccDes= 0.00D+00.
 CoulSu:  requested number of processors reduced to:   9 ShMem   1 Linda.
 Calling FoFCou, ICntrl=  3107 FMM=T I1Cent=   0 AccDes= 0.00D+00.
 CoulSu:  requested number of processors reduced to:   9 ShMem   1 Linda.
 Calling FoFCou, ICntrl=  3107 FMM=T I1Cent=   0 AccDes= 0.00D+00.
 CoulSu:  requested number of processors reduced to:   9 ShMem   1 Linda.
 Calling FoFCou, ICntrl=  3107 FMM=T I1Cent=   0 AccDes= 0.00D+00.
 CoulSu:  requested number of processors reduced to:   9 ShMem   1 Linda.
 Calling FoFCou, ICntrl=  3107 FMM=T I1Cent=   0 AccDes= 0.00D+00.
 CoulSu:  requested number of processors reduced to:   9 ShMem   1 Linda.
 Calling FoFCou, ICntrl=  3107 FMM=T I1Cent=   0 AccDes= 0.00D+00.
 CoulSu:  requested number of processors reduced to:   9 ShMem   1 Linda.
 Calling FoFCou, ICntrl=  3107 FMM=T I1Cent=   0 AccDes= 0.00D+00.
 CoulSu:  requested number of processors reduced to:   9 ShMem   1 Linda.
 Calling FoFCou, ICntrl=  3107 FMM=T I1Cent=   0 AccDes= 0.00D+00.
 CoulSu:  requested number of processors reduced to:   9 ShMem   1 Linda.
 Calling FoFCou, ICntrl=  3107 FMM=T I1Cent=   0 AccDes= 0.00D+00.
 CoulSu:  requested number of processors reduced to:   9 ShMem   1 Linda.
 Calling FoFCou, ICntrl=  3107 FMM=T I1Cent=   0 AccDes= 0.00D+00.
 CoulSu:  requested number of processors reduced to:   9 ShMem   1 Linda.
 Calling FoFCou, ICntrl=  3107 FMM=T I1Cent=   0 AccDes= 0.00D+00.
 CoulSu:  requested number of processors reduced to:   9 ShMem   1 Linda.
 Calling FoFCou, ICntrl=  3107 FMM=T I1Cent=   0 AccDes= 0.00D+00.
 CoulSu:  requested number of processors reduced to:   9 ShMem   1 Linda.
 Calling FoFCou, ICntrl=  3107 FMM=T I1Cent=   0 AccDes= 0.00D+00.
 CoulSu:  requested number of processors reduced to:   9 ShMem   1 Linda.
 Calling FoFCou, ICntrl=  3107 FMM=T I1Cent=   0 AccDes= 0.00D+00.
 CoulSu:  requested number of processors reduced to:   9 ShMem   1 Linda.
 Calling FoFCou, ICntrl=  3107 FMM=T I1Cent=   0 AccDes= 0.00D+00.
 CoulSu:  requested number of processors reduced to:   9 ShMem   1 Linda.
 Calling FoFCou, ICntrl=  3107 FMM=T I1Cent=   0 AccDes= 0.00D+00.
 CoulSu:  requested number of processors reduced to:   9 ShMem   1 Linda.
 Calling FoFCou, ICntrl=  3107 FMM=T I1Cent=   0 AccDes= 0.00D+00.
 CoulSu:  requested number of processors reduced to:   9 ShMem   1 Linda.
 Calling FoFCou, ICntrl=  3107 FMM=T I1Cent=   0 AccDes= 0.00D+00.
 CoulSu:  requested number of processors reduced to:   9 ShMem   1 Linda.
 Calling FoFCou, ICntrl=  3107 FMM=T I1Cent=   0 AccDes= 0.00D+00.
 CoulSu:  requested number of processors reduced to:   9 ShMem   1 Linda.
 Calling FoFCou, ICntrl=  3107 FMM=T I1Cent=   0 AccDes= 0.00D+00.
 CoulSu:  requested number of processors reduced to:   9 ShMem   1 Linda.
 Calling FoFCou, ICntrl=  3107 FMM=T I1Cent=   0 AccDes= 0.00D+00.
 CoulSu:  requested number of processors reduced to:   9 ShMem   1 Linda.
 Calling FoFCou, ICntrl=  3107 FMM=T I1Cent=   0 AccDes= 0.00D+00.
 CoulSu:  requested number of processors reduced to:   9 ShMem   1 Linda.
 Calling FoFCou, ICntrl=  3107 FMM=T I1Cent=   0 AccDes= 0.00D+00.
 CoulSu:  requested number of processors reduced to:   9 ShMem   1 Linda.
 Calling FoFCou, ICntrl=  3107 FMM=T I1Cent=   0 AccDes= 0.00D+00.
 CoulSu:  requested number of processors reduced to:   9 ShMem   1 Linda.
 Calling FoFCou, ICntrl=  3107 FMM=T I1Cent=   0 AccDes= 0.00D+00.
 CoulSu:  requested number of processors reduced to:   9 ShMem   1 Linda.
 Calling FoFCou, ICntrl=  3107 FMM=T I1Cent=   0 AccDes= 0.00D+00.
 CoulSu:  requested number of processors reduced to:   9 ShMem   1 Linda.
 Calling FoFCou, ICntrl=  3107 FMM=T I1Cent=   0 AccDes= 0.00D+00.
 CoulSu:  requested number of processors reduced to:   9 ShMem   1 Linda.
 Calling FoFCou, ICntrl=  3107 FMM=T I1Cent=   0 AccDes= 0.00D+00.
 CoulSu:  requested number of processors reduced to:   9 ShMem   1 Linda.
 Calling FoFCou, ICntrl=  3107 FMM=T I1Cent=   0 AccDes= 0.00D+00.
 CoulSu:  requested number of processors reduced to:   9 ShMem   1 Linda.
 Calling FoFCou, ICntrl=  3107 FMM=T I1Cent=   0 AccDes= 0.00D+00.
 CoulSu:  requested number of processors reduced to:   9 ShMem   1 Linda.
 Calling FoFCou, ICntrl=  3107 FMM=T I1Cent=   0 AccDes= 0.00D+00.
 CoulSu:  requested number of processors reduced to:   9 ShMem   1 Linda.
 Calling FoFCou, ICntrl=  3107 FMM=T I1Cent=   0 AccDes= 0.00D+00.
 CoulSu:  requested number of processors reduced to:   9 ShMem   1 Linda.
 Calling FoFCou, ICntrl=  3107 FMM=T I1Cent=   0 AccDes= 0.00D+00.
 CoulSu:  requested number of processors reduced to:   9 ShMem   1 Linda.
 Calling FoFCou, ICntrl=  3107 FMM=T I1Cent=   0 AccDes= 0.00D+00.
 CoulSu:  requested number of processors reduced to:   9 ShMem   1 Linda.
 Calling FoFCou, ICntrl=  3107 FMM=T I1Cent=   0 AccDes= 0.00D+00.
 CoulSu:  requested number of processors reduced to:   9 ShMem   1 Linda.
 Calling FoFCou, ICntrl=  3107 FMM=T I1Cent=   0 AccDes= 0.00D+00.
 CoulSu:  requested number of processors reduced to:   9 ShMem   1 Linda.
 Calling FoFCou, ICntrl=  3107 FMM=T I1Cent=   0 AccDes= 0.00D+00.
 CoulSu:  requested number of processors reduced to:   9 ShMem   1 Linda.
 Calling FoFCou, ICntrl=  3107 FMM=T I1Cent=   0 AccDes= 0.00D+00.
 CoulSu:  requested number of processors reduced to:   9 ShMem   1 Linda.
 Calling FoFCou, ICntrl=  3107 FMM=T I1Cent=   0 AccDes= 0.00D+00.
 CoulSu:  requested number of processors reduced to:   9 ShMem   1 Linda.
 Calling FoFCou, ICntrl=  3107 FMM=T I1Cent=   0 AccDes= 0.00D+00.
 CoulSu:  requested number of processors reduced to:   9 ShMem   1 Linda.
 Calling FoFCou, ICntrl=  3107 FMM=T I1Cent=   0 AccDes= 0.00D+00.
 CoulSu:  requested number of processors reduced to:   9 ShMem   1 Linda.
 Calling FoFCou, ICntrl=  3107 FMM=T I1Cent=   0 AccDes= 0.00D+00.
 CoulSu:  requested number of processors reduced to:   9 ShMem   1 Linda.
 Calling FoFCou, ICntrl=  3107 FMM=T I1Cent=   0 AccDes= 0.00D+00.
 CoulSu:  requested number of processors reduced to:   9 ShMem   1 Linda.
 Calling FoFCou, ICntrl=  3107 FMM=T I1Cent=   0 AccDes= 0.00D+00.
 CoulSu:  requested number of processors reduced to:   9 ShMem   1 Linda.
 Calling FoFCou, ICntrl=  3107 FMM=T I1Cent=   0 AccDes= 0.00D+00.
 CoulSu:  requested number of processors reduced to:   9 ShMem   1 Linda.
 Calling FoFCou, ICntrl=  3107 FMM=T I1Cent=   0 AccDes= 0.00D+00.
 CoulSu:  requested number of processors reduced to:   9 ShMem   1 Linda.
 Calling FoFCou, ICntrl=  3107 FMM=T I1Cent=   0 AccDes= 0.00D+00.
 CoulSu:  requested number of processors reduced to:   9 ShMem   1 Linda.
 Calling FoFCou, ICntrl=  3107 FMM=T I1Cent=   0 AccDes= 0.00D+00.
 CoulSu:  requested number of processors reduced to:   9 ShMem   1 Linda.
 Calling FoFCou, ICntrl=  3107 FMM=T I1Cent=   0 AccDes= 0.00D+00.
 CoulSu:  requested number of processors reduced to:   9 ShMem   1 Linda.
 Calling FoFCou, ICntrl=  3107 FMM=T I1Cent=   0 AccDes= 0.00D+00.
 CoulSu:  requested number of processors reduced to:   9 ShMem   1 Linda.
 Calling FoFCou, ICntrl=  3107 FMM=T I1Cent=   0 AccDes= 0.00D+00.
 CoulSu:  requested number of processors reduced to:   9 ShMem   1 Linda.
 Calling FoFCou, ICntrl=  3107 FMM=T I1Cent=   0 AccDes= 0.00D+00.
 CoulSu:  requested number of processors reduced to:   9 ShMem   1 Linda.
 Calling FoFCou, ICntrl=  3107 FMM=T I1Cent=   0 AccDes= 0.00D+00.
 CoulSu:  requested number of processors reduced to:   9 ShMem   1 Linda.
 Calling FoFCou, ICntrl=  3107 FMM=T I1Cent=   0 AccDes= 0.00D+00.
 CoulSu:  requested number of processors reduced to:   9 ShMem   1 Linda.
 NEqPCM:  Using equilibrium solvation (IEInf=0, Eps=   7.4257, EpsInf=   1.9740)
 G2PCM: DoFxE=T DoFxN=T DoGrad=T DoDP/DQ/DG/TGxP=FFFF NFrqRd=   0 IEInf=0 SqF1=F DoCFld=F IF1Alg=4.
 CoulSu:  requested number of processors reduced to:   8 ShMem   1 Linda.
 CoulSu:  requested number of processors reduced to:   8 ShMem   1 Linda.
 CoulSu:  requested number of processors reduced to:   8 ShMem   1 Linda.
 CoulSu:  requested number of processors reduced to:   8 ShMem   1 Linda.
 CoulSu:  requested number of processors reduced to:   8 ShMem   1 Linda.
 CoulSu:  requested number of processors reduced to:   8 ShMem   1 Linda.
 CoulSu:  requested number of processors reduced to:   8 ShMem   1 Linda.
 CoulSu:  requested number of processors reduced to:   8 ShMem   1 Linda.
 CoulSu:  requested number of processors reduced to:   8 ShMem   1 Linda.
 CoulSu:  requested number of processors reduced to:   8 ShMem   1 Linda.
 CoulSu:  requested number of processors reduced to:   8 ShMem   1 Linda.
 CoulSu:  requested number of processors reduced to:   8 ShMem   1 Linda.
 CoulSu:  requested number of processors reduced to:   8 ShMem   1 Linda.
 CoulSu:  requested number of processors reduced to:   8 ShMem   1 Linda.
 CoulSu:  requested number of processors reduced to:   8 ShMem   1 Linda.
 CoulSu:  requested number of processors reduced to:   8 ShMem   1 Linda.
 CoulSu:  requested number of processors reduced to:   8 ShMem   1 Linda.
 CoulSu:  requested number of processors reduced to:   8 ShMem   1 Linda.
 CoulSu:  requested number of processors reduced to:  11 ShMem   1 Linda.
 CoulSu:  requested number of processors reduced to:  11 ShMem   1 Linda.
 CoulSu:  requested number of processors reduced to:  11 ShMem   1 Linda.
 CoulSu:  requested number of processors reduced to:  11 ShMem   1 Linda.
 CoulSu:  requested number of processors reduced to:  11 ShMem   1 Linda.
 CoulSu:  requested number of processors reduced to:  11 ShMem   1 Linda.
 CoulSu:  requested number of processors reduced to:  11 ShMem   1 Linda.
 CoulSu:  requested number of processors reduced to:  11 ShMem   1 Linda.
 CoulSu:  requested number of processors reduced to:  11 ShMem   1 Linda.
 CoulSu:  requested number of processors reduced to:  11 ShMem   1 Linda.
 CoulSu:  requested number of processors reduced to:  11 ShMem   1 Linda.
 CoulSu:  requested number of processors reduced to:  11 ShMem   1 Linda.
 CoulSu:  requested number of processors reduced to:  11 ShMem   1 Linda.
 CoulSu:  requested number of processors reduced to:  11 ShMem   1 Linda.
 CoulSu:  requested number of processors reduced to:  11 ShMem   1 Linda.
 CoulSu:  requested number of processors reduced to:  11 ShMem   1 Linda.
 CoulSu:  requested number of processors reduced to:  11 ShMem   1 Linda.
 CoulSu:  requested number of processors reduced to:  11 ShMem   1 Linda.
 CoulSu:  requested number of processors reduced to:  11 ShMem   1 Linda.
 CoulSu:  requested number of processors reduced to:  11 ShMem   1 Linda.
 CoulSu:  requested number of processors reduced to:  11 ShMem   1 Linda.
 CoulSu:  requested number of processors reduced to:  11 ShMem   1 Linda.
 CoulSu:  requested number of processors reduced to:  11 ShMem   1 Linda.
 CoulSu:  requested number of processors reduced to:  11 ShMem   1 Linda.
 CoulSu:  requested number of processors reduced to:  11 ShMem   1 Linda.
 CoulSu:  requested number of processors reduced to:  11 ShMem   1 Linda.
 CoulSu:  requested number of processors reduced to:  11 ShMem   1 Linda.
 CoulSu:  requested number of processors reduced to:  11 ShMem   1 Linda.
 CoulSu:  requested number of processors reduced to:  11 ShMem   1 Linda.
 CoulSu:  requested number of processors reduced to:  11 ShMem   1 Linda.
 CoulSu:  requested number of processors reduced to:  11 ShMem   1 Linda.
 CoulSu:  requested number of processors reduced to:  11 ShMem   1 Linda.
 CoulSu:  requested number of processors reduced to:  11 ShMem   1 Linda.
 CoulSu:  requested number of processors reduced to:  11 ShMem   1 Linda.
 CoulSu:  requested number of processors reduced to:  11 ShMem   1 Linda.
 CoulSu:  requested number of processors reduced to:  11 ShMem   1 Linda.
 CoulSu:  requested number of processors reduced to:  11 ShMem   1 Linda.
 CoulSu:  requested number of processors reduced to:  11 ShMem   1 Linda.
 CoulSu:  requested number of processors reduced to:  11 ShMem   1 Linda.
 CoulSu:  requested number of processors reduced to:  11 ShMem   1 Linda.
 CoulSu:  requested number of processors reduced to:  11 ShMem   1 Linda.
 CoulSu:  requested number of processors reduced to:  11 ShMem   1 Linda.
 CoulSu:  requested number of processors reduced to:  11 ShMem   1 Linda.
 CoulSu:  requested number of processors reduced to:  11 ShMem   1 Linda.
 CoulSu:  requested number of processors reduced to:  11 ShMem   1 Linda.
 CoulSu:  requested number of processors reduced to:  11 ShMem   1 Linda.
 CoulSu:  requested number of processors reduced to:  11 ShMem   1 Linda.
 CoulSu:  requested number of processors reduced to:  11 ShMem   1 Linda.
 CoulSu:  requested number of processors reduced to:  11 ShMem   1 Linda.
 CoulSu:  requested number of processors reduced to:  11 ShMem   1 Linda.
 CoulSu:  requested number of processors reduced to:  11 ShMem   1 Linda.
 CoulSu:  requested number of processors reduced to:  11 ShMem   1 Linda.
 CoulSu:  requested number of processors reduced to:  11 ShMem   1 Linda.
 CoulSu:  requested number of processors reduced to:  11 ShMem   1 Linda.
 CoulSu:  requested number of processors reduced to:  11 ShMem   1 Linda.
 CoulSu:  requested number of processors reduced to:  11 ShMem   1 Linda.
 CoulSu:  requested number of processors reduced to:  11 ShMem   1 Linda.
 CoulSu:  requested number of processors reduced to:  11 ShMem   1 Linda.
 CoulSu:  requested number of processors reduced to:  11 ShMem   1 Linda.
 CoulSu:  requested number of processors reduced to:  11 ShMem   1 Linda.
 CoulSu:  requested number of processors reduced to:  11 ShMem   1 Linda.
 CoulSu:  requested number of processors reduced to:  11 ShMem   1 Linda.
 CoulSu:  requested number of processors reduced to:  11 ShMem   1 Linda.
 CoulSu:  requested number of processors reduced to:  11 ShMem   1 Linda.
 CoulSu:  requested number of processors reduced to:  11 ShMem   1 Linda.
 CoulSu:  requested number of processors reduced to:  11 ShMem   1 Linda.
 CoulSu:  requested number of processors reduced to:  11 ShMem   1 Linda.
 CoulSu:  requested number of processors reduced to:  11 ShMem   1 Linda.
 CoulSu:  requested number of processors reduced to:  11 ShMem   1 Linda.
 CoulSu:  requested number of processors reduced to:  11 ShMem   1 Linda.
 CoulSu:  requested number of processors reduced to:  11 ShMem   1 Linda.
 CoulSu:  requested number of processors reduced to:  11 ShMem   1 Linda.
 CoulSu:  requested number of processors reduced to:  11 ShMem   1 Linda.
 CoulSu:  requested number of processors reduced to:  11 ShMem   1 Linda.
 CoulSu:  requested number of processors reduced to:  11 ShMem   1 Linda.
 CoulSu:  requested number of processors reduced to:  11 ShMem   1 Linda.
 CoulSu:  requested number of processors reduced to:  11 ShMem   1 Linda.
 CoulSu:  requested number of processors reduced to:  11 ShMem   1 Linda.
 CoulSu:  requested number of processors reduced to:  11 ShMem   1 Linda.
 CoulSu:  requested number of processors reduced to:  11 ShMem   1 Linda.
 CoulSu:  requested number of processors reduced to:  11 ShMem   1 Linda.
 CoulSu:  requested number of processors reduced to:  11 ShMem   1 Linda.
 CoulSu:  requested number of processors reduced to:  11 ShMem   1 Linda.
 CoulSu:  requested number of processors reduced to:  11 ShMem   1 Linda.
 CoulSu:  requested number of processors reduced to:  11 ShMem   1 Linda.
 CoulSu:  requested number of processors reduced to:  11 ShMem   1 Linda.
 CoulSu:  requested number of processors reduced to:  11 ShMem   1 Linda.
 CoulSu:  requested number of processors reduced to:  11 ShMem   1 Linda.
 CoulSu:  requested number of processors reduced to:  11 ShMem   1 Linda.
 CoulSu:  requested number of processors reduced to:  11 ShMem   1 Linda.
 CoulSu:  requested number of processors reduced to:  11 ShMem   1 Linda.
 CoulSu:  requested number of processors reduced to:  11 ShMem   1 Linda.
 CoulSu:  requested number of processors reduced to:  11 ShMem   1 Linda.
 CoulSu:  requested number of processors reduced to:  11 ShMem   1 Linda.
 CoulSu:  requested number of processors reduced to:  11 ShMem   1 Linda.
 CoulSu:  requested number of processors reduced to:  11 ShMem   1 Linda.
 CoulSu:  requested number of processors reduced to:  11 ShMem   1 Linda.
 CoulSu:  requested number of processors reduced to:  11 ShMem   1 Linda.
 CoulSu:  requested number of processors reduced to:  11 ShMem   1 Linda.
 CoulSu:  requested number of processors reduced to:  11 ShMem   1 Linda.
 CoulSu:  requested number of processors reduced to:  11 ShMem   1 Linda.
 CoulSu:  requested number of processors reduced to:  11 ShMem   1 Linda.
 CoulSu:  requested number of processors reduced to:  11 ShMem   1 Linda.
 CoulSu:  requested number of processors reduced to:  11 ShMem   1 Linda.
 CoulSu:  requested number of processors reduced to:  11 ShMem   1 Linda.
 CoulSu:  requested number of processors reduced to:  11 ShMem   1 Linda.
 CoulSu:  requested number of processors reduced to:  11 ShMem   1 Linda.
 CoulSu:  requested number of processors reduced to:  11 ShMem   1 Linda.
 CoulSu:  requested number of processors reduced to:  11 ShMem   1 Linda.
 CoulSu:  requested number of processors reduced to:  11 ShMem   1 Linda.
 CoulSu:  requested number of processors reduced to:  11 ShMem   1 Linda.
 CoulSu:  requested number of processors reduced to:  11 ShMem   1 Linda.
[...]
 2158,-0.00002754,0.00000944,0.00001705,-0.00001344,0.00000271,0.000006
 50,0.00000127,-0.00000374,0.00001057,0.00000448,-0.00116133,0.00189347
 ,-0.00242737,-0.01811783,-0.00621418,0.00787490,0.00010827,0.00045236,
 -0.00064044,-0.29652153,-0.05631133,0.07182006,0.00101951,-0.00021199,
 0.00020474,0.00186373,-0.00041290,0.00071725,-0.00004617,-0.00007133,0
 .00002599,-0.00107150,0.00030669,-0.00041174,0.31432345,0.00014239,-0.
 00002485,0.00020248,-0.00005279,0.00003655,-0.00013377,0.00001775,-0.0
 0000598,-0.00000288,0.00000599,-0.00001102,0.00000057,0.00000199,-0.00
 000376,0.00001649,-0.00000241,-0.00000516,0.00001138,0.00000831,-0.000
 00598,-0.00000338,0.00000100,-0.00000284,-0.00000064,0.00000153,0.0000
 0004,-0.00000041,0.00000027,-0.00000009,-0.00000245,-0.00000937,-0.000
 01680,-0.00000138,-0.00003124,0.00001564,-0.00000332,0.00037306,0.0000
 1016,-0.00005225,-0.00005115,-0.00008500,-0.00005484,-0.00007715,0.000
 09138,0.00013775,-0.00001564,0.00001530,-0.00004510,0.00000184,-0.0000
 0134,-0.00000806,-0.00000369,0.00000192,0.00000066,-0.00000043,-0.0000
 0435,0.00000109,-0.00000870,-0.00000390,-0.00001075,-0.00000302,0.0000
 0169,0.00000024,0.00000058,0.00000097,0.00000061,-0.00000696,0.0000158
 3,-0.00000583,0.00000159,-0.00000363,-0.00000035,0.00002308,-0.0000029
 0,0.00002029,-0.00000732,-0.00000015,-0.00000431,-0.00000065,-0.000000
 34,-0.00000030,0.00000189,0.00000133,-0.00000116,0.00000171,0.00000020
 ,-0.00000092,0.00001485,-0.00001724,-0.00000285,0.00000115,0.00001119,
 -0.00000179,0.00000438,0.00000624,0.00000466,0.00000251,0.00000687,-0.
 00000342,0.00000192,0.00000061,-0.00000144,-0.00000223,-0.00000029,0.0
 0000193,0.00000063,-0.00000004,-0.00000119,0.00001352,-0.00001720,0.00
 001997,0.00000978,0.00000320,-0.00000980,0.00000462,0.00001575,-0.0000
 0090,-0.00000879,-0.00000350,-0.00000006,-0.00000033,-0.00000324,-0.00
 000290,-0.00000435,-0.00001311,0.00000116,-0.00000806,0.00000271,0.000
 00064,-0.00000867,-0.00013429,-0.00002145,0.00002328,-0.00000843,-0.00
 000144,-0.00002967,0.00001760,-0.00001624,0.00005463,-0.00003896,0.000
 03751,-0.00000156,-0.00000419,0.00000947,-0.00000834,-0.00000809,-0.00
 000020,0.00000344,-0.00000764,-0.00000170,0.00115735,0.00368163,0.0044
 2154,0.01346914,0.00565322,-0.00249337,0.00034883,-0.00047257,-0.00030
 776,-0.05637699,-0.05712557,0.02600686,-0.00041861,-0.00236888,-0.0024
 6253,0.00004986,0.00202594,0.00601116,-0.00003901,-0.00056673,-0.00060
 340,-0.01867366,-0.00011048,0.00477670,0.06059471,0.05138658,-0.000538
 62,-0.00026334,-0.00019722,0.00003640,0.00020084,0.00016037,-0.0000880
 1,-0.00000236,0.00001531,0.00001426,0.00002271,0.00000262,0.00001705,0
 .00002570,-0.00000926,-0.00001060,0.00000097,-0.00001158,-0.00000373,-
 0.00000177,0.00000256,-0.00000686,0.00000815,0.00000207,-0.00000578,0.
 00000199,0.00000020,-0.00000149,0.00000074,0.00000197,0.00000612,-0.00
 000627,0.00000565,0.00003420,-0.00004186,-0.00002416,-0.00005196,0.000
 15610,0.00017006,-0.00004096,-0.00004942,-0.00007605,0.00000249,0.0000
 0341,-0.00004243,0.00001306,-0.00002828,-0.00002351,0.00000701,-0.0000
 0256,0.00000186,-0.00000005,-0.00000015,-0.00000072,0.00000235,0.00000
 247,0.00000176,-0.00000868,-0.00000643,0.00000596,0.00000167,-0.000003
 18,0.00000210,-0.00000643,-0.00000247,-0.00000151,-0.00001530,0.000025
 82,0.00000618,0.00000554,-0.00000667,-0.00000193,0.00001811,-0.0000045
 2,0.00000313,0.00000572,0.00000037,0.00000243,-0.00000257,-0.00000259,
 -0.00000076,-0.00000228,-0.00000068,0.00000129,0.00000186,0.00000091,0
 .00000074,0.00000687,0.00001915,-0.00003246,0.00000630,-0.00000788,0.0
 0001155,0.00000029,0.00001332,-0.00000053,-0.00000005,-0.00002104,-0.0
 0000216,-0.00000311,0.00000053,0.00000196,0.00000541,0.00000012,-0.000
 00231,0.00000081,0.00000066,-0.00000107,-0.00000063,0.00001734,-0.0000
 0476,0.00001286,-0.00000427,-0.00000242,0.00001367,0.00002011,0.000005
 29,-0.00000636,-0.00000719,-0.00000849,0.00000573,-0.00000041,-0.00000
 348,-0.00000083,-0.00001127,0.00000541,-0.00000943,-0.00000014,-0.0000
 0119,-0.00005807,-0.00007369,-0.00001242,0.00004275,-0.00001570,0.0000
 0011,-0.00003175,0.00001455,-0.00001535,0.00007201,-0.00002285,0.00005
 824,0.00000537,0.00000686,0.00000199,-0.00000464,-0.00001482,0.0000011
 1,0.00000183,-0.00000782,-0.00000249,-0.00277254,0.00376370,0.00240845
 ,-0.01502288,-0.00289826,0.00742011,-0.00062603,0.00049510,-0.00138282
 ,0.07188332,0.02707228,-0.07143402,0.00033682,-0.00261873,-0.00093695,
 0.00048479,0.00606265,-0.00066665,0.00005323,-0.00052894,-0.00036441,0
 .02293876,0.00398566,-0.00156814,-0.07746345,-0.03309581,0.06730478,-0
 .00052392,0.00056255,-0.00041510,0.00008981,-0.00004035,0.00030320,-0.
 00006518,0.00000359,0.00001232,0.00001308,0.00003594,-0.00000097,0.000
 00105,-0.00000099,-0.00002890,-0.00000027,0.00002509,-0.00002025,-0.00
 003382,0.00001395,0.00000984,-0.00000293,0.00000943,0.00000276,-0.0000
 0960,0.00000056,0.00000044,-0.00000309,0.00000145,0.00000393,0.0000427
 1,-0.00001816,0.00002486,0.00000759,-0.00004638,0.00000426,0.00037716,
 0.00015412,0.00027232,-0.00002064,-0.00006272,-0.00019862,0.00002227,-
 0.00001195,-0.00002369,0.00002242,-0.00005844,-0.00004548,-0.00000318,
 -0.00001130,0.00000760,0.00000787,-0.00000561,-0.00000438,0.00000144,0
 .00001023,-0.00000020,-0.00000477,0.00001026,0.00002124,0.00001043,-0.
 00001068,-0.00000080,-0.00001102,-0.00000227,-0.00000350,-0.00002287,0
 .00001382,0.00002437,0.00000722,-0.00000591,-0.00001063,0.00000783,-0.
 00000392,-0.00001464,0.00001451,-0.00000179,0.00000925,-0.00000418,-0.
 00000379,-0.00000038,-0.00000673,-0.00000373,0.00000488,0.00000097,-0.
 00000050,0.00000332,-0.00001252,0.00004435,-0.00005961,0.00000581,-0.0
 0002148,0.00001842,0.00000762,0.00001804,-0.00000823,-0.00002045,-0.00
 003782,-0.00001010,-0.00001209,0.00000144,0.00000781,0.00001135,-0.000
 00369,-0.00000423,0.00000046,0.00000150,0.00000032,-0.00000905,0.00002
 885,-0.00002751,0.00000051,-0.00000456,0.00001201,-0.00000654,0.000003
 33,0.00000655,-0.00000130,-0.00000095,-0.00000831,0.00000476,0.0000035
 4,0.00000334,0.00000257,0.00000467,0.00000049,0.00000072,-0.00000079,-
 0.00000226,-0.00004417,0.00000620,0.00001775,0.00002073,-0.00000825,0.
 00000024,-0.00000104,-0.00000482,0.00000039,0.00000973,0.00001720,0.00
 000311,0.00000299,0.00000596,-0.00000327,-0.00000183,-0.00000536,0.000
 00160,-0.00000122,0.00000218,0.00000061,-0.00192001,0.00140200,-0.0026
 3662,-0.00130366,0.00023120,-0.00035868,0.00648664,0.01567577,-0.01866
 591,-0.00508345,-0.00117484,0.00103906,0.00011131,-0.00001967,0.000049
 36,-0.06682905,-0.03367625,0.03876721,0.00111649,-0.00025409,0.0004993
 7,-0.00022410,-0.01901163,0.02242693,-0.00018633,-0.00083616,0.0011419
 1,0.06664874,0.00035372,-0.00040152,0.00008584,-0.00007046,0.00005345,
 -0.00015591,0.00008479,-0.00001158,-0.00001553,0.00000808,-0.00006438,
 -0.00001309,-0.00000968,-0.00000592,0.00001358,0.00000706,-0.00000604,
 0.00000644,0.00003273,-0.00001547,-0.00000947,0.00000549,-0.00001377,-
 0.00000276,0.00001369,-0.00000314,-0.00000029,0.00000528,-0.00000413,-
 0.00000178,-0.00000346,0.00001338,-0.00002524,-0.00002083,0.00000685,0
 .00000548,-0.00080489,0.00006773,-0.00043227,0.00008595,0.00008504,0.0
 0026124,0.00006668,-0.00004763,-0.00012335,-0.00002755,0.00007190,0.00
 012612,-0.00000954,0.00002388,-0.00000582,-0.00000775,0.00000288,0.000
 00265,-0.00000038,-0.00001561,-0.00000173,-0.00002339,0.00001217,-0.00
 001926,-0.00000790,0.00000563,0.00000426,0.00001687,0.00000138,0.00000
 239,0.00000620,-0.00003604,-0.00004463,-0.00000944,0.00000974,0.000008
 62,-0.00002230,-0.00000396,0.00001231,-0.00001271,-0.00000220,-0.00000
 441,0.00000417,0.00000562,-0.00000065,0.00000343,0.00000196,-0.0000038
 1,0.00000222,-0.00000318,-0.00000143,0.00004782,0.00003899,0.00003433,
 0.00000334,-0.00000844,0.00000635,-0.00002206,-0.00000186,0.00001310,0
 .00004097,-0.00004040,0.00000301,0.00000960,0.00000511,-0.00000896,0.0
 0000753,0.00000103,0.00000252,0.00000501,-0.00000007,-0.00000159,0.000
 00124,0.00000215,0.00005119,0.00000651,-0.00000503,-0.00000601,-0.0000
 0568,0.00001985,0.00004276,0.00001507,-0.00000402,0.00000509,-0.000005
 83,-0.00000925,-0.00001219,-0.00000095,-0.00000175,0.00000338,-0.00000
 470,-0.00000418,-0.00000156,0.00002894,-0.00000370,-0.00004457,-0.0000
 1102,0.00000775,0.00000231,-0.00000054,0.00000872,-0.00000605,-0.00000
 190,0.00003318,0.00000587,-0.00000371,-0.00000462,0.00000214,0.0000048
 5,-0.00000316,0.00000059,-0.00000088,-0.00000604,-0.00000251,0.0020656
 9,0.00442022,0.00343271,-0.00018126,-0.00025774,-0.00064635,-0.0028206
 5,-0.00433735,0.00938522,-0.00166502,0.00457737,0.00282075,-0.00002618
 ,-0.00061426,-0.00040101,-0.03424162,-0.15537620,0.14034080,-0.0001490
 2,-0.00207991,-0.00244740,0.00050106,-0.00073626,0.00530008,0.00009516
 ,-0.00013389,0.00034895,0.03656227,0.15686136,-0.00018699,0.00031198,-
 0.00050581,0.00003082,-0.00001944,0.00021341,-0.00007173,-0.00001973,0
 .00002509,0.00002126,0.00006287,0.00001621,-0.00001394,0.00000371,-0.0
 0002280,-0.00000616,0.00002580,-0.00001674,-0.00002938,0.00001666,0.00
 000790,-0.00000411,0.00001344,0.00000310,-0.00001437,0.00000153,0.0000
 0175,-0.00000536,0.00000331,0.00000582,0.00003592,-0.00002555,-0.00000
 524,0.00000334,-0.00003619,0.00001144,-0.00004769,0.00001949,0.0004012
 3,0.00006958,-0.00001048,0.00004545,-0.00000238,-0.00001140,-0.0000919
 6,0.00000321,0.00002297,-0.00003976,0.00001628,-0.00003477,0.00001339,
 0.00000982,-0.00000471,-0.00000776,0.00000035,0.00001618,0.00000208,0.
 00002793,-0.00001044,0.00002065,0.00000856,-0.00000694,-0.00000611,-0.
 00001476,-0.00000295,0.00000066,-0.00001591,0.00000803,0.00002342,-0.0
 0000007,0.00000141,-0.00001766,0.00000197,0.00002792,0.00000481,0.0000
 0440,0.00000336,0.00000053,-0.00000732,-0.00000917,-0.00000671,-0.0000
 0898,0.00000056,0.00000835,-0.00000608,-0.00000541,0.00000575,-0.00001
 367,-0.00001064,-0.00003765,-0.00000291,0.00000553,0.00001115,0.000001
 85,0.00000168,-0.00000134,-0.00002818,0.00002360,-0.00001564,-0.000004
 06,-0.00000015,0.00000770,-0.00000222,-0.00000311,-0.00000141,-0.00000
 564,-0.00000185,-0.00000239,0.00000294,0.00000143,-0.00002947,-0.00000
 543,0.00000054,0.00000913,-0.00000896,-0.00001298,-0.00001129,-0.00000
 274,0.00000616,-0.00000671,0.00000432,0.00000250,0.00000558,0.00000302
 ,0.00000060,-0.00000281,0.00000111,0.00000803,-0.00000186,-0.00001011,
 0.00000646,0.00001939,0.00000005,-0.00000282,-0.00000449,0.00000507,-0
 .00001404,0.00000917,-0.00000786,-0.00000404,-0.00000743,0.00000515,0.
 00000368,-0.00000246,-0.00000058,0.00000628,0.00000057,0.00000024,0.00
 000462,0.00000310,-0.00164821,0.00365617,0.00219116,-0.00079974,-0.000
 57937,-0.00016857,0.00486734,0.00951832,-0.00773904,0.00127673,0.00274
 808,0.00381875,0.00001027,-0.00047621,-0.00044969,0.03862515,0.1403921
 7,-0.20234998,0.00026670,-0.00244383,-0.00128239,-0.00056528,0.0044604
 7,-0.00172517,-0.00012279,0.00021410,-0.00012880,-0.04174724,-0.155659
 59,0.20910064,-0.00006011,0.00006966,-0.00003182,0.00003065,-0.0000235
 1,0.00004593,-0.00004075,-0.00000004,0.00000912,-0.00000406,0.00002831
 ,0.00000137,0.00000114,0.00000259,-0.00000481,0.00000030,0.00000696,-0
 .00000258,-0.00001601,0.00000924,0.00000369,-0.00000209,0.00000783,0.0
 0000208,-0.00000766,0.00000030,0.00000120,-0.00000361,0.00000317,0.000
 00155,-0.00001047,-0.00001326,-0.00000497,0.00000781,0.00000219,-0.000
 00079,0.00010390,0.00001466,0.00015131,-0.00000400,-0.00001239,-0.0000
 4309,-0.00000277,0.00000338,-0.00000847,0.00000609,-0.00000318,-0.0000
 0129,0.00001360,-0.00002419,0.00000404,0.00000391,-0.00000163,-0.00000
 380,-0.00000104,0.00001006,0.00000208,0.00003407,-0.00001845,0.0000138
 5,0.00000107,0.00000084,-0.00000534,-0.00001124,0.00000056,0.00000103,
 0.00003340,0.00000219,0.00002136,-0.00000614,0.00000781,-0.00000885,0.
 00000455,0.00003673,0.00002004,-0.00000794,0.00000659,-0.00000809,-0.0
 0000187,-0.00000575,-0.00000269,-0.00000075,0.00000175,0.00000337,-0.0
 0001074,-0.00000322,0.00000253,-0.00003822,-0.00007942,0.00002122,-0.0
 0001273,0.00003748,-0.00002707,0.00001859,-0.00002401,-0.00000436,0.00
 000219,0.00008469,-0.00001012,0.00000184,-0.00000236,0.00000498,-0.000
 02170,0.00000129,0.00000369,-0.00001040,-0.00000295,-0.00000025,0.0000
 0867,-0.00001055,-0.00002652,-0.00000694,0.00000399,0.00000218,-0.0000
 0907,-0.00002478,-0.00001776,-0.00000353,0.00000002,-0.00000280,0.0000
 0064,0.00000376,0.00000711,0.00000267,0.00000214,-0.00000422,0.0000039
 6,0.00000629,0.00000122,-0.00000014,0.00000522,0.00001929,-0.00000233,
 -0.00000144,-0.00000687,0.00000047,-0.00000595,0.00000181,-0.00001000,
 -0.00001392,-0.00000394,0.00000325,0.00000261,-0.00000139,-0.00000074,
 0.00000576,0.00000002,0.00000026,0.00000327,0.00000240,-0.00009794,-0.
 00071580,0.00073853,0.00130563,-0.00105233,0.00121871,-0.00397294,-0.0
 0214259,0.00205961,0.00766371,-0.00326812,0.00403204,0.00017307,-0.000
 19757,0.00026105,-0.01679639,0.01308670,-0.01617451,-0.00085387,0.0005
 2852,-0.00078245,-0.21980201,0.08387028,-0.10674460,0.00046244,0.00034
 936,-0.00039549,0.00131220,0.00007985,0.00010748,0.23063015,-0.0005048
 3,-0.00002174,0.00017706,0.00012957,-0.00002656,-0.00000385,0.00001910
 ,0.00000264,0.00000275,0.00000935,-0.00003709,-0.00001306,-0.00000960,
 -0.00001730,-0.00000422,0.00001786,0.00001798,0.00000837,-0.00001312,0
 .00000893,0.00000252,0.00000332,-0.00000142,-0.00000007,0.00000305,-0.
 00000368,-0.00000027,0.00000043,-0.00000021,-0.00000094,0.00000675,0.0
 0002511,-0.00000006,0.00002903,0.00002677,-0.00003363,0.00045052,-0.00
 042634,0.00018174,0.00003141,0.00001440,-0.00009761,0.00009553,0.00002
 594,0.00008694,-0.00003392,-0.00004247,-0.00016557,-0.00000631,0.00000
 340,-0.00001033,0.00000149,-0.00000116,-0.00000305,0.00000013,-0.00000
 387,0.00000039,-0.00000423,0.00000854,-0.00000453,0.00000163,0.0000002
 1,-0.00000324,0.00000064,0.00000154,0.00000083,-0.00000775,0.00001333,
 0.00000269,0.00000278,-0.00000350,-0.00000080,-0.00000851,-0.00001182,
 -0.00000408,-0.00000291,-0.00000638,0.00000088,-0.00000115,-0.00000035
 ,-0.00000156,-0.00000003,0.00000190,-0.00000022,0.00000313,0.00000038,
 -0.00000005,-0.00004490,0.00001673,0.00002676,-0.00000227,-0.00000391,
 -0.00001062,-0.00000371,-0.00001537,-0.00000513,0.00001198,0.00000317,
 -0.00000479,0.00000099,0.00000148,0.00000031,0.00000071,0.00000228,-0.
 00000002,-0.00000417,-0.00000074,0.00000129,-0.00000190,0.00002988,-0.
 00001157,0.00000950,-0.00000315,0.00000213,-0.00000146,0.00002353,0.00
 003557,0.00000476,-0.00001363,-0.00000532,0.00000482,-0.00000340,-0.00
 000820,-0.00000198,-0.00000340,0.00000787,-0.00000850,-0.00000460,-0.0
 0000302,-0.00004322,0.00000889,0.00001180,0.00002753,-0.00000857,-0.00
 000376,-0.00001253,0.00001135,-0.00001904,0.00003544,0.00004033,0.0000
 2898,0.00000106,0.00000416,0.00000099,-0.00000393,-0.00001220,0.000001
 04,-0.00000131,-0.00000768,-0.00000227,-0.00054513,-0.00089187,-0.0006
 4434,-0.00134296,0.00244007,0.00571659,-0.00180490,0.00425756,0.003368
 06,0.01587186,-0.00354467,0.00838645,0.00072910,-0.00026501,0.00040822
 ,-0.00653402,0.00625231,-0.00368434,-0.00037805,0.00013718,-0.00010454
 ,0.08410174,-0.08867953,0.06588613,-0.00013863,-0.00179009,-0.00251977
 ,0.00049939,-0.00207460,-0.00219385,-0.09063866,0.08454632,-0.00053254
 ,0.00001777,0.00008415,0.00014313,-0.00000540,0.00004359,-0.00003195,0
 .00001188,0.00001075,0.00000625,0.00000590,-0.00000480,-0.00000655,-0.
 00001053,-0.00000728,0.00000852,0.00001393,0.00000398,-0.00002211,0.00
 001489,0.00000508,-0.00000029,0.00000681,0.00000198,-0.00000500,-0.000
 00175,0.00000097,-0.00000347,0.00000204,0.00000061,0.00000847,0.000001
 31,0.00000421,0.00004338,0.00003217,-0.00003034,0.00038210,-0.00038777
 ,0.00019707,0.00004805,0.00000701,0.00003912,0.00000018,-0.00000885,0.
 00007943,-0.00003270,-0.00004910,-0.00016080,0.00000597,-0.00003710,0.
 00000364,0.00000638,-0.00000151,-0.00000523,-0.00000103,0.00000789,0.0
 0000208,0.00001397,-0.00000085,0.00000570,0.00000698,-0.00000302,-0.00
 000467,-0.00000808,0.00000034,0.00000037,-0.00001923,0.00001723,0.0000
 1994,0.00000446,-0.00000635,-0.00000441,-0.00000338,-0.00000613,-0.000
 01164,0.00000868,-0.00000257,0.00000625,-0.00000320,-0.00000410,-0.000
 00160,-0.00000222,0.00000039,0.00000210,0.00000004,0.00000141,0.000000
 68,-0.00001970,0.00002961,-0.00001671,0.00000453,-0.00001586,0.0000053
 8,0.00000170,-0.00000614,-0.00000529,0.00000793,-0.00001567,0.00000233
 ,-0.00000219,-0.00000015,0.00000326,0.00000463,0.00000243,-0.00000364,
 -0.00000402,-0.00000095,0.00000005,-0.00001379,-0.00000384,-0.00003294
 ,-0.00000239,-0.00000181,0.00000777,0.00000816,0.00000499,-0.00001204,
 -0.00000233,-0.00000088,-0.00000047,0.00000200,0.00000073,0.00000360,0
 .00000068,-0.00000022,-0.00000437,0.00000014,0.00000426,-0.00000215,0.
 00001472,0.00003700,0.00004561,-0.00002018,0.00000148,0.00000625,0.000
 01381,-0.00002023,0.00001666,-0.00002405,-0.00003492,-0.00003283,0.000
 00367,0.00000020,-0.00000339,-0.00000200,0.00001456,-0.00000228,0.0000
 0137,0.00000846,0.00000282,0.00102317,-0.00022456,-0.00123226,0.001576
 32,0.00564115,-0.00009048,0.00175192,0.00311310,0.00342543,-0.01926499
 ,0.00840062,-0.00722387,-0.00083181,0.00042087,-0.00049738,0.00679224,
 -0.00313528,0.00727572,0.00033563,-0.00008389,0.00022212,-0.10665408,0
 .06579540,-0.11916517,0.00012257,-0.00253690,-0.00064521,-0.00040152,-
 0.00223088,-0.00129825,0.11556305,-0.07477865,0.11897084\\-0.00000123,
 -0.00000072,0.00000177,0.00000378,0.00000294,0.00000416,0.00000565,0.0
 0000260,0.00000451,0.00000106,0.00000629,0.00000400,0.00000769,0.00000
 496,0.00000652,0.00000306,0.00000793,0.00000617,0.00000612,0.00000745,
 0.00000788,0.00001009,0.00000397,0.00000823,0.00000276,0.00001055,0.00
 000672,0.00000840,0.00000868,0.00000944,-0.00000317,0.00000472,-0.0000
 0137,0.00000303,-0.00000184,-0.00000069,-0.00000442,0.00000148,-0.0000
 0234,-0.00000380,-0.00000041,-0.00000232,-0.00000507,0.00000354,-0.000
 00102,-0.00000844,0.00000065,-0.00000455,0.00000599,-0.00000006,0.0000
 0364,0.00000554,0.00000231,0.00000373,0.00000797,-0.00000165,0.0000051
 1,-0.00000234,0.00000785,0.00000163,-0.00000352,0.00000851,0.00000233,
 -0.00000294,0.00000895,0.00000256,-0.00000653,0.00000515,-0.00000242,-
 0.00000924,0.00000684,-0.00000228,-0.00000772,0.00000248,-0.00000370,-
 0.00000782,0.00000610,-0.00000158,-0.00001155,0.00000767,-0.00000351,-
 0.00000901,0.00000604,-0.00000282,-0.00000855,0.00000955,-0.00000068,-
 0.00000201,0.00000246,-0.00000019,-0.00000229,0.00000442,0.00000109,0.
 00000004,0.00000042,-0.00000054,-0.00000440,0.00000084,-0.00000216,-0.
 00000162,0.00000262,0.00000032,-0.00000013,0.00000568,0.00000272,-0.00
 000431,0.00000638,0.00000035,0.00000406,-0.00000423,0.00000192,0.00000
 816,-0.00000763,0.00000151,0.00000275,-0.00000640,-0.00000119,0.000005
 25,-0.00000356,0.00000094,0.00000867,-0.00000950,0.00000062,0.00000726
 ,-0.00000911,0.00000063,0.00000998,-0.00000730,0.00000313,0.00000363,-
 0.00000307,-0.00000041,0.00000610,-0.00000378,0.00000153,0.00000200,-0
 .00000141,0.00000068,0.00000219,-0.00000586,-0.00000103,0.00000539,-0.
 00000533,0.00000060,0.00000659,-0.00000214,0.00000342,0.00000825,-0.00
 000629,0.00000203,-0.00000323,-0.00000307,-0.00000381,-0.00000297,-0.0
 0000534,-0.00000504,-0.00000397,-0.00000463,-0.00000453,-0.00000307,-0
 .00000888,-0.00000675,-0.00000227,-0.00000540,-0.00000409,-0.00000473,
 -0.00000800,-0.00000620,-0.00000446,-0.00000262,-0.00000406,-0.0000037
 7,-0.00001016,-0.00000714,-0.00000322,-0.00001081,-0.00000728,-0.00000
 514,-0.00000830,-0.00000725,-0.00000452,-0.00001254,-0.00000893\\\@
 The archive entry for this job was punched.


 TIME GOES, YOU SAY?  AH NO!
 ALAS, TIME STAYS, WE GO.
    -- A. DOBSON (1840-1921)
 Job cpu time:       3 days 22 hours 32 minutes 41.3 seconds.
 Elapsed time:       0 days  8 hours  7 minutes 45.6 seconds.
 File lengths (MBytes):  RWF=   3343 Int=      0 D2E=      0 Chk=     80 Scr=      1
 Normal termination of Gaussian 16 at Sat May 28 05:03:55 2022.
