 Entering Gaussian System, Link 0=/cm/shared/apps//g16/g16
 Input=TS_Ph-NCNPtMe_NCNPtMePh.com
 Output=TS_Ph-NCNPtMe_NCNPtMePh.log
 Initial command:
 /cm/shared/apps//g16/l1.exe "/var/tmp/pbs.66.josephine/Gau-2965151.inp" -scrdir="/var/tmp/pbs.66.josephine/"
 Entering Link 1 = /cm/shared/apps//g16/l1.exe PID=   2965154.
  
 Copyright (c) 1988-2019, Gaussian, Inc.  All Rights Reserved.
  
 This is part of the Gaussian(R) 16 program.  It is based on
 the Gaussian(R) 09 system (copyright 2009, Gaussian, Inc.),
 the Gaussian(R) 03 system (copyright 2003, Gaussian, Inc.),
 the Gaussian(R) 98 system (copyright 1998, Gaussian, Inc.),
 the Gaussian(R) 94 system (copyright 1995, Gaussian, Inc.),
 the Gaussian 92(TM) system (copyright 1992, Gaussian, Inc.),
 the Gaussian 90(TM) system (copyright 1990, Gaussian, Inc.),
 the Gaussian 88(TM) system (copyright 1988, Gaussian, Inc.),
 the Gaussian 86(TM) system (copyright 1986, Carnegie Mellon
 University), and the Gaussian 82(TM) system (copyright 1983,
 Carnegie Mellon University). Gaussian is a federally registered
 trademark of Gaussian, Inc.
  
 This software contains proprietary and confidential information,
 including trade secrets, belonging to Gaussian, Inc.
  
 This software is provided under written license and may be
 used, copied, transmitted, or stored only in accord with that
 written license.
  
 The following legend is applicable only to US Government
 contracts under FAR:
  
                    RESTRICTED RIGHTS LEGEND
  
 Use, reproduction and disclosure by the US Government is
 subject to restrictions as set forth in subparagraphs (a)
 and (c) of the Commercial Computer Software - Restricted
 Rights clause in FAR 52.227-19.
  
 Gaussian, Inc.
 340 Quinnipiac St., Bldg. 40, Wallingford CT 06492
  
  
 ---------------------------------------------------------------
 Warning -- This program may not be used in any manner that
 competes with the business of Gaussian, Inc. or will provide
 assistance to any competitor of Gaussian, Inc.  The licensee
 of this program is prohibited from giving any competitor of
 Gaussian, Inc. access to this program.  By using this program,
 the user acknowledges that Gaussian, Inc. is engaged in the
 business of creating and licensing software in the field of
 computational chemistry and represents and warrants to the
 licensee that it is not a competitor of Gaussian, Inc. and that
 it will not use this program in any manner prohibited above.
 ---------------------------------------------------------------
  

 Cite this work as:
 Gaussian 16, Revision C.01,
 M. J. Frisch, G. W. Trucks, H. B. Schlegel, G. E. Scuseria, 
 M. A. Robb, J. R. Cheeseman, G. Scalmani, V. Barone, 
 G. A. Petersson, H. Nakatsuji, X. Li, M. Caricato, A. V. Marenich, 
 J. Bloino, B. G. Janesko, R. Gomperts, B. Mennucci, H. P. Hratchian, 
 J. V. Ortiz, A. F. Izmaylov, J. L. Sonnenberg, D. Williams-Young, 
 F. Ding, F. Lipparini, F. Egidi, J. Goings, B. Peng, A. Petrone, 
 T. Henderson, D. Ranasinghe, V. G. Zakrzewski, J. Gao, N. Rega, 
 G. Zheng, W. Liang, M. Hada, M. Ehara, K. Toyota, R. Fukuda, 
 J. Hasegawa, M. Ishida, T. Nakajima, Y. Honda, O. Kitao, H. Nakai, 
 T. Vreven, K. Throssell, J. A. Montgomery, Jr., J. E. Peralta, 
 F. Ogliaro, M. J. Bearpark, J. J. Heyd, E. N. Brothers, K. N. Kudin, 
 V. N. Staroverov, T. A. Keith, R. Kobayashi, J. Normand, 
 K. Raghavachari, A. P. Rendell, J. C. Burant, S. S. Iyengar, 
 J. Tomasi, M. Cossi, J. M. Millam, M. Klene, C. Adamo, R. Cammi, 
 J. W. Ochterski, R. L. Martin, K. Morokuma, O. Farkas, 
 J. B. Foresman, and D. J. Fox, Gaussian, Inc., Wallingford CT, 2019.
 
 ******************************************
 Gaussian 16:  ES64L-G16RevC.01  3-Jul-2019
                 1-Jun-2022 
 ******************************************
 %nprocshared=24
 Will use up to   24 processors via shared memory.
 %mem=512MW
 %chk=TS_Ph-NCNPtMe_NCNPtMePh.chk
 ----------------------------------------------------------------------
 # opt=(ts,calcfc,noeigentest) freq gen scrf=(iefpcm,solvent=thf) m06 E
 mpiricalDispersion=GD3 Pseudo=Read
 ----------------------------------------------------------------------
 1/5=1,10=4,11=1,18=20,26=3,38=1/1,3;
 2/9=110,12=2,17=6,18=5,40=1/2;
 3/5=7,11=2,16=1,17=8,25=1,30=1,70=2201,71=2,72=20,74=-54,124=31,140=1/1,2,3;
 4//1;
 5/5=2,38=5,53=20/2;
 8/6=4,10=90,11=11/1;
 11/6=1,8=1,9=11,15=111,16=1/1,2,10;
 10/6=1,13=1/2;
 6/7=2,8=2,9=2,10=2,28=1/1;
 7/10=1,25=1/1,2,3,16;
 1/5=1,10=4,11=1,18=20,26=3/3(2);
 2/9=110/2;
 99//99;
 2/9=110/2;
 3/5=7,6=1,11=2,16=1,17=8,25=1,30=1,70=2205,71=1,72=20,74=-54,82=7,124=31/1,2,3;
 4/5=5,16=3,69=1/1;
 5/5=2,38=5,53=20/2;
 7//1,2,3,16;
 1/5=1,11=1,18=20,26=3/3(-5);
 2/9=110/2;
 6/7=2,8=2,9=2,10=2,19=2,28=1/1;
 99/9=1/99;
 ----------------------------------------------------------------------
 TS between Ph-(NCN)PtMe and NCNPtMe[eq]Ph[ax]; M06 with Custom Lanl2tz
 (f)+6-311g(d,p) basis set
 ----------------------------------------------------------------------
 Symbolic Z-matrix:
 Charge =  1 Multiplicity = 1
 Pt                   -0.03977  -0.18281  -0.70594 
 C                    -0.01097   0.05291   1.30862 
 C                     1.19575  -0.24084   1.91752 
 C                    -1.24825  -0.212     1.88535 
 C                     1.1658   -0.74263   3.21068 
 C                    -1.25638  -0.72359   3.17345 
 C                    -0.0555   -0.95476   3.83907 
 H                     2.09301  -0.99821   3.71751 
 H                    -2.20068  -0.97019   3.65311 
 H                    -0.07451  -1.35039   4.84865 
 N                    -2.19084  -0.4154   -0.39411 
 N                     2.08094  -0.72148  -0.30874 
 C                    -0.06406  -1.29169  -2.48752 
 H                     0.89307  -1.18378  -3.00776 
 H                    -0.85989  -0.93081  -3.14795 
 H                    -0.23635  -2.35657  -2.302 
 C                     2.39145  -0.10341   1.03416 
 H                     2.61939   0.95331   0.86924 
 H                     3.28178  -0.56454   1.46885 
 C                    -2.45564   0.00913   1.02399 
 H                    -2.73433   1.06388   0.98306 
 H                    -3.32802  -0.51377   1.41927 
 C                    -2.97207   0.41596  -1.36193 
 C                    -4.47902   0.35087  -1.26771 
 H                    -2.6441    0.11494  -2.36009 
 H                    -2.62807   1.44402  -1.20918 
 H                    -4.8943    1.1122   -1.93258 
 H                    -4.87461  -0.61309  -1.59318 
 H                    -4.84631   0.56314  -0.26001 
 C                    -2.44231  -1.89742  -0.55454 
 C                    -3.64071  -2.49901   0.15335 
 H                    -1.54988  -2.41244  -0.1877 
 H                    -2.49723  -2.07688  -1.63043 
 H                    -3.75078  -3.52336  -0.21207 
 H                    -3.48989  -2.56487   1.23415 
 H                    -4.58138  -1.98116  -0.03578 
 C                     2.01311  -2.21823  -0.15134 
 C                     3.30202  -2.91606   0.22455 
 H                     1.64447  -2.61162  -1.10043 
 H                     1.24879  -2.42587   0.60304 
 H                     3.08795  -3.98425   0.31035 
 H                     4.07995  -2.80364  -0.53426 
 H                     3.70002  -2.59193   1.18937 
 C                     3.08229  -0.37415  -1.38 
 C                     4.4706    0.01702  -0.92271 
 H                     2.66564   0.42965  -1.98981 
 H                     3.13474  -1.24474  -2.03856 
 H                     5.09596   0.13441  -1.81103 
 H                     4.48      0.97347  -0.39466 
 H                     4.94276  -0.73339  -0.2859 
 C                     0.11659   1.7921    0.20123 
 C                    -0.69918   2.62865   0.9636 
 C                     1.13222   2.40505  -0.54191 
 C                    -0.54705   4.00585   0.93159 
 H                    -1.43999   2.23473   1.64371 
 C                     1.2812    3.78385  -0.57226 
 H                     1.80972   1.82323  -1.1539 
 C                     0.43744   4.59619   0.16049 
 H                    -1.20379   4.61658   1.54306 
 H                     2.06953   4.2125   -1.18291 
 H                     0.55475   5.67433   0.14365 
 

 GradGradGradGradGradGradGradGradGradGradGradGradGradGradGradGradGradGrad
 Berny optimization.
 Initialization pass.
                           ----------------------------
                           !    Initial Parameters    !
                           ! (Angstroms and Degrees)  !
 --------------------------                            --------------------------
 ! Name  Definition              Value          Derivative Info.                !
 --------------------------------------------------------------------------------
 ! R1    R(1,2)                  2.0285         calculate D2E/DX2 analytically  !
 ! R2    R(1,11)                 2.186          calculate D2E/DX2 analytically  !
 ! R3    R(1,12)                 2.2238         calculate D2E/DX2 analytically  !
 ! R4    R(1,13)                 2.0986         calculate D2E/DX2 analytically  !
 ! R5    R(1,51)                 2.1789         calculate D2E/DX2 analytically  !
 ! R6    R(2,3)                  1.3832         calculate D2E/DX2 analytically  !
 ! R7    R(2,4)                  1.3906         calculate D2E/DX2 analytically  !
 ! R8    R(3,5)                  1.3874         calculate D2E/DX2 analytically  !
 ! R9    R(3,17)                 1.493          calculate D2E/DX2 analytically  !
 ! R10   R(4,6)                  1.386          calculate D2E/DX2 analytically  !
 ! R11   R(4,20)                 1.4995         calculate D2E/DX2 analytically  !
 ! R12   R(5,7)                  1.3898         calculate D2E/DX2 analytically  !
 ! R13   R(5,8)                  1.0872         calculate D2E/DX2 analytically  !
 ! R14   R(6,7)                  1.3923         calculate D2E/DX2 analytically  !
 ! R15   R(6,9)                  1.0875         calculate D2E/DX2 analytically  !
 ! R16   R(7,10)                 1.0845         calculate D2E/DX2 analytically  !
 ! R17   R(11,20)                1.5038         calculate D2E/DX2 analytically  !
 ! R18   R(11,23)                1.496          calculate D2E/DX2 analytically  !
 ! R19   R(11,30)                1.5117         calculate D2E/DX2 analytically  !
 ! R20   R(12,17)                1.5106         calculate D2E/DX2 analytically  !
 ! R21   R(12,37)                1.5065         calculate D2E/DX2 analytically  !
 ! R22   R(12,44)                1.507          calculate D2E/DX2 analytically  !
 ! R23   R(13,14)                1.0947         calculate D2E/DX2 analytically  !
 ! R24   R(13,15)                1.0953         calculate D2E/DX2 analytically  !
 ! R25   R(13,16)                1.0946         calculate D2E/DX2 analytically  !
 ! R26   R(17,18)                1.0935         calculate D2E/DX2 analytically  !
 ! R27   R(17,19)                1.0928         calculate D2E/DX2 analytically  !
 ! R28   R(20,21)                1.0917         calculate D2E/DX2 analytically  !
 ! R29   R(20,22)                1.0912         calculate D2E/DX2 analytically  !
 ! R30   R(23,24)                1.5113         calculate D2E/DX2 analytically  !
 ! R31   R(23,25)                1.0929         calculate D2E/DX2 analytically  !
 ! R32   R(23,26)                1.0948         calculate D2E/DX2 analytically  !
 ! R33   R(24,27)                1.0928         calculate D2E/DX2 analytically  !
 ! R34   R(24,28)                1.0916         calculate D2E/DX2 analytically  !
 ! R35   R(24,29)                1.0934         calculate D2E/DX2 analytically  !
 ! R36   R(30,31)                1.5163         calculate D2E/DX2 analytically  !
 ! R37   R(30,32)                1.0937         calculate D2E/DX2 analytically  !
 ! R38   R(30,33)                1.0921         calculate D2E/DX2 analytically  !
 ! R39   R(31,34)                1.0931         calculate D2E/DX2 analytically  !
 ! R40   R(31,35)                1.0933         calculate D2E/DX2 analytically  !
 ! R41   R(31,36)                1.0903         calculate D2E/DX2 analytically  !
 ! R42   R(37,38)                1.5131         calculate D2E/DX2 analytically  !
 ! R43   R(37,39)                1.0915         calculate D2E/DX2 analytically  !
 ! R44   R(37,40)                1.0938         calculate D2E/DX2 analytically  !
 ! R45   R(38,41)                1.0928         calculate D2E/DX2 analytically  !
 ! R46   R(38,42)                1.0925         calculate D2E/DX2 analytically  !
 ! R47   R(38,43)                1.0929         calculate D2E/DX2 analytically  !
 ! R48   R(44,45)                1.5131         calculate D2E/DX2 analytically  !
 ! R49   R(44,46)                1.0916         calculate D2E/DX2 analytically  !
 ! R50   R(44,47)                1.0929         calculate D2E/DX2 analytically  !
 ! R51   R(45,48)                1.0927         calculate D2E/DX2 analytically  !
 ! R52   R(45,49)                1.0926         calculate D2E/DX2 analytically  !
 ! R53   R(45,50)                1.0916         calculate D2E/DX2 analytically  !
 ! R54   R(51,52)                1.3952         calculate D2E/DX2 analytically  !
 ! R55   R(51,53)                1.3998         calculate D2E/DX2 analytically  !
 ! R56   R(52,54)                1.386          calculate D2E/DX2 analytically  !
 ! R57   R(52,55)                1.0801         calculate D2E/DX2 analytically  !
 ! R58   R(53,56)                1.3871         calculate D2E/DX2 analytically  !
 ! R59   R(53,57)                1.0826         calculate D2E/DX2 analytically  !
 ! R60   R(54,58)                1.3829         calculate D2E/DX2 analytically  !
 ! R61   R(54,59)                1.0854         calculate D2E/DX2 analytically  !
 ! R62   R(56,58)                1.3816         calculate D2E/DX2 analytically  !
 ! R63   R(56,60)                1.0854         calculate D2E/DX2 analytically  !
 ! R64   R(58,61)                1.0846         calculate D2E/DX2 analytically  !
 ! A1    A(2,1,11)              83.3771         calculate D2E/DX2 analytically  !
 ! A2    A(2,1,12)              80.6318         calculate D2E/DX2 analytically  !
 ! A3    A(2,1,13)             154.7769         calculate D2E/DX2 analytically  !
 ! A4    A(2,1,51)              58.6799         calculate D2E/DX2 analytically  !
 ! A5    A(11,1,12)            152.5187         calculate D2E/DX2 analytically  !
 ! A6    A(11,1,13)             93.0663         calculate D2E/DX2 analytically  !
 ! A7    A(11,1,51)             96.1808         calculate D2E/DX2 analytically  !
 ! A8    A(12,1,13)             91.9874         calculate D2E/DX2 analytically  !
 ! A9    A(12,1,51)             94.4016         calculate D2E/DX2 analytically  !
 ! A10   A(13,1,51)            146.4272         calculate D2E/DX2 analytically  !
 ! A11   A(1,2,3)              115.1442         calculate D2E/DX2 analytically  !
 ! A12   A(1,2,4)              112.1555         calculate D2E/DX2 analytically  !
 ! A13   A(3,2,4)              123.588          calculate D2E/DX2 analytically  !
 ! A14   A(2,3,5)              117.9227         calculate D2E/DX2 analytically  !
 ! A15   A(2,3,17)             114.7524         calculate D2E/DX2 analytically  !
 ! A16   A(5,3,17)             127.0178         calculate D2E/DX2 analytically  !
 ! A17   A(2,4,6)              117.4509         calculate D2E/DX2 analytically  !
 ! A18   A(2,4,20)             116.7496         calculate D2E/DX2 analytically  !
 ! A19   A(6,4,20)             125.7005         calculate D2E/DX2 analytically  !
 ! A20   A(3,5,7)              119.7095         calculate D2E/DX2 analytically  !
 ! A21   A(3,5,8)              120.0753         calculate D2E/DX2 analytically  !
 ! A22   A(7,5,8)              120.1866         calculate D2E/DX2 analytically  !
 ! A23   A(4,6,7)              120.0343         calculate D2E/DX2 analytically  !
 ! A24   A(4,6,9)              119.9153         calculate D2E/DX2 analytically  !
 ! A25   A(7,6,9)              120.0284         calculate D2E/DX2 analytically  !
 ! A26   A(5,7,6)              121.0941         calculate D2E/DX2 analytically  !
 ! A27   A(5,7,10)             119.4718         calculate D2E/DX2 analytically  !
 ! A28   A(6,7,10)             119.373          calculate D2E/DX2 analytically  !
 ! A29   A(1,11,20)            106.1269         calculate D2E/DX2 analytically  !
 ! A30   A(1,11,23)            111.2505         calculate D2E/DX2 analytically  !
 ! A31   A(1,11,30)            104.6467         calculate D2E/DX2 analytically  !
 ! A32   A(20,11,23)           111.1752         calculate D2E/DX2 analytically  !
 ! A33   A(20,11,30)           110.3375         calculate D2E/DX2 analytically  !
 ! A34   A(23,11,30)           112.9087         calculate D2E/DX2 analytically  !
 ! A35   A(1,12,17)            104.8156         calculate D2E/DX2 analytically  !
 ! A36   A(1,12,37)            102.4966         calculate D2E/DX2 analytically  !
 ! A37   A(1,12,44)            116.8001         calculate D2E/DX2 analytically  !
 ! A38   A(17,12,37)           108.8372         calculate D2E/DX2 analytically  !
 ! A39   A(17,12,44)           113.6453         calculate D2E/DX2 analytically  !
 ! A40   A(37,12,44)           109.4612         calculate D2E/DX2 analytically  !
 ! A41   A(1,13,14)            109.952          calculate D2E/DX2 analytically  !
 ! A42   A(1,13,15)            110.2544         calculate D2E/DX2 analytically  !
 ! A43   A(1,13,16)            111.8387         calculate D2E/DX2 analytically  !
 ! A44   A(14,13,15)           108.4352         calculate D2E/DX2 analytically  !
 ! A45   A(14,13,16)           108.3045         calculate D2E/DX2 analytically  !
 ! A46   A(15,13,16)           107.9605         calculate D2E/DX2 analytically  !
 ! A47   A(3,17,12)            108.8878         calculate D2E/DX2 analytically  !
 ! A48   A(3,17,18)            110.1896         calculate D2E/DX2 analytically  !
 ! A49   A(3,17,19)            112.228          calculate D2E/DX2 analytically  !
 ! A50   A(12,17,18)           107.7075         calculate D2E/DX2 analytically  !
 ! A51   A(12,17,19)           110.3916         calculate D2E/DX2 analytically  !
 ! A52   A(18,17,19)           107.3333         calculate D2E/DX2 analytically  !
 ! A53   A(4,20,11)            110.9939         calculate D2E/DX2 analytically  !
 ! A54   A(4,20,21)            111.688          calculate D2E/DX2 analytically  !
 ! A55   A(4,20,22)            111.4054         calculate D2E/DX2 analytically  !
 ! A56   A(11,20,21)           106.4005         calculate D2E/DX2 analytically  !
 ! A57   A(11,20,22)           110.3102         calculate D2E/DX2 analytically  !
 ! A58   A(21,20,22)           105.811          calculate D2E/DX2 analytically  !
 ! A59   A(11,23,24)           117.157          calculate D2E/DX2 analytically  !
 ! A60   A(11,23,25)           106.3238         calculate D2E/DX2 analytically  !
 ! A61   A(11,23,26)           105.5154         calculate D2E/DX2 analytically  !
 ! A62   A(24,23,25)           110.1385         calculate D2E/DX2 analytically  !
 ! A63   A(24,23,26)           110.1851         calculate D2E/DX2 analytically  !
 ! A64   A(25,23,26)           106.9637         calculate D2E/DX2 analytically  !
 ! A65   A(23,24,27)           108.1192         calculate D2E/DX2 analytically  !
 ! A66   A(23,24,28)           112.3827         calculate D2E/DX2 analytically  !
 ! A67   A(23,24,29)           112.5853         calculate D2E/DX2 analytically  !
 ! A68   A(27,24,28)           107.224          calculate D2E/DX2 analytically  !
 ! A69   A(27,24,29)           107.3278         calculate D2E/DX2 analytically  !
 ! A70   A(28,24,29)           108.9353         calculate D2E/DX2 analytically  !
 ! A71   A(11,30,31)           118.0909         calculate D2E/DX2 analytically  !
 ! A72   A(11,30,32)           106.8768         calculate D2E/DX2 analytically  !
 ! A73   A(11,30,33)           105.9027         calculate D2E/DX2 analytically  !
 ! A74   A(31,30,32)           107.5461         calculate D2E/DX2 analytically  !
 ! A75   A(31,30,33)           110.7908         calculate D2E/DX2 analytically  !
 ! A76   A(32,30,33)           107.1016         calculate D2E/DX2 analytically  !
 ! A77   A(30,31,34)           107.176          calculate D2E/DX2 analytically  !
 ! A78   A(30,31,35)           112.1106         calculate D2E/DX2 analytically  !
 ! A79   A(30,31,36)           114.3593         calculate D2E/DX2 analytically  !
 ! A80   A(34,31,35)           106.7328         calculate D2E/DX2 analytically  !
 ! A81   A(34,31,36)           107.4702         calculate D2E/DX2 analytically  !
 ! A82   A(35,31,36)           108.6093         calculate D2E/DX2 analytically  !
 ! A83   A(12,37,38)           116.4745         calculate D2E/DX2 analytically  !
 ! A84   A(12,37,39)           106.4051         calculate D2E/DX2 analytically  !
 ! A85   A(12,37,40)           106.985          calculate D2E/DX2 analytically  !
 ! A86   A(38,37,39)           109.7229         calculate D2E/DX2 analytically  !
 ! A87   A(38,37,40)           109.6548         calculate D2E/DX2 analytically  !
 ! A88   A(39,37,40)           107.1737         calculate D2E/DX2 analytically  !
 ! A89   A(37,38,41)           107.6644         calculate D2E/DX2 analytically  !
 ! A90   A(37,38,42)           112.7395         calculate D2E/DX2 analytically  !
 ! A91   A(37,38,43)           113.1257         calculate D2E/DX2 analytically  !
 ! A92   A(41,38,42)           107.1338         calculate D2E/DX2 analytically  !
 ! A93   A(41,38,43)           106.9738         calculate D2E/DX2 analytically  !
 ! A94   A(42,38,43)           108.8646         calculate D2E/DX2 analytically  !
 ! A95   A(12,44,45)           117.028          calculate D2E/DX2 analytically  !
 ! A96   A(12,44,46)           108.2528         calculate D2E/DX2 analytically  !
 ! A97   A(12,44,47)           106.0607         calculate D2E/DX2 analytically  !
 ! A98   A(45,44,46)           109.1885         calculate D2E/DX2 analytically  !
 ! A99   A(45,44,47)           110.1218         calculate D2E/DX2 analytically  !
 ! A100  A(46,44,47)           105.5611         calculate D2E/DX2 analytically  !
 ! A101  A(44,45,48)           107.8898         calculate D2E/DX2 analytically  !
 ! A102  A(44,45,49)           112.3498         calculate D2E/DX2 analytically  !
 ! A103  A(44,45,50)           113.2936         calculate D2E/DX2 analytically  !
 ! A104  A(48,45,49)           107.0944         calculate D2E/DX2 analytically  !
 ! A105  A(48,45,50)           107.4926         calculate D2E/DX2 analytically  !
 ! A106  A(49,45,50)           108.4286         calculate D2E/DX2 analytically  !
 ! A107  A(1,51,52)            136.803          calculate D2E/DX2 analytically  !
 ! A108  A(1,51,53)            103.175          calculate D2E/DX2 analytically  !
 ! A109  A(52,51,53)           116.8575         calculate D2E/DX2 analytically  !
 ! A110  A(51,52,54)           121.2663         calculate D2E/DX2 analytically  !
 ! A111  A(51,52,55)           121.7661         calculate D2E/DX2 analytically  !
 ! A112  A(54,52,55)           116.8883         calculate D2E/DX2 analytically  !
 ! A113  A(51,53,56)           121.6539         calculate D2E/DX2 analytically  !
 ! A114  A(51,53,57)           121.2527         calculate D2E/DX2 analytically  !
 ! A115  A(56,53,57)           117.04           calculate D2E/DX2 analytically  !
 ! A116  A(52,54,58)           121.0125         calculate D2E/DX2 analytically  !
 ! A117  A(52,54,59)           118.6644         calculate D2E/DX2 analytically  !
 ! A118  A(58,54,59)           120.3094         calculate D2E/DX2 analytically  !
 ! A119  A(53,56,58)           120.4801         calculate D2E/DX2 analytically  !
 ! A120  A(53,56,60)           118.8729         calculate D2E/DX2 analytically  !
 ! A121  A(58,56,60)           120.6467         calculate D2E/DX2 analytically  !
 ! A122  A(54,58,56)           118.6543         calculate D2E/DX2 analytically  !
 ! A123  A(54,58,61)           120.6639         calculate D2E/DX2 analytically  !
 ! A124  A(56,58,61)           120.6749         calculate D2E/DX2 analytically  !
 ! D1    D(11,1,2,3)           156.1006         calculate D2E/DX2 analytically  !
 ! D2    D(11,1,2,4)             7.7831         calculate D2E/DX2 analytically  !
 ! D3    D(12,1,2,3)            -1.4699         calculate D2E/DX2 analytically  !
 ! D4    D(12,1,2,4)          -149.7874         calculate D2E/DX2 analytically  !
 ! D5    D(13,1,2,3)            72.9995         calculate D2E/DX2 analytically  !
 ! D6    D(13,1,2,4)           -75.318          calculate D2E/DX2 analytically  !
 ! D7    D(51,1,2,3)          -102.5069         calculate D2E/DX2 analytically  !
 ! D8    D(51,1,2,4)           109.1756         calculate D2E/DX2 analytically  !
 ! D9    D(2,1,11,20)           11.5822         calculate D2E/DX2 analytically  !
 ! D10   D(2,1,11,23)          132.6396         calculate D2E/DX2 analytically  !
 ! D11   D(2,1,11,30)         -105.1298         calculate D2E/DX2 analytically  !
 ! D12   D(12,1,11,20)          66.2484         calculate D2E/DX2 analytically  !
 ! D13   D(12,1,11,23)        -172.6942         calculate D2E/DX2 analytically  !
 ! D14   D(12,1,11,30)         -50.4636         calculate D2E/DX2 analytically  !
 ! D15   D(13,1,11,20)         166.5159         calculate D2E/DX2 analytically  !
 ! D16   D(13,1,11,23)         -72.4267         calculate D2E/DX2 analytically  !
 ! D17   D(13,1,11,30)          49.804          calculate D2E/DX2 analytically  !
 ! D18   D(51,1,11,20)         -45.8059         calculate D2E/DX2 analytically  !
 ! D19   D(51,1,11,23)          75.2515         calculate D2E/DX2 analytically  !
 ! D20   D(51,1,11,30)        -162.5179         calculate D2E/DX2 analytically  !
 ! D21   D(2,1,12,17)          -20.7931         calculate D2E/DX2 analytically  !
 ! D22   D(2,1,12,37)           92.8295         calculate D2E/DX2 analytically  !
 ! D23   D(2,1,12,44)         -147.5486         calculate D2E/DX2 analytically  !
 ! D24   D(11,1,12,17)         -76.0089         calculate D2E/DX2 analytically  !
 ! D25   D(11,1,12,37)          37.6137         calculate D2E/DX2 analytically  !
 ! D26   D(11,1,12,44)         157.2356         calculate D2E/DX2 analytically  !
 ! D27   D(13,1,12,17)        -176.5359         calculate D2E/DX2 analytically  !
 ! D28   D(13,1,12,37)         -62.9134         calculate D2E/DX2 analytically  !
 ! D29   D(13,1,12,44)          56.7086         calculate D2E/DX2 analytically  !
 ! D30   D(51,1,12,17)          36.4481         calculate D2E/DX2 analytically  !
 ! D31   D(51,1,12,37)         150.0707         calculate D2E/DX2 analytically  !
 ! D32   D(51,1,12,44)         -90.3074         calculate D2E/DX2 analytically  !
 ! D33   D(2,1,13,14)         -110.3647         calculate D2E/DX2 analytically  !
 ! D34   D(2,1,13,15)          130.1266         calculate D2E/DX2 analytically  !
 ! D35   D(2,1,13,16)            9.9956         calculate D2E/DX2 analytically  !
 ! D36   D(11,1,13,14)         168.6863         calculate D2E/DX2 analytically  !
 ! D37   D(11,1,13,15)          49.1776         calculate D2E/DX2 analytically  !
 ! D38   D(11,1,13,16)         -70.9534         calculate D2E/DX2 analytically  !
 ! D39   D(12,1,13,14)         -38.3363         calculate D2E/DX2 analytically  !
 ! D40   D(12,1,13,15)        -157.845          calculate D2E/DX2 analytically  !
 ! D41   D(12,1,13,16)          82.0239         calculate D2E/DX2 analytically  !
 ! D42   D(51,1,13,14)          62.6835         calculate D2E/DX2 analytically  !
 ! D43   D(51,1,13,15)         -56.8251         calculate D2E/DX2 analytically  !
 ! D44   D(51,1,13,16)        -176.9562         calculate D2E/DX2 analytically  !
 ! D45   D(2,1,51,52)          -67.3598         calculate D2E/DX2 analytically  !
 ! D46   D(2,1,51,53)          134.6468         calculate D2E/DX2 analytically  !
 ! D47   D(11,1,51,52)          11.0042         calculate D2E/DX2 analytically  !
 ! D48   D(11,1,51,53)        -146.9892         calculate D2E/DX2 analytically  !
 ! D49   D(12,1,51,52)        -143.5943         calculate D2E/DX2 analytically  !
 ! D50   D(12,1,51,53)          58.4123         calculate D2E/DX2 analytically  !
 ! D51   D(13,1,51,52)         116.1016         calculate D2E/DX2 analytically  !
 ! D52   D(13,1,51,53)         -41.8918         calculate D2E/DX2 analytically  !
 ! D53   D(1,2,3,5)           -148.8242         calculate D2E/DX2 analytically  !
 ! D54   D(1,2,3,17)            25.2624         calculate D2E/DX2 analytically  !
 ! D55   D(4,2,3,5)             -4.5513         calculate D2E/DX2 analytically  !
 ! D56   D(4,2,3,17)           169.5352         calculate D2E/DX2 analytically  !
 ! D57   D(1,2,4,6)            149.2256         calculate D2E/DX2 analytically  !
 ! D58   D(1,2,4,20)           -27.3647         calculate D2E/DX2 analytically  !
 ! D59   D(3,2,4,6)              4.0271         calculate D2E/DX2 analytically  !
 ! D60   D(3,2,4,20)          -172.5632         calculate D2E/DX2 analytically  !
 ! D61   D(2,3,5,7)              1.1088         calculate D2E/DX2 analytically  !
 ! D62   D(2,3,5,8)            179.166          calculate D2E/DX2 analytically  !
 ! D63   D(17,3,5,7)          -172.1619         calculate D2E/DX2 analytically  !
 ! D64   D(17,3,5,8)             5.8953         calculate D2E/DX2 analytically  !
 ! D65   D(2,3,17,12)          -43.8791         calculate D2E/DX2 analytically  !
 ! D66   D(2,3,17,18)           74.0465         calculate D2E/DX2 analytically  !
 ! D67   D(2,3,17,19)         -166.4028         calculate D2E/DX2 analytically  !
 ! D68   D(5,3,17,12)          129.5743         calculate D2E/DX2 analytically  !
 ! D69   D(5,3,17,18)         -112.5            calculate D2E/DX2 analytically  !
 ! D70   D(5,3,17,19)            7.0506         calculate D2E/DX2 analytically  !
 ! D71   D(2,4,6,7)             -0.0811         calculate D2E/DX2 analytically  !
 ! D72   D(2,4,6,9)           -178.3766         calculate D2E/DX2 analytically  !
 ! D73   D(20,4,6,7)           176.1691         calculate D2E/DX2 analytically  !
 ! D74   D(20,4,6,9)            -2.1264         calculate D2E/DX2 analytically  !
 ! D75   D(2,4,20,11)           38.1894         calculate D2E/DX2 analytically  !
 ! D76   D(2,4,20,21)          -80.3708         calculate D2E/DX2 analytically  !
 ! D77   D(2,4,20,22)          161.5398         calculate D2E/DX2 analytically  !
 ! D78   D(6,4,20,11)         -138.0842         calculate D2E/DX2 analytically  !
 ! D79   D(6,4,20,21)          103.3556         calculate D2E/DX2 analytically  !
 ! D80   D(6,4,20,22)          -14.7339         calculate D2E/DX2 analytically  !
 ! D81   D(3,5,7,6)              2.6466         calculate D2E/DX2 analytically  !
 ! D82   D(3,5,7,10)           179.7875         calculate D2E/DX2 analytically  !
 ! D83   D(8,5,7,6)           -175.4084         calculate D2E/DX2 analytically  !
 ! D84   D(8,5,7,10)             1.7325         calculate D2E/DX2 analytically  !
 ! D85   D(4,6,7,5)             -3.1765         calculate D2E/DX2 analytically  !
 ! D86   D(4,6,7,10)           179.6797         calculate D2E/DX2 analytically  !
 ! D87   D(9,6,7,5)            175.117          calculate D2E/DX2 analytically  !
 ! D88   D(9,6,7,10)            -2.0267         calculate D2E/DX2 analytically  !
 ! D89   D(1,11,20,4)          -27.6847         calculate D2E/DX2 analytically  !
 ! D90   D(1,11,20,21)          94.0214         calculate D2E/DX2 analytically  !
 ! D91   D(1,11,20,22)        -151.6615         calculate D2E/DX2 analytically  !
 ! D92   D(23,11,20,4)        -148.7905         calculate D2E/DX2 analytically  !
 ! D93   D(23,11,20,21)        -27.0845         calculate D2E/DX2 analytically  !
 ! D94   D(23,11,20,22)         87.2326         calculate D2E/DX2 analytically  !
 ! D95   D(30,11,20,4)          85.1385         calculate D2E/DX2 analytically  !
 ! D96   D(30,11,20,21)       -153.1554         calculate D2E/DX2 analytically  !
 ! D97   D(30,11,20,22)        -38.8384         calculate D2E/DX2 analytically  !
 ! D98   D(1,11,23,24)         179.7595         calculate D2E/DX2 analytically  !
 ! D99   D(1,11,23,25)          56.1561         calculate D2E/DX2 analytically  !
 ! D100  D(1,11,23,26)         -57.2238         calculate D2E/DX2 analytically  !
 ! D101  D(20,11,23,24)        -62.1895         calculate D2E/DX2 analytically  !
 ! D102  D(20,11,23,25)        174.2071         calculate D2E/DX2 analytically  !
 ! D103  D(20,11,23,26)         60.8272         calculate D2E/DX2 analytically  !
 ! D104  D(30,11,23,24)         62.4446         calculate D2E/DX2 analytically  !
 ! D105  D(30,11,23,25)        -61.1588         calculate D2E/DX2 analytically  !
 ! D106  D(30,11,23,26)       -174.5387         calculate D2E/DX2 analytically  !
 ! D107  D(1,11,30,31)         154.05           calculate D2E/DX2 analytically  !
 ! D108  D(1,11,30,32)          32.7822         calculate D2E/DX2 analytically  !
 ! D109  D(1,11,30,33)         -81.1695         calculate D2E/DX2 analytically  !
 ! D110  D(20,11,30,31)         40.2808         calculate D2E/DX2 analytically  !
 ! D111  D(20,11,30,32)        -80.987          calculate D2E/DX2 analytically  !
 ! D112  D(20,11,30,33)        165.0613         calculate D2E/DX2 analytically  !
 ! D113  D(23,11,30,31)        -84.8091         calculate D2E/DX2 analytically  !
 ! D114  D(23,11,30,32)        153.9231         calculate D2E/DX2 analytically  !
 ! D115  D(23,11,30,33)         39.9714         calculate D2E/DX2 analytically  !
 ! D116  D(1,12,17,3)           38.2264         calculate D2E/DX2 analytically  !
 ! D117  D(1,12,17,18)         -81.2557         calculate D2E/DX2 analytically  !
 ! D118  D(1,12,17,19)         161.8501         calculate D2E/DX2 analytically  !
 ! D119  D(37,12,17,3)         -70.8437         calculate D2E/DX2 analytically  !
 ! D120  D(37,12,17,18)        169.6742         calculate D2E/DX2 analytically  !
 ! D121  D(37,12,17,19)         52.78           calculate D2E/DX2 analytically  !
 ! D122  D(44,12,17,3)         166.9038         calculate D2E/DX2 analytically  !
 ! D123  D(44,12,17,18)         47.4217         calculate D2E/DX2 analytically  !
 ! D124  D(44,12,17,19)        -69.4725         calculate D2E/DX2 analytically  !
 ! D125  D(1,12,37,38)        -176.1413         calculate D2E/DX2 analytically  !
 ! D126  D(1,12,37,39)          61.2001         calculate D2E/DX2 analytically  !
 ! D127  D(1,12,37,40)         -53.1156         calculate D2E/DX2 analytically  !
 ! D128  D(17,12,37,38)        -65.5104         calculate D2E/DX2 analytically  !
 ! D129  D(17,12,37,39)        171.831          calculate D2E/DX2 analytically  !
 ! D130  D(17,12,37,40)         57.5152         calculate D2E/DX2 analytically  !
 ! D131  D(44,12,37,38)         59.2396         calculate D2E/DX2 analytically  !
 ! D132  D(44,12,37,39)        -63.419          calculate D2E/DX2 analytically  !
 ! D133  D(44,12,37,40)       -177.7348         calculate D2E/DX2 analytically  !
 ! D134  D(1,12,44,45)         146.2945         calculate D2E/DX2 analytically  !
 ! D135  D(1,12,44,46)          22.4617         calculate D2E/DX2 analytically  !
 ! D136  D(1,12,44,47)         -90.4244         calculate D2E/DX2 analytically  !
 ! D137  D(17,12,44,45)         24.025          calculate D2E/DX2 analytically  !
 ! D138  D(17,12,44,46)        -99.8077         calculate D2E/DX2 analytically  !
 ! D139  D(17,12,44,47)        147.3061         calculate D2E/DX2 analytically  !
 ! D140  D(37,12,44,45)        -97.8818         calculate D2E/DX2 analytically  !
 ! D141  D(37,12,44,46)        138.2855         calculate D2E/DX2 analytically  !
 ! D142  D(37,12,44,47)         25.3993         calculate D2E/DX2 analytically  !
 ! D143  D(11,23,24,27)        171.9308         calculate D2E/DX2 analytically  !
 ! D144  D(11,23,24,28)        -69.9246         calculate D2E/DX2 analytically  !
 ! D145  D(11,23,24,29)         53.5377         calculate D2E/DX2 analytically  !
 ! D146  D(25,23,24,27)        -66.4294         calculate D2E/DX2 analytically  !
 ! D147  D(25,23,24,28)         51.7152         calculate D2E/DX2 analytically  !
 ! D148  D(25,23,24,29)        175.1774         calculate D2E/DX2 analytically  !
 ! D149  D(26,23,24,27)         51.3401         calculate D2E/DX2 analytically  !
 ! D150  D(26,23,24,28)        169.4847         calculate D2E/DX2 analytically  !
 ! D151  D(26,23,24,29)        -67.053          calculate D2E/DX2 analytically  !
 ! D152  D(11,30,31,34)        170.7214         calculate D2E/DX2 analytically  !
 ! D153  D(11,30,31,35)        -72.4807         calculate D2E/DX2 analytically  !
 ! D154  D(11,30,31,36)         51.7171         calculate D2E/DX2 analytically  !
 ! D155  D(32,30,31,34)        -68.3546         calculate D2E/DX2 analytically  !
 ! D156  D(32,30,31,35)         48.4433         calculate D2E/DX2 analytically  !
 ! D157  D(32,30,31,36)        172.641          calculate D2E/DX2 analytically  !
 ! D158  D(33,30,31,34)         48.3857         calculate D2E/DX2 analytically  !
 ! D159  D(33,30,31,35)        165.1836         calculate D2E/DX2 analytically  !
 ! D160  D(33,30,31,36)        -70.6187         calculate D2E/DX2 analytically  !
 ! D161  D(12,37,38,41)        179.3912         calculate D2E/DX2 analytically  !
 ! D162  D(12,37,38,42)        -62.6581         calculate D2E/DX2 analytically  !
 ! D163  D(12,37,38,43)         61.412          calculate D2E/DX2 analytically  !
 ! D164  D(39,37,38,41)        -59.6968         calculate D2E/DX2 analytically  !
 ! D165  D(39,37,38,42)         58.2539         calculate D2E/DX2 analytically  !
 ! D166  D(39,37,38,43)       -177.676          calculate D2E/DX2 analytically  !
 ! D167  D(40,37,38,41)         57.7627         calculate D2E/DX2 analytically  !
 ! D168  D(40,37,38,42)        175.7133         calculate D2E/DX2 analytically  !
 ! D169  D(40,37,38,43)        -60.2166         calculate D2E/DX2 analytically  !
 ! D170  D(12,44,45,48)        174.2008         calculate D2E/DX2 analytically  !
 ! D171  D(12,44,45,49)        -67.9799         calculate D2E/DX2 analytically  !
 ! D172  D(12,44,45,50)         55.3284         calculate D2E/DX2 analytically  !
 ! D173  D(46,44,45,48)        -62.4439         calculate D2E/DX2 analytically  !
 ! D174  D(46,44,45,49)         55.3755         calculate D2E/DX2 analytically  !
 ! D175  D(46,44,45,50)        178.6838         calculate D2E/DX2 analytically  !
 ! D176  D(47,44,45,48)         53.0247         calculate D2E/DX2 analytically  !
 ! D177  D(47,44,45,49)        170.8441         calculate D2E/DX2 analytically  !
 ! D178  D(47,44,45,50)        -65.8476         calculate D2E/DX2 analytically  !
 ! D179  D(1,51,52,54)        -152.8338         calculate D2E/DX2 analytically  !
 ! D180  D(1,51,52,55)          30.5053         calculate D2E/DX2 analytically  !
 ! D181  D(53,51,52,54)          3.0265         calculate D2E/DX2 analytically  !
 ! D182  D(53,51,52,55)       -173.6344         calculate D2E/DX2 analytically  !
 ! D183  D(1,51,53,56)         160.2139         calculate D2E/DX2 analytically  !
 ! D184  D(1,51,53,57)         -17.0492         calculate D2E/DX2 analytically  !
 ! D185  D(52,51,53,56)         -3.0773         calculate D2E/DX2 analytically  !
 ! D186  D(52,51,53,57)        179.6596         calculate D2E/DX2 analytically  !
 ! D187  D(51,52,54,58)         -1.2431         calculate D2E/DX2 analytically  !
 ! D188  D(51,52,54,59)       -179.8988         calculate D2E/DX2 analytically  !
 ! D189  D(55,52,54,58)        175.574          calculate D2E/DX2 analytically  !
 ! D190  D(55,52,54,59)         -3.0817         calculate D2E/DX2 analytically  !
 ! D191  D(51,53,56,58)          1.3232         calculate D2E/DX2 analytically  !
 ! D192  D(51,53,56,60)       -178.5224         calculate D2E/DX2 analytically  !
 ! D193  D(57,53,56,58)        178.6964         calculate D2E/DX2 analytically  !
 ! D194  D(57,53,56,60)         -1.1492         calculate D2E/DX2 analytically  !
 ! D195  D(52,54,58,56)         -0.6364         calculate D2E/DX2 analytically  !
 ! D196  D(52,54,58,61)       -179.6804         calculate D2E/DX2 analytically  !
 ! D197  D(59,54,58,56)        177.9973         calculate D2E/DX2 analytically  !
 ! D198  D(59,54,58,61)         -1.0467         calculate D2E/DX2 analytically  !
 ! D199  D(53,56,58,54)          0.5951         calculate D2E/DX2 analytically  !
 ! D200  D(53,56,58,61)        179.6389         calculate D2E/DX2 analytically  !
 ! D201  D(60,56,58,54)       -179.5621         calculate D2E/DX2 analytically  !
 ! D202  D(60,56,58,61)         -0.5182         calculate D2E/DX2 analytically  !
 --------------------------------------------------------------------------------
 Trust Radius=3.00D-01 FncErr=1.00D-07 GrdErr=1.00D-06 EigMax=2.50D+02 EigMin=1.00D-04
 Number of steps in this run=    366 maximum allowed number of steps=    366.
 Search for a saddle point of order  1.
 GradGradGradGradGradGradGradGradGradGradGradGradGradGradGradGradGradGrad

 Stoichiometry    C23H35N2Pt(1+)
 Framework group  C1[X(C23H35N2Pt)]
 Deg. of freedom   177
 Full point group                 C1      NOp   1
 Largest Abelian subgroup         C1      NOp   1
 Largest concise Abelian subgroup C1      NOp   1
                         Standard orientation:                         
 ---------------------------------------------------------------------
 Center     Atomic      Atomic             Coordinates (Angstroms)
 Number     Number       Type             X           Y           Z
 ---------------------------------------------------------------------
      1         78           0       -0.039772   -0.182813   -0.705939
      2          6           0       -0.010967    0.052907    1.308617
      3          6           0        1.195751   -0.240838    1.917517
      4          6           0       -1.248247   -0.212001    1.885346
      5          6           0        1.165803   -0.742633    3.210676
      6          6           0       -1.256377   -0.723585    3.173447
      7          6           0       -0.055504   -0.954755    3.839065
      8          1           0        2.093012   -0.998210    3.717507
      9          1           0       -2.200677   -0.970185    3.653106
     10          1           0       -0.074505   -1.350387    4.848654
     11          7           0       -2.190840   -0.415404   -0.394106
     12          7           0        2.080938   -0.721477   -0.308737
     13          6           0       -0.064061   -1.291685   -2.487515
     14          1           0        0.893070   -1.183775   -3.007757
     15          1           0       -0.859894   -0.930806   -3.147953
     16          1           0       -0.236350   -2.356571   -2.302002
     17          6           0        2.391450   -0.103412    1.034159
     18          1           0        2.619387    0.953306    0.869235
     19          1           0        3.281775   -0.564544    1.468850
     20          6           0       -2.455641    0.009131    1.023988
     21          1           0       -2.734331    1.063878    0.983058
     22          1           0       -3.328023   -0.513770    1.419274
     23          6           0       -2.972068    0.415957   -1.361925
     24          6           0       -4.479021    0.350867   -1.267709
     25          1           0       -2.644100    0.114937   -2.360085
     26          1           0       -2.628073    1.444015   -1.209183
     27          1           0       -4.894298    1.112203   -1.932577
     28          1           0       -4.874610   -0.613088   -1.593175
     29          1           0       -4.846309    0.563139   -0.260011
     30          6           0       -2.442305   -1.897416   -0.554538
     31          6           0       -3.640712   -2.499009    0.153346
     32          1           0       -1.549881   -2.412445   -0.187704
     33          1           0       -2.497233   -2.076880   -1.630427
     34          1           0       -3.750781   -3.523355   -0.212066
     35          1           0       -3.489890   -2.564873    1.234152
     36          1           0       -4.581384   -1.981164   -0.035775
     37          6           0        2.013114   -2.218228   -0.151338
     38          6           0        3.302017   -2.916062    0.224549
     39          1           0        1.644472   -2.611621   -1.100430
     40          1           0        1.248786   -2.425873    0.603042
     41          1           0        3.087947   -3.984245    0.310351
     42          1           0        4.079953   -2.803638   -0.534262
     43          1           0        3.700023   -2.591930    1.189373
     44          6           0        3.082294   -0.374153   -1.379996
     45          6           0        4.470603    0.017018   -0.922714
     46          1           0        2.665640    0.429649   -1.989809
     47          1           0        3.134742   -1.244745   -2.038559
     48          1           0        5.095955    0.134409   -1.811031
     49          1           0        4.479996    0.973470   -0.394661
     50          1           0        4.942755   -0.733392   -0.285899
     51          6           0        0.116593    1.792097    0.201229
     52          6           0       -0.699180    2.628646    0.963600
     53          6           0        1.132223    2.405053   -0.541910
     54          6           0       -0.547047    4.005853    0.931592
     55          1           0       -1.439992    2.234726    1.643705
     56          6           0        1.281203    3.783845   -0.572264
     57          1           0        1.809717    1.823225   -1.153895
     58          6           0        0.437436    4.596189    0.160491
     59          1           0       -1.203788    4.616582    1.543057
     60          1           0        2.069529    4.212504   -1.182906
     61          1           0        0.554755    5.674331    0.143651
 ---------------------------------------------------------------------
 Rotational constants (GHZ):           0.2204179           0.1810652           0.1596851
 General basis read from cards:  (5D, 7F)
 ======================================================================================================
                                       Pseudopotential Parameters
 ======================================================================================================
  Center     Atomic      Valence      Angular      Power
  Number     Number     Electrons     Momentum     of R      Exponent        Coefficient   SO-Coeffient
 ======================================================================================================
    1         78           18
                                      G and up 
                                                     1      728.9394056       -0.16192680    0.00000000
                                                     2      320.6567800    -1320.28738520    0.00000000
                                                     2       52.8680174     -298.31781350    0.00000000
                                                     2       12.0280128      -87.58370650    0.00000000
                                                     2        3.5238913       -8.14932740    0.00000000
                                      S - G
                                                     0      409.4437358        2.73342180    0.00000000
                                                     1      274.5419231       59.70243290    0.00000000
                                                     2      127.5658570      891.45895500    0.00000000
                                                     2       32.9036631      368.44676560    0.00000000
                                                     2        5.0593880      238.02630900    0.00000000
                                                     2        4.1506556     -107.05564540    0.00000000
                                      P - G
                                                     0      466.1728892        1.88785680    0.00000000
                                                     1      120.7888259       76.01386290    0.00000000
                                                     2       36.4118791      343.55111160    0.00000000
                                                     2        5.6985408      119.49117860    0.00000000
                                      D - G
                                                     0      249.5650763        2.93436780    0.00000000
                                                     1      126.6678585       59.33065710    0.00000000
                                                     2       63.1430586      452.44451940    0.00000000
                                                     2       17.9059470      210.47694790    0.00000000
                                                     2        4.2239373       58.62541120    0.00000000
                                      F - G
                                                     0      121.8158799        3.95342530    0.00000000
                                                     1       60.8757030       53.85551820    0.00000000
                                                     2       31.4767147      247.43051330    0.00000000
                                                     2        9.8811751      127.81879760    0.00000000
                                                     2        2.7319874       15.37720460    0.00000000
    2          6
                                   No pseudopotential on this center.
    3          6
                                   No pseudopotential on this center.
    4          6
                                   No pseudopotential on this center.
    5          6
                                   No pseudopotential on this center.
    6          6
                                   No pseudopotential on this center.
    7          6
                                   No pseudopotential on this center.
    8          1
                                   No pseudopotential on this center.
    9          1
                                   No pseudopotential on this center.
   10          1
                                   No pseudopotential on this center.
   11          7
                                   No pseudopotential on this center.
   12          7
                                   No pseudopotential on this center.
   13          6
                                   No pseudopotential on this center.
   14          1
                                   No pseudopotential on this center.
   15          1
                                   No pseudopotential on this center.
   16          1
                                   No pseudopotential on this center.
   17          6
                                   No pseudopotential on this center.
   18          1
                                   No pseudopotential on this center.
   19          1
                                   No pseudopotential on this center.
   20          6
                                   No pseudopotential on this center.
   21          1
                                   No pseudopotential on this center.
   22          1
                                   No pseudopotential on this center.
   23          6
                                   No pseudopotential on this center.
   24          6
                                   No pseudopotential on this center.
   25          1
                                   No pseudopotential on this center.
   26          1
                                   No pseudopotential on this center.
   27          1
                                   No pseudopotential on this center.
   28          1
                                   No pseudopotential on this center.
   29          1
                                   No pseudopotential on this center.
   30          6
                                   No pseudopotential on this center.
   31          6
                                   No pseudopotential on this center.
   32          1
                                   No pseudopotential on this center.
   33          1
                                   No pseudopotential on this center.
   34          1
                                   No pseudopotential on this center.
   35          1
                                   No pseudopotential on this center.
   36          1
                                   No pseudopotential on this center.
   37          6
                                   No pseudopotential on this center.
   38          6
                                   No pseudopotential on this center.
   39          1
                                   No pseudopotential on this center.
   40          1
                                   No pseudopotential on this center.
   41          1
                                   No pseudopotential on this center.
   42          1
                                   No pseudopotential on this center.
   43          1
                                   No pseudopotential on this center.
   44          6
                                   No pseudopotential on this center.
   45          6
                                   No pseudopotential on this center.
   46          1
                                   No pseudopotential on this center.
   47          1
                                   No pseudopotential on this center.
   48          1
                                   No pseudopotential on this center.
   49          1
                                   No pseudopotential on this center.
   50          1
                                   No pseudopotential on this center.
   51          6
                                   No pseudopotential on this center.
   52          6
                                   No pseudopotential on this center.
   53          6
                                   No pseudopotential on this center.
   54          6
                                   No pseudopotential on this center.
   55          1
                                   No pseudopotential on this center.
   56          6
                                   No pseudopotential on this center.
   57          1
                                   No pseudopotential on this center.
   58          6
                                   No pseudopotential on this center.
   59          1
                                   No pseudopotential on this center.
   60          1
                                   No pseudopotential on this center.
   61          1
                                   No pseudopotential on this center.
 ======================================================================================================
 There are   883 symmetry adapted cartesian basis functions of A   symmetry.
 There are   827 symmetry adapted basis functions of A   symmetry.
   827 basis functions,  1278 primitive gaussians,   883 cartesian basis functions
   102 alpha electrons      102 beta electrons
       nuclear repulsion energy      2914.2628064912 Hartrees.
 NAtoms=   61 NActive=   61 NUniq=   61 SFac= 1.00D+00 NAtFMM=   60 NAOKFM=T Big=T
 Integral buffers will be    131072 words long.
 Raffenetti 2 integral format.
 Two-electron integral symmetry is turned on.
 Nuclear repulsion after empirical dispersion term =     2914.2449756089 Hartrees.
 Force inversion solution in PCM.
 ------------------------------------------------------------------------------
 Polarizable Continuum Model (PCM)
 =================================
 Model                : PCM.
 Atomic radii         : UFF (Universal Force Field).
 Polarization charges : Total charges.
 Charge compensation  : None.
 Solution method      : Matrix inversion.
 Cavity type          : Scaled VdW (van der Waals Surface) (Alpha=1.100).
 Cavity algorithm     : GePol (No added spheres)
                        Default sphere list used, NSphG=   61.
                        Lebedev-Laikov grids with approx.  5.0 points / Ang**2.
                        Smoothing algorithm: York/Karplus (Gamma=1.0000).
                        Polarization charges: spherical gaussians, with
                                              point-specific exponents (IZeta= 3).
                        Self-potential: point-specific (ISelfS= 7).
                        Self-field    : sphere-specific E.n sum rule (ISelfD= 2).
 1st derivatives      : Analytical E(r).r(x)/FMM algorithm (CHGder, D1EAlg=3).
                        Cavity 1st derivative terms included.
 2nd derivatives      : Analytical E(r).r(xy)/FMM algorithm (CHGder, D2EAlg=3).
                        Cavity 2nd derivative terms included.
 Solvent              : TetraHydroFuran, Eps=   7.425700 Eps(inf)=   1.974025
 ------------------------------------------------------------------------------
 One-electron integrals computed using PRISM.
   1 Symmetry operations used in ECPInt.
 ECPInt:  NShTT=   46360 NPrTT=  151530 LenC2=   40332 LenP2D=   87170.
 LDataN:  DoStor=T MaxTD1= 7 Len=  274
 Number of processors reduced to  21 by ecpmxn.
 NBasis=   827 RedAO= T EigKep=  3.46D-05  NBF=   827
 NBsUse=   827 1.00D-06 EigRej= -1.00D+00 NBFU=   827
 Defaulting to unpruned grid for atomic number  78.
 ExpMin= 2.90D-02 ExpMax= 6.29D+03 ExpMxC= 9.49D+02 IAcc=3 IRadAn=         5 AccDes= 0.00D+00
 Harris functional with IExCor= 1009 and IRadAn=       5 diagonalized for initial guess.
 HarFok:  IExCor= 1009 AccDes= 0.00D+00 IRadAn=         5 IDoV= 1 UseB2=F ITyADJ=14
 ICtDFT=  3500011 ScaDFX=  1.000000  1.000000  1.000000  1.000000
 Defaulting to unpruned grid for atomic number  78.
 FoFCou: FMM=F IPFlag=           0 FMFlag=      100000 FMFlg1=        2001
         NFxFlg=           0 DoJE=T BraDBF=F KetDBF=T FulRan=T
         wScrn=  0.000000 ICntrl=       500 IOpCl=  0 I1Cent=   200000004 NGrid=           0
         NMat0=    1 NMatS0=      1 NMatT0=    0 NMatD0=    1 NMtDS0=    0 NMtDT0=    0
 Petite list used in FoFCou.
 Requested convergence on RMS density matrix=1.00D-08 within 128 cycles.
 Requested convergence on MAX density matrix=1.00D-06.
 Requested convergence on             energy=1.00D-06.
 No special actions if energy rises.
 Defaulting to unpruned grid for atomic number  78.
 Defaulting to unpruned grid for atomic number  78.
 Defaulting to unpruned grid for atomic number  78.
 Defaulting to unpruned grid for atomic number  78.
 Defaulting to unpruned grid for atomic number  78.
 Defaulting to unpruned grid for atomic number  78.
 Defaulting to unpruned grid for atomic number  78.
 Defaulting to unpruned grid for atomic number  78.
 Defaulting to unpruned grid for atomic number  78.
 Defaulting to unpruned grid for atomic number  78.
 Defaulting to unpruned grid for atomic number  78.
 Defaulting to unpruned grid for atomic number  78.
 Defaulting to unpruned grid for atomic number  78.
 Defaulting to unpruned grid for atomic number  78.
 Defaulting to unpruned grid for atomic number  78.
 Defaulting to unpruned grid for atomic number  78.
 Defaulting to unpruned grid for atomic number  78.
 Defaulting to unpruned grid for atomic number  78.
 Defaulting to unpruned grid for atomic number  78.
 Defaulting to unpruned grid for atomic number  78.
 Defaulting to unpruned grid for atomic number  78.
 Defaulting to unpruned grid for atomic number  78.
 Defaulting to unpruned grid for atomic number  78.
 Defaulting to unpruned grid for atomic number  78.
 Inv3:  Mode=1 IEnd=    36939243.
 Iteration    1 A*A^-1 deviation from unit magnitude is 3.22D-15 for   2809.
 Iteration    1 A*A^-1 deviation from orthogonality  is 1.89D-15 for   3184    636.
 Iteration    1 A^-1*A deviation from unit magnitude is 3.22D-15 for   2074.
 Iteration    1 A^-1*A deviation from orthogonality  is 2.33D-15 for   2805    566.
 Error on total polarization charges =  0.02178
 SCF Done:  E(RM06) =  -1125.44637572     A.U. after   16 cycles
            NFock= 16  Conv=0.45D-08     -V/T= 2.0824
 DoSCS=F DFT=T ScalE2(SS,OS)=  1.000000  1.000000
 Range of M.O.s used for correlation:     1   827
 NBasis=   827 NAE=   102 NBE=   102 NFC=     0 NFV=     0
 NROrb=    827 NOA=   102 NOB=   102 NVA=   725 NVB=   725

 **** Warning!!: The largest alpha MO coefficient is  0.23478942D+02

 PrsmSu:  requested number of processors reduced to:   6 ShMem   1 Linda.
   1 Symmetry operations used in ECPInt.
 ECPInt:  NShTT=   46360 NPrTT=  151530 LenC2=   40332 LenP2D=   87170.
 LDataN:  DoStor=T MaxTD1= 8 Len=  415
 Number of processors reduced to   2 by ecpmxn.
 Symmetrizing basis deriv contribution to polar:
 IMax=3 JMax=2 DiffMx= 0.00D+00
 G2DrvN: will do    13 centers at a time, making    5 passes.
 Calling FoFCou, ICntrl=  3107 FMM=T I1Cent=   0 AccDes= 0.00D+00.
 Defaulting to unpruned grid for atomic number  78.
 Defaulting to unpruned grid for atomic number  78.
 Defaulting to unpruned grid for atomic number  78.
 Defaulting to unpruned grid for atomic number  78.
 Defaulting to unpruned grid for atomic number  78.
 Defaulting to unpruned grid for atomic number  78.
 Defaulting to unpruned grid for atomic number  78.
 Defaulting to unpruned grid for atomic number  78.
 Defaulting to unpruned grid for atomic number  78.
 Defaulting to unpruned grid for atomic number  78.
 Defaulting to unpruned grid for atomic number  78.
 Defaulting to unpruned grid for atomic number  78.
 Defaulting to unpruned grid for atomic number  78.
 Defaulting to unpruned grid for atomic number  78.
 Defaulting to unpruned grid for atomic number  78.
 Defaulting to unpruned grid for atomic number  78.
 Defaulting to unpruned grid for atomic number  78.
 Defaulting to unpruned grid for atomic number  78.
 Defaulting to unpruned grid for atomic number  78.
 Defaulting to unpruned grid for atomic number  78.
 Defaulting to unpruned grid for atomic number  78.
 Defaulting to unpruned grid for atomic number  78.
 Defaulting to unpruned grid for atomic number  78.
 Defaulting to unpruned grid for atomic number  78.
 Calling FoFCou, ICntrl=  3107 FMM=T I1Cent=   0 AccDes= 0.00D+00.
 Calling FoFCou, ICntrl=  3107 FMM=T I1Cent=   0 AccDes= 0.00D+00.
 Calling FoFCou, ICntrl=  3107 FMM=T I1Cent=   0 AccDes= 0.00D+00.
 Calling FoFCou, ICntrl=  3107 FMM=T I1Cent=   0 AccDes= 0.00D+00.
 NEqPCM:  Using equilibrium solvation (IEInf=0, Eps=   7.4257, EpsInf=   1.9740)
 G2PCM: DoFxE=T DoFxN=T DoGrad=T DoDP/DQ/DG/TGxP=FFFF NFrqRd=   0 IEInf=0 SqF1=F DoCFld=F IF1Alg=4.
 CoulSu:  requested number of processors reduced to:  22 ShMem   1 Linda.
 CoulSu:  requested number of processors reduced to:  23 ShMem   1 Linda.
 CoulSu:  requested number of processors reduced to:  22 ShMem   1 Linda.
 CoulSu:  requested number of processors reduced to:  23 ShMem   1 Linda.
 CoulSu:  requested number of processors reduced to:  22 ShMem   1 Linda.
 CoulSu:  requested number of processors reduced to:  23 ShMem   1 Linda.
 CoulSu:  requested number of processors reduced to:  22 ShMem   1 Linda.
 CoulSu:  requested number of processors reduced to:  23 ShMem   1 Linda.
 End of G2Drv F.D. properties file   721 does not exist.
 End of G2Drv F.D. properties file   722 does not exist.
 End of G2Drv F.D. properties file   788 does not exist.
          IDoAtm=11111111111111111111111111111111111111111111111111
          IDoAtm=11111111111
 NEqPCM:  Using equilibrium solvation (IEInf=0, Eps=   7.4257, EpsInf=   1.9740)
          Differentiating once with respect to nuclear coordinates.
 Defaulting to unpruned grid for atomic number  78.
 CalDSu exits because no D1Ps are significant.
 Defaulting to unpruned grid for atomic number  78.
 Defaulting to unpruned grid for atomic number  78.
 Defaulting to unpruned grid for atomic number  78.
 Defaulting to unpruned grid for atomic number  78.
 Defaulting to unpruned grid for atomic number  78.
 Defaulting to unpruned grid for atomic number  78.
 Defaulting to unpruned grid for atomic number  78.
 Defaulting to unpruned grid for atomic number  78.
 Defaulting to unpruned grid for atomic number  78.
 Defaulting to unpruned grid for atomic number  78.
 Defaulting to unpruned grid for atomic number  78.
 Defaulting to unpruned grid for atomic number  78.
 Defaulting to unpruned grid for atomic number  78.
 Defaulting to unpruned grid for atomic number  78.
 Defaulting to unpruned grid for atomic number  78.
 Defaulting to unpruned grid for atomic number  78.
 Defaulting to unpruned grid for atomic number  78.
 Defaulting to unpruned grid for atomic number  78.
 Defaulting to unpruned grid for atomic number  78.
 Defaulting to unpruned grid for atomic number  78.
 Defaulting to unpruned grid for atomic number  78.
 Defaulting to unpruned grid for atomic number  78.
 Defaulting to unpruned grid for atomic number  78.
 Defaulting to unpruned grid for atomic number  78.
          There are   186 degrees of freedom in the 1st order CPHF.  IDoFFX=6 NUNeed=     0.
    180 vectors produced by pass  0 Test12= 7.40D-14 1.00D-09 XBig12= 1.73D-01 1.64D-01.
 AX will form    21 AO Fock derivatives at one time.
    180 vectors produced by pass  1 Test12= 7.40D-14 1.00D-09 XBig12= 9.16D-02 7.44D-02.
    180 vectors produced by pass  2 Test12= 7.40D-14 1.00D-09 XBig12= 1.10D-03 6.28D-03.
    180 vectors produced by pass  3 Test12= 7.40D-14 1.00D-09 XBig12= 1.25D-05 2.83D-04.
    180 vectors produced by pass  4 Test12= 7.40D-14 1.00D-09 XBig12= 6.99D-08 1.81D-05.
    180 vectors produced by pass  5 Test12= 7.40D-14 1.00D-09 XBig12= 2.38D-10 9.85D-07.
     86 vectors produced by pass  6 Test12= 7.40D-14 1.00D-09 XBig12= 5.89D-13 5.79D-08.
      6 vectors produced by pass  7 Test12= 7.40D-14 1.00D-09 XBig12= 1.44D-15 2.72D-09.
 InvSVY:  IOpt=1 It=  1 EMax= 6.11D-16
 Solved reduced A of dimension  1172 with   186 vectors.
 End of Minotr F.D. properties file   721 does not exist.
 End of Minotr F.D. properties file   722 does not exist.
 End of Minotr F.D. properties file   788 does not exist.

 **********************************************************************

            Population analysis using the SCF Density.

 **********************************************************************

 Orbital symmetries:
       Occupied  (A) (A) (A) (A) (A) (A) (A) (A) (A) (A) (A) (A)
                 (A) (A) (A) (A) (A) (A) (A) (A) (A) (A) (A) (A)
                 (A) (A) (A) (A) (A) (A) (A) (A) (A) (A) (A) (A)
                 (A) (A) (A) (A) (A) (A) (A) (A) (A) (A) (A) (A)
                 (A) (A) (A) (A) (A) (A) (A) (A) (A) (A) (A) (A)
                 (A) (A) (A) (A) (A) (A) (A) (A) (A) (A) (A) (A)
                 (A) (A) (A) (A) (A) (A) (A) (A) (A) (A) (A) (A)
                 (A) (A) (A) (A) (A) (A) (A) (A) (A) (A) (A) (A)
                 (A) (A) (A) (A) (A) (A)
       Virtual   (A) (A) (A) (A) (A) (A) (A) (A) (A) (A) (A) (A)
                 (A) (A) (A) (A) (A) (A) (A) (A) (A) (A) (A) (A)
                 (A) (A) (A) (A) (A) (A) (A) (A) (A) (A) (A) (A)
                 (A) (A) (A) (A) (A) (A) (A) (A) (A) (A) (A) (A)
                 (A) (A) (A) (A) (A) (A) (A) (A) (A) (A) (A) (A)
                 (A) (A) (A) (A) (A) (A) (A) (A) (A) (A) (A) (A)
                 (A) (A) (A) (A) (A) (A) (A) (A) (A) (A) (A) (A)
                 (A) (A) (A) (A) (A) (A) (A) (A) (A) (A) (A) (A)
                 (A) (A) (A) (A) (A) (A) (A) (A) (A) (A) (A) (A)
                 (A) (A) (A) (A) (A) (A) (A) (A) (A) (A) (A) (A)
                 (A) (A) (A) (A) (A) (A) (A) (A) (A) (A) (A) (A)
                 (A) (A) (A) (A) (A) (A) (A) (A) (A) (A) (A) (A)
                 (A) (A) (A) (A) (A) (A) (A) (A) (A) (A) (A) (A)
                 (A) (A) (A) (A) (A) (A) (A) (A) (A) (A) (A) (A)
                 (A) (A) (A) (A) (A) (A) (A) (A) (A) (A) (A) (A)
                 (A) (A) (A) (A) (A) (A) (A) (A) (A) (A) (A) (A)
                 (A) (A) (A) (A) (A) (A) (A) (A) (A) (A) (A) (A)
                 (A) (A) (A) (A) (A) (A) (A) (A) (A) (A) (A) (A)
                 (A) (A) (A) (A) (A) (A) (A) (A) (A) (A) (A) (A)
                 (A) (A) (A) (A) (A) (A) (A) (A) (A) (A) (A) (A)
                 (A) (A) (A) (A) (A) (A) (A) (A) (A) (A) (A) (A)
                 (A) (A) (A) (A) (A) (A) (A) (A) (A) (A) (A) (A)
                 (A) (A) (A) (A) (A) (A) (A) (A) (A) (A) (A) (A)
                 (A) (A) (A) (A) (A) (A) (A) (A) (A) (A) (A) (A)
                 (A) (A) (A) (A) (A) (A) (A) (A) (A) (A) (A) (A)
                 (A) (A) (A) (A) (A) (A) (A) (A) (A) (A) (A) (A)
                 (A) (A) (A) (A) (A) (A) (A) (A) (A) (A) (A) (A)
                 (A) (A) (A) (A) (A) (A) (A) (A) (A) (A) (A) (A)
                 (A) (A) (A) (A) (A) (A) (A) (A) (A) (A) (A) (A)
                 (A) (A) (A) (A) (A) (A) (A) (A) (A) (A) (A) (A)
                 (A) (A) (A) (A) (A) (A) (A) (A) (A) (A) (A) (A)
                 (A) (A) (A) (A) (A) (A) (A) (A) (A) (A) (A) (A)
                 (A) (A) (A) (A) (A) (A) (A) (A) (A) (A) (A) (A)
                 (A) (A) (A) (A) (A) (A) (A) (A) (A) (A) (A) (A)
                 (A) (A) (A) (A) (A) (A) (A) (A) (A) (A) (A) (A)
                 (A) (A) (A) (A) (A) (A) (A) (A) (A) (A) (A) (A)
                 (A) (A) (A) (A) (A) (A) (A) (A) (A) (A) (A) (A)
                 (A) (A) (A) (A) (A) (A) (A) (A) (A) (A) (A) (A)
                 (A) (A) (A) (A) (A) (A) (A) (A) (A) (A) (A) (A)
                 (A) (A) (A) (A) (A) (A) (A) (A) (A) (A) (A) (A)
                 (A) (A) (A) (A) (A) (A) (A) (A) (A) (A) (A) (A)
                 (A) (A) (A) (A) (A) (A) (A) (A) (A) (A) (A) (A)
                 (A) (A) (A) (A) (A) (A) (A) (A) (A) (A) (A) (A)
                 (A) (A) (A) (A) (A) (A) (A) (A) (A) (A) (A) (A)
                 (A) (A) (A) (A) (A) (A) (A) (A) (A) (A) (A) (A)
                 (A) (A) (A) (A) (A) (A) (A) (A) (A) (A) (A) (A)
                 (A) (A) (A) (A) (A) (A) (A) (A) (A) (A) (A) (A)
                 (A) (A) (A) (A) (A) (A) (A) (A) (A) (A) (A) (A)
                 (A) (A) (A) (A) (A) (A) (A) (A) (A) (A) (A) (A)
                 (A) (A) (A) (A) (A) (A) (A) (A) (A) (A) (A) (A)
                 (A) (A) (A) (A) (A) (A) (A) (A) (A) (A) (A) (A)
                 (A) (A) (A) (A) (A) (A) (A) (A) (A) (A) (A) (A)
                 (A) (A) (A) (A) (A) (A) (A) (A) (A) (A) (A) (A)
                 (A) (A) (A) (A) (A) (A) (A) (A) (A) (A) (A) (A)
                 (A) (A) (A) (A) (A) (A) (A) (A) (A) (A) (A) (A)
                 (A) (A) (A) (A) (A) (A) (A) (A) (A) (A) (A) (A)
                 (A) (A) (A) (A) (A) (A) (A) (A) (A) (A) (A) (A)
                 (A) (A) (A) (A) (A) (A) (A) (A) (A) (A) (A) (A)
                 (A) (A) (A) (A) (A) (A) (A) (A) (A) (A) (A) (A)
                 (A) (A) (A) (A) (A) (A) (A) (A) (A) (A) (A) (A)
                 (A) (A) (A) (A) (A)
 The electronic state is 1-A.
 Alpha  occ. eigenvalues --  -14.48868 -14.48660 -10.30698 -10.30659 -10.30588
 Alpha  occ. eigenvalues --  -10.30116 -10.30015 -10.29905 -10.29772 -10.29714
 Alpha  occ. eigenvalues --  -10.27741 -10.27519 -10.26836 -10.26764 -10.26614
 Alpha  occ. eigenvalues --  -10.26292 -10.26191 -10.25959 -10.25856 -10.25624
 Alpha  occ. eigenvalues --  -10.25250 -10.25158 -10.25142 -10.25040 -10.23046
 Alpha  occ. eigenvalues --   -3.96018  -2.20088  -2.18934  -2.17245  -1.00239
 Alpha  occ. eigenvalues --   -0.99805  -0.91497  -0.89735  -0.83730  -0.81679
 Alpha  occ. eigenvalues --   -0.81104  -0.81010  -0.78786  -0.78595  -0.77693
 Alpha  occ. eigenvalues --   -0.77289  -0.73943  -0.72932  -0.70038  -0.67569
 Alpha  occ. eigenvalues --   -0.67362  -0.65535  -0.64906  -0.63935  -0.63331
 Alpha  occ. eigenvalues --   -0.61245  -0.60956  -0.56408  -0.55715  -0.55291
 Alpha  occ. eigenvalues --   -0.54656  -0.53641  -0.53247  -0.51712  -0.51347
 Alpha  occ. eigenvalues --   -0.50323  -0.49443  -0.48587  -0.47972  -0.47313
 Alpha  occ. eigenvalues --   -0.46837  -0.46182  -0.46128  -0.45772  -0.45153
 Alpha  occ. eigenvalues --   -0.44918  -0.44868  -0.44339  -0.43778  -0.43672
 Alpha  occ. eigenvalues --   -0.43120  -0.43041  -0.42352  -0.41873  -0.41539
 Alpha  occ. eigenvalues --   -0.41328  -0.40363  -0.40123  -0.39913  -0.39584
 Alpha  occ. eigenvalues --   -0.38948  -0.38446  -0.38386  -0.38081  -0.37907
 Alpha  occ. eigenvalues --   -0.37361  -0.37090  -0.35479  -0.34713  -0.33249
 Alpha  occ. eigenvalues --   -0.31663  -0.31006  -0.29517  -0.29345  -0.28786
 Alpha  occ. eigenvalues --   -0.26651  -0.25505
 Alpha virt. eigenvalues --   -0.09446  -0.05412  -0.05086  -0.03814  -0.02936
 Alpha virt. eigenvalues --   -0.01475  -0.01217  -0.01100  -0.00290   0.01562
 Alpha virt. eigenvalues --    0.03505   0.03972   0.04238   0.04645   0.05206
 Alpha virt. eigenvalues --    0.05315   0.06121   0.06452   0.06664   0.06829
 Alpha virt. eigenvalues --    0.07038   0.07425   0.08034   0.08548   0.08731
 Alpha virt. eigenvalues --    0.09082   0.09231   0.09782   0.09903   0.10055
 Alpha virt. eigenvalues --    0.10697   0.11109   0.11374   0.11533   0.11731
 Alpha virt. eigenvalues --    0.12389   0.12783   0.12967   0.13135   0.13778
 Alpha virt. eigenvalues --    0.14154   0.14272   0.14665   0.15093   0.15140
 Alpha virt. eigenvalues --    0.15561   0.16172   0.16756   0.17007   0.17517
 Alpha virt. eigenvalues --    0.18576   0.18984   0.19688   0.19943   0.20094
 Alpha virt. eigenvalues --    0.21372   0.21859   0.22173   0.22396   0.23078
 Alpha virt. eigenvalues --    0.23638   0.24125   0.25360   0.25602   0.25987
 Alpha virt. eigenvalues --    0.26454   0.26551   0.27002   0.27601   0.27951
 Alpha virt. eigenvalues --    0.28264   0.28857   0.29046   0.29311   0.29899
 Alpha virt. eigenvalues --    0.30318   0.30850   0.31172   0.31572   0.32358
 Alpha virt. eigenvalues --    0.32691   0.33659   0.33999   0.34482   0.35166
 Alpha virt. eigenvalues --    0.35509   0.35627   0.35886   0.36427   0.36955
 Alpha virt. eigenvalues --    0.37312   0.37460   0.37720   0.38106   0.38423
 Alpha virt. eigenvalues --    0.38724   0.39030   0.39611   0.40494   0.40708
 Alpha virt. eigenvalues --    0.40875   0.41406   0.41928   0.42533   0.42863
 Alpha virt. eigenvalues --    0.43228   0.43983   0.44276   0.44584   0.44750
 Alpha virt. eigenvalues --    0.45047   0.45246   0.45744   0.46407   0.46823
 Alpha virt. eigenvalues --    0.47270   0.47714   0.48329   0.48760   0.49316
 Alpha virt. eigenvalues --    0.49461   0.49985   0.50457   0.50555   0.50926
 Alpha virt. eigenvalues --    0.50996   0.51583   0.51774   0.52172   0.52414
 Alpha virt. eigenvalues --    0.52486   0.52794   0.53264   0.53740   0.53741
 Alpha virt. eigenvalues --    0.54092   0.54533   0.54724   0.55033   0.55068
 Alpha virt. eigenvalues --    0.55332   0.55882   0.56042   0.56451   0.56517
 Alpha virt. eigenvalues --    0.56791   0.57077   0.57383   0.57463   0.57581
 Alpha virt. eigenvalues --    0.58285   0.58388   0.59040   0.59278   0.59899
 Alpha virt. eigenvalues --    0.60212   0.61021   0.61122   0.61434   0.61778
 Alpha virt. eigenvalues --    0.61995   0.62278   0.62452   0.63279   0.63874
 Alpha virt. eigenvalues --    0.64142   0.64667   0.65246   0.65361   0.66217
 Alpha virt. eigenvalues --    0.66453   0.66917   0.67580   0.68294   0.68581
 Alpha virt. eigenvalues --    0.69257   0.69498   0.69755   0.70047   0.70662
 Alpha virt. eigenvalues --    0.71256   0.71679   0.72136   0.73003   0.73408
 Alpha virt. eigenvalues --    0.73661   0.74143   0.74677   0.75493   0.75704
 Alpha virt. eigenvalues --    0.76144   0.76863   0.77395   0.78140   0.78511
 Alpha virt. eigenvalues --    0.78879   0.79148   0.79293   0.80030   0.81495
 Alpha virt. eigenvalues --    0.81758   0.82807   0.83188   0.83501   0.84076
 Alpha virt. eigenvalues --    0.84948   0.85540   0.86451   0.87090   0.87258
 Alpha virt. eigenvalues --    0.87902   0.88333   0.88914   0.89406   0.90248
 Alpha virt. eigenvalues --    0.90888   0.91633   0.92263   0.93116   0.93542
 Alpha virt. eigenvalues --    0.94185   0.94888   0.95618   0.96384   0.96852
 Alpha virt. eigenvalues --    0.97457   0.97726   0.98446   0.99793   1.00396
 Alpha virt. eigenvalues --    1.01462   1.01796   1.02457   1.02629   1.03053
 Alpha virt. eigenvalues --    1.03349   1.04099   1.04923   1.05554   1.06329
 Alpha virt. eigenvalues --    1.06876   1.07020   1.07662   1.07995   1.08582
 Alpha virt. eigenvalues --    1.09193   1.09805   1.10498   1.11258   1.11331
 Alpha virt. eigenvalues --    1.11808   1.12670   1.13405   1.13620   1.13947
 Alpha virt. eigenvalues --    1.14543   1.14857   1.15275   1.16067   1.17111
 Alpha virt. eigenvalues --    1.17429   1.17675   1.18631   1.19075   1.19921
 Alpha virt. eigenvalues --    1.20089   1.20430   1.21076   1.21195   1.21846
 Alpha virt. eigenvalues --    1.22602   1.22872   1.23387   1.23840   1.24819
 Alpha virt. eigenvalues --    1.25211   1.25386   1.25590   1.25861   1.26639
 Alpha virt. eigenvalues --    1.27432   1.27901   1.28363   1.29562   1.29856
 Alpha virt. eigenvalues --    1.30377   1.31209   1.31867   1.31997   1.33073
 Alpha virt. eigenvalues --    1.33414   1.34923   1.35683   1.36298   1.37194
 Alpha virt. eigenvalues --    1.37741   1.38189   1.38439   1.39306   1.40087
 Alpha virt. eigenvalues --    1.40554   1.41538   1.41794   1.42478   1.43515
 Alpha virt. eigenvalues --    1.44481   1.44980   1.45579   1.45705   1.45941
 Alpha virt. eigenvalues --    1.46949   1.47678   1.48442   1.49490   1.50406
 Alpha virt. eigenvalues --    1.51222   1.51451   1.52590   1.54285   1.54703
 Alpha virt. eigenvalues --    1.55368   1.56120   1.56332   1.57040   1.57428
 Alpha virt. eigenvalues --    1.58466   1.59809   1.60048   1.61156   1.61691
 Alpha virt. eigenvalues --    1.62882   1.64050   1.64251   1.65093   1.65728
 Alpha virt. eigenvalues --    1.66058   1.67650   1.68033   1.68840   1.69591
 Alpha virt. eigenvalues --    1.70564   1.70706   1.71310   1.71742   1.72315
 Alpha virt. eigenvalues --    1.72875   1.73858   1.74358   1.74815   1.75984
 Alpha virt. eigenvalues --    1.76318   1.76642   1.77132   1.79036   1.79280
 Alpha virt. eigenvalues --    1.79807   1.81168   1.81582   1.83194   1.84023
 Alpha virt. eigenvalues --    1.85180   1.85466   1.87090   1.87349   1.87823
 Alpha virt. eigenvalues --    1.88178   1.89691   1.90475   1.91565   1.92805
 Alpha virt. eigenvalues --    1.93786   1.94699   1.95912   1.96748   1.97932
 Alpha virt. eigenvalues --    1.99605   2.00032   2.00687   2.01767   2.02424
 Alpha virt. eigenvalues --    2.03449   2.04642   2.05725   2.06142   2.06481
 Alpha virt. eigenvalues --    2.07256   2.07776   2.08581   2.09202   2.10209
 Alpha virt. eigenvalues --    2.10491   2.10977   2.11492   2.11932   2.12045
 Alpha virt. eigenvalues --    2.12359   2.13146   2.14200   2.15088   2.15400
 Alpha virt. eigenvalues --    2.15682   2.16371   2.17077   2.17231   2.18007
 Alpha virt. eigenvalues --    2.18342   2.18646   2.19423   2.20033   2.20136
 Alpha virt. eigenvalues --    2.21592   2.22642   2.23144   2.23817   2.24137
 Alpha virt. eigenvalues --    2.24430   2.25154   2.26602   2.28037   2.28675
 Alpha virt. eigenvalues --    2.29068   2.30494   2.30742   2.31730   2.32846
 Alpha virt. eigenvalues --    2.33107   2.34240   2.34713   2.35567   2.35822
 Alpha virt. eigenvalues --    2.36769   2.37774   2.38879   2.39891   2.40256
 Alpha virt. eigenvalues --    2.40598   2.41105   2.41463   2.42926   2.43222
 Alpha virt. eigenvalues --    2.43886   2.45046   2.45405   2.46884   2.47543
 Alpha virt. eigenvalues --    2.48287   2.49189   2.49835   2.50733   2.51426
 Alpha virt. eigenvalues --    2.52840   2.53458   2.53991   2.55041   2.55496
 Alpha virt. eigenvalues --    2.55865   2.56284   2.56894   2.57563   2.58003
 Alpha virt. eigenvalues --    2.58378   2.59513   2.60012   2.60603   2.60826
 Alpha virt. eigenvalues --    2.61974   2.62113   2.63479   2.63997   2.64496
 Alpha virt. eigenvalues --    2.66523   2.67829   2.68368   2.69038   2.69806
[...]
 000566,-0.00000365,-0.00000123,-0.00000107,0.00000056,0.00000629,-0.00
 000309,0.00000290,-0.00000235,0.00000217,-0.00000130,0.00351537,-0.000
 87543,0.00273083,0.00513941,-0.00427671,-0.00187698,-0.00012823,-0.000
 28196,-0.00065852,-0.14168463,0.09014605,0.10442716,-0.00178723,0.0002
 4758,-0.00227945,0.00092269,-0.00315034,0.00506817,-0.00037396,0.00010
 899,-0.00043416,-0.00815256,0.01341301,0.01195141,0.14402983,0.0004246
 7,-0.00060716,0.00038879,0.00019165,-0.00010488,-0.00075076,-0.0000911
 3,-0.00008184,0.00014360,0.00002324,-0.00005401,0.00011297,0.00006374,
 0.00005220,0.00003560,-0.00006088,0.00004530,0.00001327,0.00001346,-0.
 00002069,0.00004198,0.00000485,-0.00000948,0.00003518,-0.00000901,-0.0
 0001442,0.00003069,-0.00000015,-0.00001793,0.00000639,0.00002719,0.000
 07781,0.00000943,-0.00001886,0.00000007,-0.00001444,-0.00009197,0.0002
 6727,-0.00017943,-0.00001205,-0.00004720,-0.00009396,0.00002586,-0.000
 08198,-0.00013283,-0.00000379,-0.00002565,0.00001579,-0.00003906,-0.00
 006153,0.00002019,-0.00001675,0.00001123,-0.00001382,0.00001901,-0.000
 00753,0.00000234,0.00004076,-0.00005424,0.00003030,0.00002601,0.000017
 60,-0.00002331,-0.00002291,-0.00000071,0.00000731,0.00003462,-0.000054
 96,0.00004772,-0.00000313,0.00001712,-0.00001788,0.00000308,0.00000111
 ,-0.00000106,0.00001869,0.00000639,0.00000580,-0.00001217,0.00000028,-
 0.00000703,-0.00000457,-0.00000056,0.00000377,-0.00000356,-0.00000655,
 0.00000885,0.00000305,0.00005227,0.00000702,-0.00000026,-0.00001064,-0
 .00000703,0.00001423,0.00002123,-0.00001274,0.00000694,-0.00000279,0.0
 0000023,-0.00000541,-0.00000562,0.00000140,-0.00000006,0.00000186,0.00
 000368,-0.00000640,0.00000089,0.00000160,0.00000337,0.00004862,-0.0000
 0572,-0.00000467,-0.00001238,0.00000313,-0.00000899,0.00000841,-0.0000
 0427,-0.00000345,0.00001221,-0.00000483,0.00000481,-0.00000707,0.00000
 089,0.00000542,0.00000086,-0.00000147,0.00000305,0.00000144,0.00000266
 ,-0.00003094,-0.00002034,0.00004744,0.00000608,-0.00000079,-0.00001648
 ,-0.00000022,0.00000206,-0.00000028,0.00000072,0.00000319,-0.00000741,
 0.00000880,0.00000129,-0.00000259,-0.00000193,-0.00000040,0.00000363,0
 .00000100,-0.00000019,0.00000379,-0.00113733,-0.00359780,-0.00000932,0
 .01809233,-0.01441896,-0.01830233,-0.00066085,-0.00099701,0.00064744,0
 .08948715,-0.14245644,-0.09059235,0.00030415,0.00125596,0.00010159,-0.
 00257793,0.00002179,0.00162886,0.00011478,0.00004187,-0.00000988,-0.00
 857504,0.01116602,0.00845496,-0.09577474,0.14869407,-0.00004485,0.0004
 3621,-0.00003489,0.00007735,-0.00015808,0.00015098,-0.00006721,-0.0000
 5928,-0.00003261,0.00001369,0.00002531,-0.00004276,-0.00001238,0.00001
 289,-0.00001003,0.00003290,0.00000005,0.00002646,-0.00002011,-0.000007
 89,0.00001939,0.00000120,0.00000501,0.00000498,-0.00000218,0.00000111,
 0.00000207,0.00000007,-0.00000267,0.00000212,-0.00003308,-0.00005417,-
 0.00000066,0.00000601,-0.00003244,-0.00000879,0.00002228,-0.00005395,0
 .00016413,0.00000031,0.00000670,0.00001389,-0.00000621,0.00002214,0.00
 002234,0.00000110,0.00000168,-0.00001345,0.00006881,0.00004044,0.00001
 513,-0.00000491,-0.00004766,0.00001307,0.00000616,-0.00001888,0.000001
 80,-0.00015339,-0.00001309,-0.00000268,0.00004159,-0.00009827,0.000002
 08,0.00000504,-0.00004902,-0.00000385,0.00002200,-0.00002359,0.0000280
 5,-0.00000237,0.00000407,-0.00000634,-0.00000607,0.00000196,-0.0000060
 4,0.00001463,-0.00000037,0.00000761,-0.00000697,-0.00000107,-0.0000084
 3,-0.00000301,0.00000278,0.00000201,0.00000080,-0.00000631,0.00000453,
 -0.00000948,0.00001116,-0.00000292,0.00000064,-0.00000836,-0.00000671,
 -0.00000039,0.00000903,-0.00000279,-0.00000301,-0.00000749,-0.00000431
 ,-0.00000232,-0.00000311,-0.00000094,0.00000015,0.00000282,-0.00000246
 ,-0.00000245,0.,0.00000196,0.00001028,0.00001414,0.00000551,-0.0000005
 4,-0.00000699,-0.00000108,0.00000219,-0.00000197,0.00000007,0.00000008
 ,0.00000486,0.00000034,0.00000123,-0.00000336,0.00000102,0.00000209,0.
 00000118,0.00000014,-0.00000015,0.00000067,-0.00000044,-0.00000902,-0.
 00000388,-0.00000132,0.00000054,0.00000132,-0.00000104,-0.00000248,0.0
 0000776,0.00001430,0.00000371,-0.00000886,0.00000140,0.00000143,0.0000
 0149,-0.00000167,-0.00000546,0.00000159,-0.00000174,0.00000139,-0.0000
 0206,0.00000235,0.00210123,0.00061624,0.00480114,0.00051170,0.00153739
 ,0.00320384,-0.00009651,0.00093256,-0.00070052,0.10532593,-0.09046342,
 -0.14093770,-0.00259864,-0.00001924,-0.00193587,0.00524139,0.00163419,
 0.00201077,-0.00038044,-0.00002225,-0.00048640,0.00908010,-0.01187371,
 -0.00569685,-0.11717687,0.09819929,0.14124843,-0.00011048,-0.00027180,
 0.00001196,0.00013954,0.00066368,-0.00018317,0.00001668,-0.00005869,0.
 00009728,-0.00002298,-0.00005589,0.00011362,0.00001891,-0.00003551,-0.
 00002819,-0.00002696,-0.00003397,-0.00006970,0.00001624,-0.00000167,0.
 00003392,0.00000368,-0.00000214,0.00000932,-0.00000444,-0.00000307,0.0
 0000677,-0.00000002,0.00000344,0.00000649,-0.00000816,-0.00000893,-0.0
 0000537,-0.00000079,-0.00003528,0.00000168,0.00001395,0.00011210,-0.00
 003402,-0.00000042,-0.00002337,-0.00003783,0.00000056,-0.00002388,-0.0
 0004220,-0.00000042,-0.00001396,0.00000176,-0.00000261,0.00002555,-0.0
 0003397,0.00001221,-0.00000385,-0.00000022,0.00000461,0.00000078,0.000
 00192,-0.00000343,0.00004279,-0.00001572,0.00001659,-0.00000111,-0.000
 00983,-0.00000163,-0.00000410,0.00000526,0.00002528,-0.00001782,0.0000
 3613,-0.00000264,0.00000614,-0.00000648,0.00000173,-0.00000647,-0.0000
 0514,0.00001039,0.00000155,0.00001098,-0.00000717,0.00000198,-0.000001
 15,-0.00000116,-0.00000232,0.00000053,0.00000182,-0.00000093,-0.000000
 27,0.00000290,0.00002311,0.00000072,0.00000021,-0.00000725,-0.00000426
 ,0.00000410,0.00000804,-0.00000965,0.00000174,-0.00000335,-0.00000148,
 -0.00000306,-0.00000410,0.00000050,-0.00000049,0.00000198,-0.00000016,
 -0.00000234,0.00000165,0.00000185,0.00001104,0.00002810,-0.00000149,-0
 .00000247,-0.00000926,-0.00000080,-0.00000387,0.00000007,-0.00000175,0
 .00000154,0.00000370,-0.00000401,0.00000236,-0.00000471,0.00000157,0.0
 0000272,0.00000119,-0.00000014,0.00000074,0.00000090,0.00000049,-0.000
 00994,-0.00001415,0.00000590,0.00000030,-0.00000546,-0.00000119,-0.000
 00203,-0.00000537,0.00002409,0.00000101,-0.00000970,0.00000414,0.00000
 488,0.00000236,-0.00000092,-0.00000148,-0.00000743,-0.00000208,0.00000
 074,-0.00000296,0.00000303,0.00409909,-0.00035042,0.00237428,-0.000169
 65,0.00054460,-0.00051784,0.00116030,0.00024248,0.00198483,0.00178999,
 0.00291676,0.00466916,-0.00046092,-0.00002963,-0.00041889,-0.18389637,
 -0.07756689,0.12468381,-0.00151433,0.00018007,-0.00228820,-0.00844375,
 -0.00931074,0.00999765,-0.00047835,-0.00051034,0.00052217,0.18890595,-
 0.00052246,-0.00116161,0.00001918,-0.00023032,0.00073208,-0.00054186,-
 0.00002093,-0.00005707,0.00015741,0.00005015,-0.00015203,0.00026658,0.
 00006592,-0.00001232,-0.00002232,-0.00009936,-0.00001383,-0.00004755,0
 .00001114,-0.00001170,0.00003809,0.00000405,-0.00001131,0.00002671,-0.
 00000359,-0.00001098,0.00003296,0.00000098,-0.00000248,0.00000991,0.00
 005728,-0.00001451,-0.00000850,0.00002104,0.00002365,0.00001322,0.0000
 7207,0.00028606,-0.00009018,-0.00001518,-0.00005053,-0.00011478,0.0000
 1653,-0.00004150,-0.00009237,-0.00000447,-0.00001102,0.00003690,-0.000
 02265,-0.00003494,0.00000799,-0.00002751,0.00002883,-0.00002034,0.0000
 2081,0.00000074,0.00001447,0.00004194,-0.00000803,-0.00000062,-0.00000
 794,0.00000753,-0.00000695,-0.00001466,0.00000538,0.00000607,0.0000379
 0,-0.00004565,0.00005368,-0.00000436,0.00001502,-0.00001524,0.00000249
 ,-0.00000326,-0.00000346,0.00000368,-0.00000341,0.00000303,-0.00001184
 ,0.00000234,-0.00000354,-0.00000242,-0.00000328,0.00000216,-0.00000032
 ,-0.00000335,0.00000331,0.00000105,0.00003447,0.00002179,-0.00000653,-
 0.00000701,-0.00001537,0.00001466,0.00003613,-0.00002237,0.00000522,-0
 .00000254,-0.00000171,-0.00000584,-0.00000750,0.00000131,-0.00000040,0
 .00000278,0.00000328,-0.00000846,-0.00000047,0.00000466,0.00001607,0.0
 0003781,0.00000493,-0.00000525,-0.00001025,-0.00000111,-0.00001315,0.0
 0000486,-0.00000244,-0.00000302,0.00001402,-0.00001312,0.00000730,-0.0
 0000635,0.00000116,0.00000969,-0.00000269,-0.00000216,0.00000266,0.000
 00103,0.00000387,-0.00005194,-0.00003131,0.00007437,0.00000671,-0.0000
 0155,-0.00004291,-0.00000186,-0.00004707,-0.00001225,0.00000936,0.0000
 0880,-0.00000927,0.00002070,-0.00000697,-0.00000330,0.00000446,0.00000
 408,0.00002232,0.00000103,0.00001493,0.00000448,-0.00041871,-0.0036469
 8,0.00023904,0.00052905,-0.00121384,-0.00044589,-0.02166258,-0.0099039
 4,0.01846648,0.00232653,-0.00128846,-0.00252003,-0.00002651,0.00007783
 ,0.00008070,-0.07745823,-0.09982130,0.06378038,0.00019288,0.00127968,0
 .00020874,0.01331625,0.01128690,-0.01104603,0.00065409,0.00035495,-0.0
 0062084,0.08357990,0.10262058,-0.00001338,-0.00024017,-0.00010018,0.00
 002736,0.00034671,0.00021434,-0.00001105,-0.00001541,0.00005194,-0.000
 01066,-0.00005677,0.00010133,0.00000686,-0.00004508,-0.00000611,-0.000
 03071,-0.00003744,-0.00005249,0.00002560,0.00001034,0.00000370,-0.0000
 0099,0.00000202,-0.00000148,-0.00000031,-0.00000090,-0.00000001,0.0000
 0053,0.00000640,-0.00000096,-0.00001289,0.00001136,-0.00000577,-0.0000
 2060,-0.00002370,-0.00000320,0.00000103,0.00009116,-0.00004480,0.00000
 050,-0.00000518,-0.00000341,0.00000155,-0.00000958,-0.00000875,-0.0000
 0002,0.00000055,0.00001641,0.00000707,0.00006883,-0.00007517,0.0000773
 2,-0.00001768,0.00002826,-0.00000322,0.00002454,-0.00000925,-0.0000066
 9,0.00003529,-0.00001954,-0.00001982,-0.00001441,-0.00001459,0.0000031
 9,0.00000918,0.00000126,-0.00001294,-0.00000428,-0.00000298,0.00000060
 ,0.00000137,0.00000310,0.00000179,-0.00000002,0.00000078,-0.00000014,0
 .00000697,-0.00000375,0.00000080,-0.00000112,0.00000031,0.00000298,0.0
 0000230,-0.00000021,-0.00000040,-0.00000023,-0.00000115,0.00000674,-0.
 00001546,-0.00000731,0.00000295,0.00000406,0.00000542,-0.00000450,-0.0
 0001319,0.00000085,0.00000156,0.00000138,0.00000095,0.00000170,0.00000
 259,0.00000031,-0.00000019,-0.00000152,-0.00000054,0.00000184,0.000000
 06,-0.00000156,-0.00000911,-0.00002351,-0.00000979,0.00000172,0.000007
 98,-0.00000018,0.00000017,-0.00000223,0.00000047,0.00000320,-0.0000036
 1,0.00000224,-0.00000248,0.00000263,-0.00000048,-0.00000157,-0.0000005
 4,0.00000084,-0.00000086,-0.00000048,-0.00000175,0.00002917,-0.0000119
 7,0.00003827,0.00000455,0.00001734,0.00001842,-0.00003702,0.00004952,-
 0.00002199,-0.00001545,0.00000948,-0.00000797,-0.00000309,0.00000040,0
 .00000204,0.00000099,0.00000433,-0.00000355,-0.00000535,-0.00000493,-0
 .00000626,0.00267358,-0.00052100,0.00446440,-0.00050010,-0.00028864,-0
 .00035563,0.00087513,-0.00191023,0.00252271,0.00456454,-0.00262161,0.0
 0264285,-0.00048200,0.00008527,-0.00053984,0.12470770,0.06394579,-0.14
 131858,-0.00239144,0.00037432,-0.00210533,0.01090894,0.00861535,-0.005
 36572,0.00051005,0.00043176,-0.00029828,-0.13842734,-0.06854688,0.1419
 6934,-0.00032394,-0.00010113,0.00014849,-0.00016974,-0.00044674,0.0000
 1282,-0.00003219,0.00005135,-0.00016441,-0.00001302,-0.00017073,-0.000
 03783,-0.00007920,0.00000290,0.00007814,-0.00000785,0.00006046,-0.0000
 8514,0.00008286,0.00000051,0.00003380,0.00000269,-0.00000292,-0.000005
 87,-0.00000490,0.00000159,-0.00000071,0.00000327,-0.00000489,-0.000000
 46,0.00002947,0.00006336,-0.00004954,-0.00002745,0.00009608,0.00000465
 ,0.00006257,0.00000321,-0.00004210,-0.00000448,-0.00001996,-0.00001642
 ,-0.00000635,-0.00000413,0.00000398,0.00000107,-0.00000074,-0.00000702
 ,-0.00001087,-0.00000769,0.00006059,0.00000190,0.00000454,-0.00000252,
 0.00000036,0.00000628,-0.00000743,0.00004720,-0.00001030,0.00007515,0.
 00006492,0.00003495,0.00002857,0.00000348,-0.00001933,-0.00000961,0.00
 000177,0.00001152,-0.00001954,0.00000061,-0.00000501,0.00000526,-0.000
 00499,-0.00000330,-0.00000337,0.00000351,-0.00000367,0.00001148,0.0000
 0083,-0.00000060,-0.00000257,-0.00000139,0.00000121,-0.00000035,0.0000
 0220,-0.00000087,-0.00000004,0.00001886,0.00001306,-0.00002991,0.00000
 558,0.00000003,0.00001445,0.00000079,-0.00000957,0.00001103,-0.0000008
 4,-0.00000267,-0.00000111,0.00000311,0.00000209,-0.00000317,0.00000012
 ,0.00000138,-0.00000340,0.00000353,0.00000115,-0.00000122,-0.00004035,
 -0.00000205,-0.00002255,0.00000768,0.00001167,0.00000320,0.00000268,0.
 00000021,-0.00000205,0.00000201,0.00000433,0.00000519,-0.00000397,0.00
 000371,-0.00000246,-0.00000052,-0.00000143,0.00000131,-0.00000248,0.00
 000024,-0.00000246,0.00001405,0.00001295,0.00001884,0.00000619,0.00000
 957,0.00000206,0.00000515,0.00000298,-0.00003750,-0.00001009,0.0000175
 7,-0.00001286,-0.00000255,0.00000002,0.00000085,0.00000387,-0.00000632
 ,-0.00000095,-0.00000638,-0.00000089,-0.00000386,-0.00095925,0.0003371
 0,-0.00008029,0.00059239,-0.00159908,0.00572865,0.00115762,0.00180374,
 0.00527398,0.00212833,-0.02177297,-0.00057350,-0.00008581,-0.00091818,
 -0.00005400,0.00580844,0.01894959,-0.00069815,0.00003250,0.00091799,0.
 00000434,-0.05132067,-0.02885634,0.01081022,-0.00104252,0.00071584,-0.
 00246970,-0.00108942,-0.00045311,-0.00242734,0.04514962,-0.00003222,-0
 .00007406,0.00004137,0.00004147,0.00015046,-0.00018875,-0.00002058,-0.
 00003977,0.00003347,0.00000100,-0.00003368,0.00003933,0.00001149,0.000
 00439,0.00000159,-0.00002231,0.00001115,-0.00003945,0.00001265,-0.0000
 0630,0.00002182,0.00000609,-0.00000271,0.00001222,-0.00000590,-0.00000
 366,0.00001002,0.00000017,-0.00000506,0.00000837,0.00000797,-0.0000258
 5,0.00000428,0.00004167,-0.00002769,-0.00000441,-0.00000690,0.00004732
 ,-0.00001550,0.00000004,-0.00001155,-0.00002848,0.00000163,-0.00001562
 ,-0.00003426,-0.00000154,-0.00001157,-0.00000148,0.00001013,0.00000866
 ,0.00000085,-0.00004325,0.00000263,-0.00003598,0.00000631,-0.00002243,
 0.00001016,-0.00002933,0.00001096,0.00001127,0.00006151,-0.00000578,0.
 00001244,-0.00000271,-0.00002431,0.00000092,0.00003758,-0.00001998,0.0
 0003757,-0.00000295,0.00000525,-0.00000839,-0.00000052,-0.00000394,-0.
 00000576,0.00001144,-0.00000437,0.00001279,-0.00000812,0.00000224,-0.0
 0000380,-0.00000462,-0.00000356,0.00000087,0.00000195,-0.00000225,0.00
 000263,-0.00000126,0.00004039,0.00000704,-0.00000160,-0.00001314,-0.00
 000957,0.00000884,0.00001646,-0.00000837,0.00000123,-0.00000656,-0.000
 00295,-0.00000475,-0.00000660,-0.00000044,0.00000008,0.00000366,-0.000
 00022,-0.00000423,0.00000155,0.00000299,0.00001625,0.00005505,0.000003
 28,-0.00000755,-0.00001995,-0.00000027,-0.00000331,-0.00000088,-0.0000
 0290,-0.00000369,0.00000421,-0.00000121,0.00000532,-0.00000827,0.00000
 234,0.00000333,0.00000338,-0.00000154,0.00000117,0.00000240,0.00000164
 ,-0.00004517,-0.00000579,-0.00001790,-0.00000395,-0.00000477,-0.000009
 70,0.00000844,-0.00000592,0.00005206,0.00001472,-0.00002450,0.00001207
 ,0.00000815,0.00000053,-0.00000457,-0.00001684,0.00000660,-0.00000124,
 0.00000787,-0.00000146,0.00000701,0.00012187,0.00074198,0.00006297,-0.
 00193899,0.00106956,0.00136461,0.00221850,0.00007426,-0.00238848,0.000
 68823,-0.00861899,-0.00151743,0.00007021,-0.00047584,-0.00011635,-0.00
 392809,-0.01327491,0.00222378,-0.00015750,-0.00070426,0.00015560,-0.02
 865720,-0.33095911,0.00509167,0.00019271,0.00059638,0.00013626,0.00005
 359,0.00077054,0.00026849,0.03128143,0.35084508,-0.00047753,0.00011665
 ,0.00013954,-0.00029431,-0.00042339,-0.00008311,0.00005789,0.00007641,
 -0.00015240,0.00000447,-0.00015503,0.00003415,-0.00008729,0.00002004,0
 .00005670,-0.00001369,0.00005152,-0.00001950,0.00005351,-0.00000295,0.
 00002675,-0.00000035,-0.00000587,-0.00001114,-0.00000121,0.00000208,0.
 00000221,0.00000004,-0.00000440,-0.00000428,0.00004828,0.00004848,-0.0
 0005398,0.00004437,0.00005996,0.00001677,0.00010048,-0.00001244,-0.000
 03134,-0.00000657,-0.00002233,-0.00001838,-0.00001125,0.00000286,0.000
 01197,0.00000094,0.00000072,-0.00000832,-0.00000442,-0.00002549,0.0000
 3793,-0.00003051,0.00001337,-0.00002892,-0.00000435,-0.00000256,0.0000
 0034,0.00011843,-0.00003481,0.00005089,-0.00002942,0.00006430,-0.00001
 231,-0.00000537,0.00002305,0.00000450,-0.00000974,0.00000210,-0.000020
 36,0.00000117,-0.00000138,0.00000423,0.00000003,0.00000069,0.00000228,
 -0.00000124,0.00000322,-0.00000286,0.00000109,-0.00000079,0.00000026,0
 .00000152,0.00000187,0.,-0.00000137,0.00000043,-0.00000130,-0.00000111
 ,-0.00000221,-0.00000936,0.00000235,0.00000651,0.00000972,0.00000121,-
 0.00000135,0.00000737,0.00000028,0.00000462,0.00000109,0.00000305,0.00
 000368,0.00000044,-0.00000053,-0.00000114,0.00000060,0.00000155,-0.000
 00091,-0.00000119,-0.00001858,0.00003004,-0.00001708,0.00000012,-0.000
 00412,0.00000304,0.00000309,-0.00000240,-0.00000272,-0.00000108,-0.000
 00293,0.00000847,-0.00000057,-0.00000062,-0.00000011,-0.00000232,0.000
 00223,0.00000109,-0.00000175,0.00000168,-0.00000229,-0.00000580,-0.000
 00345,-0.00003889,-0.00000656,0.00000129,0.00000108,0.00000720,-0.0000
 0333,0.00003356,0.00000541,-0.00001695,0.00001157,0.00000186,-0.000001
 55,-0.00000211,-0.00000763,0.00000052,-0.00000088,0.00000420,0.0000003
 7,0.00000261,0.00063520,0.00006773,-0.00157605,0.00559814,0.00119165,0
 .00203938,0.00501021,-0.00238889,0.00255461,0.00127932,0.01832364,0.00
 366377,0.00006730,0.00079414,-0.00006903,-0.00253593,-0.01714646,0.004
 46975,-0.00004378,-0.00074873,0.00005348,0.01102445,0.00492888,-0.0461
 2769,-0.00255892,-0.00028812,-0.00151833,-0.00245835,0.00066421,-0.001
 69196,-0.01545561,-0.00520434,0.03825578\\-0.00000169,-0.00001327,0.00
 000219,-0.00000360,0.00000696,-0.00000070,-0.00000544,0.00000433,0.000
 00290,-0.00000442,0.00001350,-0.00000308,-0.00000948,0.00001204,0.0000
 0631,-0.00001030,0.00002010,-0.00000008,-0.00001257,0.00001942,0.00000
 412,-0.00001220,0.00001126,0.00001006,-0.00001189,0.00002576,-0.000001
 18,-0.00001652,0.00002431,0.00000602,0.00000117,0.00000585,-0.00000193
 ,0.00000056,-0.00000628,0.00001080,0.00000968,-0.00000914,0.00000377,0
 .00000514,-0.00001846,0.00000658,0.00000682,-0.00001288,0.00000160,-0.
 00000073,-0.00001120,0.00001021,-0.00000191,-0.00000128,0.00000591,0.0
 0000189,-0.00000413,0.00000155,-0.00000525,-0.00000388,0.00001044,-0.0
 0000209,0.00001247,-0.00000714,0.00000160,0.00001321,-0.00001299,-0.00
 000418,0.00001744,-0.00000702,0.00000565,0.00000440,-0.00001083,0.0000
 0508,0.00000686,-0.00001425,0.00000715,-0.00000322,-0.00000861,0.00000
 847,0.00000198,-0.00001461,0.00000936,0.00000547,-0.00001943,0.0000031
 4,0.00000745,-0.00000994,0.00000322,0.00001430,-0.00001673,-0.00000435
 ,0.00000467,0.00000351,-0.00000757,0.00001171,0.00000210,-0.00000597,0
 .00000118,0.00000535,-0.00000372,-0.00000007,0.00000415,-0.00000968,0.
 00001042,0.00000759,-0.00001178,0.00001730,0.00000302,-0.00000594,0.00
 001419,-0.00000355,-0.00000456,-0.00000540,0.00001692,-0.00000971,-0.0
 0000946,0.00002446,-0.00000292,-0.00001166,0.00001627,-0.00001108,-0.0
 0000121,0.00001289,-0.00001320,-0.00000839,0.00002781,-0.00000780,-0.0
 0001563,0.00002372,-0.00001115,-0.00000463,0.00002231,0.00000139,-0.00
 001945,0.00000757,0.00000375,-0.00002046,0.00001151,0.00000596,-0.0000
 1475,0.00000369,0.00000097,-0.00002098,0.00001346,0.00000522,-0.000024
 91,0.00001191,0.00000679,-0.00001722,0.00000608,-0.00000067,-0.0000189
 5,0.00001578,0.00000785,-0.00000051,-0.00000681,0.00000661,0.00000782,
 -0.00001694,0.00000651,-0.00001064,-0.00001084,0.00001122,0.00000611,-
 0.00002256,0.00000273,0.00001274,-0.00001623,0.00001420,-0.00000729,-0
 .00001723,0.00000819,-0.00001364,-0.00000539,0.00001465,-0.00000112,-0
 .00002241,0.00001138,0.00001147,-0.00002681,0.00001734,-0.00001322,-0.
 00001699,0.00001866,-0.00000142,-0.00002825\\\@
 The archive entry for this job was punched.


 MOM AND DAD WENT TO ALPHA CENTAURI AND ALL
 I GOT WAS THIS DUMB T-SHIRT.
 Job cpu time:       2 days  8 hours 49 minutes 55.6 seconds.
 Elapsed time:       0 days  2 hours 23 minutes 17.5 seconds.
 File lengths (MBytes):  RWF=   3337 Int=      0 D2E=      0 Chk=     78 Scr=      1
 Normal termination of Gaussian 16 at Wed Jun  1 22:15:04 2022.
