5
ch4.log	Energy:  -25427.3871866
C          0.00000        0.00000        0.00000
H          0.62826        0.62826        0.62826
H         -0.62826       -0.62826        0.62826
H         -0.62826        0.62826       -0.62826
H          0.62826       -0.62826       -0.62826
