35
HZIr.log	Energy: -485955.3249721
C         -1.50650        1.15448        0.15455
C         -1.48463       -1.18768        0.15881
C         -2.87869        1.17451        0.05096
C         -2.85311       -1.23554        0.05460
C         -3.56294       -0.03771       -0.02041
H         -3.40874        2.11689        0.03914
H         -3.37684       -2.17991        0.04424
O         -4.89653       -0.11603       -0.13700
N         -0.83635       -0.00874        0.15923
C         -0.62990        2.34595        0.41082
H         -0.60047        2.48680        1.49221
H         -1.03838        3.25625       -0.03106
C         -0.58271       -2.35878        0.42037
H         -0.54348       -2.48937        1.50270
H         -0.97602       -3.28060       -0.01132
N          0.77168        2.11564       -0.04962
N          0.81034       -2.10361       -0.05101
C          1.69081        2.91367        0.78328
H          2.70569        2.77236        0.41795
H          1.43911        3.97714        0.73265
H          1.63246        2.57152        1.81337
C          0.89001        2.56583       -1.45490
H          0.71200        3.64339       -1.52147
H          1.88825        2.34338       -1.82289
H          0.16359        2.04042       -2.06970
C          1.75111       -2.88572        0.77337
H          1.51784       -3.95345        0.72390
H          2.76014       -2.72622        0.39942
H          1.69527       -2.54554        1.80425
C          0.92431       -2.54989       -1.45769
H          1.91573       -2.31112       -1.83373
H          0.76287       -3.63003       -1.52416
H          0.18435       -2.03544       -2.06562
Ir         1.05538        0.00904        0.04569
H         -5.29159        0.75794       -0.16470
