40
HZIrMeH_sigma.log	Energy: -511393.8796787
C         -1.67770       -1.18302       -0.15767
C         -1.69305        1.15530       -0.15910
C         -3.04261       -1.23091       -0.01265
C         -3.06137        1.18348       -0.01531
C         -3.74522       -0.02873        0.07647
H         -3.56987       -2.17262        0.02143
H         -3.59006        2.12608        0.01529
O         -5.07305       -0.10188        0.23190
N         -1.03170       -0.00799       -0.19033
C         -0.78033       -2.35572       -0.42809
H         -0.75813       -2.48864       -1.51062
H         -1.16676       -3.27654        0.01145
C         -0.81361        2.34194       -0.42814
H         -0.79388        2.47668       -1.51051
H         -1.21312        3.25655        0.01284
N          0.62431       -2.10779        0.02025
N          0.59468        2.11410        0.01956
C          3.27234        0.02014        0.34156
H          2.74868        0.01860        1.30239
H          3.89181       -0.86990        0.27292
H          3.88133        0.91714        0.26974
C          1.53443       -2.92093       -0.80969
H          2.55004       -2.79909       -0.44215
H          1.26340       -3.97915       -0.75852
H          1.48456       -2.57834       -1.83983
C          0.75513       -2.54221        1.42965
H          0.56617       -3.61630        1.51189
H          1.76098       -2.32753        1.78070
H          0.04258       -2.00167        2.04780
C          1.49321        2.93900       -0.81137
H          1.20835        3.99364       -0.76052
H          2.51051        2.83070       -0.44423
H          1.44742        2.59526       -1.84131
C          0.72013        2.55144        1.42857
H          1.72918        2.35175        1.77922
H          0.51583        3.62279        1.51019
H          0.01612        2.00091        2.04768
H          2.65086        0.01491       -0.63057
Ir         0.90641        0.00493       -0.08629
H         -5.46438        0.77355        0.27203
