40
HZRhMeH.log	Energy: -515276.4911183
C          1.52250        1.15420       -0.24192
C          1.50707       -1.17942       -0.24469
C          2.88503        1.19049       -0.04059
C          2.86611       -1.23638       -0.04288
C          3.56119       -0.02821        0.06641
H          3.41563        2.12941        0.03615
H          3.39481       -2.17474        0.03395
O          4.87912       -0.10186        0.27638
N          0.88480       -0.00679       -0.32608
C          0.61650        2.33644       -0.47518
H          0.55286        2.47828       -1.55478
H          1.02282        3.25343       -0.04438
C          0.58239       -2.34614       -0.48130
H          0.51121       -2.48088       -1.56134
H          0.97701       -3.27122       -0.05719
N         -0.77452        2.10541        0.02542
N         -0.80248       -2.09665        0.02728
C         -3.18102        0.01883        0.25051
H         -3.31941        0.01066        1.34146
H         -3.69390        0.90540       -0.13303
H         -3.70821       -0.85244       -0.14820
C         -1.69163        3.00998       -0.68853
H         -2.69193        2.89210       -0.28283
H         -1.37616        4.05017       -0.56899
H         -1.70417        2.74975       -1.74337
C         -0.82514        2.40168        1.47222
H         -0.55526        3.44358        1.66133
H         -1.83231        2.21959        1.83877
H         -0.12798        1.75640        2.00670
C         -1.73567       -2.99013       -0.67970
H         -1.43192       -4.03403       -0.56227
H         -2.73154       -2.85982       -0.26688
H         -1.75248       -2.72990       -1.73448
C         -0.84715       -2.39042        1.47487
H         -1.84960       -2.19577        1.84783
H         -0.58850       -3.43524        1.66343
H         -0.13851       -1.75308        2.00366
H         -1.49465        0.00742       -1.57419
Rh        -1.15325        0.00608       -0.11230
H          5.26962        0.77278        0.33971
