46
MeZPtMeMe_sigma.log	Energy: -570032.6151835
Pt         0.95288        0.06094        0.05163
C         -1.47746       -1.37758       -0.17615
C         -1.70742        0.96189       -0.25960
C         -2.83290       -1.54248       -0.13396
C         -3.07567        0.87062       -0.22068
C         -3.65458       -0.40371       -0.14103
H         -3.27684       -2.52615       -0.10254
H         -3.67017        1.76904       -0.25305
O         -4.95258       -0.62415       -0.07942
N         -0.95396       -0.14204       -0.21491
C         -0.45872       -2.46691       -0.31593
H         -0.39001       -2.70130       -1.37798
H         -0.75546       -3.37608        0.20405
C         -0.91218        2.21683       -0.45347
H         -0.77537        2.35545       -1.52622
H         -1.42426        3.09498       -0.06262
N          0.90738       -2.04164        0.14734
N          0.44456        2.09588        0.16843
C          3.57543        0.16064        0.22804
H          2.58515        0.55881        0.64341
H          3.72637       -0.84849        0.59440
H          4.19804        0.82181        0.83270
C          1.90921       -2.74393       -0.68850
H          2.90526       -2.55953       -0.30006
H          1.71933       -3.81780       -0.66666
H          1.84230       -2.38241       -1.71090
C          1.08319       -2.43347        1.57100
H          1.03752       -3.51959        1.65880
H          2.04846       -2.08636        1.92864
H          0.29542       -1.98886        2.17405
C          1.36957        3.03141       -0.51072
H          0.96479        4.04359       -0.47427
H          2.32923        3.01637       -0.00096
H          1.49782        2.72501       -1.54510
C          0.34936        2.45668        1.60793
H          1.31721        2.31788        2.08179
H          0.04850        3.50083        1.70056
H         -0.38501        1.82293        2.09814
C         -5.85455        0.48262       -0.07496
H         -6.84631        0.05030       -0.00547
H         -5.76546        1.05345       -0.99911
H         -5.66972        1.12234        0.78785
C          3.86647        0.33365       -1.24994
H          3.27973       -0.34233       -1.86898
H          3.67557        1.35380       -1.57619
H          4.91993        0.11947       -1.42433
