39
QST2_ZRhMeH_sigma_ZRhMeH.log	Energy: -514982.1397045
C         -1.53230       -1.16896       -0.28421
C         -1.53219        1.16913       -0.28406
C         -2.86136       -1.22048        0.00630
C         -2.86126        1.22073        0.00644
C         -3.62171        0.00015        0.17707
H         -3.37101       -2.16852        0.11536
H         -3.37083        2.16879        0.11560
O         -4.83752        0.00018        0.45431
N         -0.88051        0.00006       -0.42440
C         -0.62834       -2.33957       -0.56768
H         -0.54275       -2.43267       -1.65090
H         -1.03332       -3.27773       -0.18142
C         -0.62817        2.33970       -0.56745
H         -0.54276        2.43301       -1.65066
H         -1.03302        3.27781       -0.18094
N          0.75079       -2.11593       -0.03493
N          0.75105        2.11586       -0.03494
C          3.02779       -0.00022        0.72854
H          2.67104        0.00036        1.76511
H          3.65830       -0.88088        0.59288
H          3.65915        0.87974        0.59226
C          1.69803       -2.97087       -0.76448
H          2.69273       -2.83639       -0.34709
H          1.41545       -4.02535       -0.68038
H          1.71284       -2.68185       -1.81214
C          0.77250       -2.48021        1.39461
H          0.53152       -3.54038        1.52147
H          1.76061       -2.28662        1.80361
H          0.04164       -1.88359        1.93718
C          1.69832        2.97054       -0.76475
H          1.41594        4.02508       -0.68076
H          2.69307        2.83593       -0.34751
H          1.71290        2.68135       -1.81237
C          0.77313        2.48030        1.39455
H          1.76131        2.28665        1.80335
H          0.53228        3.54051        1.52133
H          0.04232        1.88381        1.93733
H          2.49214        0.00008       -0.80052
Rh         1.10277       -0.00004       -0.14633
