40
QST2_HZPtMeH_sigma_HZPtMeH.log	Energy: -520682.1842660
Pt        -0.94328        0.00275       -0.09561
C          1.72088        1.16651       -0.12821
C          1.71167       -1.18665       -0.12870
C          3.08759        1.20289       -0.01798
C          3.07521       -1.23436       -0.01714
C          3.77223       -0.01895        0.04633
H          3.62116        2.14206       -0.00186
H          3.61593       -2.16810        0.00133
O          5.09122       -0.09376        0.14909
N          1.08805       -0.00600       -0.15391
C          0.80828        2.33696       -0.38132
H          0.79714        2.50121       -1.45880
H          1.16305        3.25165        0.09134
C          0.78664       -2.34614       -0.38580
H          0.77025       -2.50491       -1.46404
H          1.13317       -3.26671        0.08134
N         -0.61607        2.08038        0.04735
N         -0.63401       -2.07772        0.04846
C         -2.99468        0.02013        0.22851
H         -3.07761        0.08725        1.31601
H         -3.50053        0.87310       -0.21745
H         -3.49135       -0.88572       -0.10992
C         -1.50811        2.95686       -0.74892
H         -2.52476        2.85462       -0.38461
H         -1.19073        3.99329       -0.63491
H         -1.46230        2.67132       -1.79580
C         -0.75754        2.42702        1.49090
H         -0.53613        3.48488        1.62861
H         -1.77542        2.22541        1.81163
H         -0.05886        1.83770        2.08203
C         -1.53505       -2.94764       -0.74500
H         -1.21969       -3.98547       -0.63823
H         -2.54881       -2.84504       -0.37293
H         -1.49614       -2.65760       -1.79090
C         -0.77130       -2.42442        1.49239
H         -1.78492       -2.21291        1.81997
H         -0.55950       -3.48454        1.62775
H         -0.06296       -1.84270        2.07960
H         -1.70649        0.00121       -1.39480
H          5.50114        0.77535        0.16564
