46
QST3_MeZPtMeMe_sigma_MeZPtMeMe.log	Energy: -569999.0955171
Pt         1.04514        0.05405       -0.05502
C         -1.44743       -1.36930       -0.17637
C         -1.66882        0.96681       -0.19342
C         -2.80038       -1.53549       -0.09238
C         -3.03723        0.88261       -0.11135
C         -3.61624       -0.39219       -0.03731
H         -3.24996       -2.51702       -0.08589
H         -3.63289        1.78094       -0.12120
O         -4.91290       -0.61239        0.05939
N         -0.91929       -0.13634       -0.17999
C         -0.42894       -2.44085       -0.42681
H         -0.34771       -2.55572       -1.50817
H         -0.72284       -3.40241       -0.00961
C         -0.87367        2.21181       -0.45305
H         -0.80758        2.32450       -1.53588
H         -1.35002        3.10485       -0.05229
N          0.92778       -2.06015        0.09142
N          0.52507        2.10122        0.07922
C          3.02155        0.29061        0.90934
H          2.40662        0.05025        1.78625
H          3.84380       -0.41283        0.89562
H          3.38812        1.30252        1.01806
C          1.94773       -2.82827       -0.65551
H          2.92289       -2.65000       -0.21160
H          1.72375       -3.89362       -0.59359
H          1.95258       -2.51502       -1.69580
C          0.99853       -2.44097        1.52791
H          0.85608       -3.51804        1.62044
H          1.97220       -2.17687        1.92885
H          0.22210       -1.92314        2.08534
C          1.38814        3.04768       -0.66183
H          0.97211        4.05361       -0.59471
H          2.38048        3.04967       -0.21991
H          1.45147        2.74676       -1.70351
C          0.50805        2.49009        1.51589
H          1.50627        2.39935        1.93251
H          0.17756        3.52530        1.60315
H         -0.17247        1.84411        2.06484
C         -5.81420        0.49358        0.10136
H         -6.80430        0.05969        0.18443
H         -5.74521        1.07976       -0.81491
H         -5.61197        1.11962        0.97024
C          3.01408        0.23968       -1.06426
H          3.57142       -0.67714       -1.18976
H          2.32418        0.36001       -1.90863
H          3.67347        1.09634       -1.05565
