34
YIr.log	Energy: -428371.4086081
C         -1.73348       -0.10880        1.21461
C         -1.73348       -0.10880       -1.21461
C         -3.11477       -0.00275        1.21244
C         -3.11477       -0.00275       -1.21244
C         -3.80313        0.07296        0.00000
H         -3.66913        0.00917        2.14484
H         -3.66913        0.00917       -2.14484
C         -0.85247       -0.37373        2.40394
H         -0.82317       -1.44979        2.58345
H         -1.20236        0.10106        3.32553
C         -0.85247       -0.37373       -2.40394
H         -0.82317       -1.44979       -2.58345
H         -1.20236        0.10106       -3.32553
N          0.56341        0.05106        2.12345
N          0.56341        0.05106       -2.12345
C          1.48225       -0.77106        2.92555
H          2.50239       -0.42792        2.76135
H          1.24954       -0.69322        3.99382
H          1.40389       -1.80913        2.61127
C          0.71400        1.46083        2.53871
H          0.56116        1.55577        3.62000
H          1.71123        1.81371        2.28621
H         -0.01773        2.07220        2.01689
C          1.48225       -0.77106       -2.92555
H          1.24954       -0.69322       -3.99382
H          2.50239       -0.42792       -2.76135
H          1.40389       -1.80913       -2.61127
C          0.71400        1.46083       -2.53871
H          1.71123        1.81371       -2.28621
H          0.56116        1.55577       -3.62000
H         -0.01773        2.07220       -2.01689
Ir         0.83960       -0.07100       -0.00000
C         -1.03584       -0.10838        0.00000
H         -4.88124        0.16699        0.00000
