39
YIrMeH_sigma.log	Energy: -453804.8816294
C          1.92342        1.21076       -0.10747
C          1.92263       -1.21194       -0.10752
C          3.30496        1.21128        0.00307
C          3.30417       -1.21336        0.00302
C          3.99194       -0.00127        0.07930
H          3.85960        2.14334        0.01904
H          3.85821       -2.14578        0.01896
C          1.04435        2.40174       -0.36928
H          1.01676        2.58324       -1.44502
H          1.39335        3.32262        0.10764
C          1.04279       -2.40234       -0.36935
H          1.01504       -2.58377       -1.44510
H          1.39122       -3.32347        0.10750
N         -0.37408        2.12476        0.05214
N         -0.37546       -2.12447        0.05215
C         -3.27324        0.00069        0.02580
H         -2.66900        0.00036        0.94786
H         -3.88983        0.89566        0.01013
H         -3.88986       -0.89424        0.00964
C         -1.28163        2.95171       -0.75863
H         -2.30260        2.80745       -0.41133
H         -1.02517        4.01348       -0.67349
H         -1.21547        2.64454       -1.79943
C         -0.52089        2.52477        1.46700
H         -0.35195        3.60207        1.57529
H         -1.52277        2.28390        1.81454
H          0.20164        1.98462        2.07324
C         -1.28359       -2.95084       -0.75857
H         -1.02780       -4.01278       -0.67346
H         -2.30445       -2.80593       -0.41120
H         -1.21729       -2.64370       -1.79937
C         -0.52243       -2.52440        1.46701
H         -1.52415       -2.28293        1.81461
H         -0.35416       -3.60181        1.57529
H          0.20046       -1.98471        2.07322
H         -2.63318        0.00092       -0.88420
Ir        -0.67651        0.00023       -0.08143
H          5.06989       -0.00162        0.17627
C          1.22410       -0.00036       -0.11451
