39
YRhMeH_sigma.log	Energy: -457691.3806246
C          1.77948        1.20834       -0.12784
C          1.77936       -1.20852       -0.12784
C          3.16091        1.21090        0.00361
C          3.16078       -1.21123        0.00360
C          3.84713       -0.00020        0.08625
H          3.71340        2.14387        0.03449
H          3.71318       -2.14426        0.03449
C          0.91188        2.41036       -0.37771
H          0.89053        2.60538       -1.45146
H          1.27363        3.32300        0.10932
C          0.91163       -2.41045       -0.37771
H          0.89026       -2.60547       -1.45147
H          1.27328       -3.32313        0.10931
N         -0.49906        2.13733        0.03822
N         -0.49928       -2.13728        0.03822
C         -3.39544        0.00014       -0.00161
H         -2.76163        0.00015        0.89930
H         -4.01441        0.89353        0.00748
H         -4.01441       -0.89324        0.00749
C         -1.41243        2.97768       -0.74418
H         -2.43282        2.81285       -0.40336
H         -1.17092        4.04137       -0.62844
H         -1.34522        2.70595       -1.79511
C         -0.64428        2.48063        1.46329
H         -0.47661        3.55390        1.61869
H         -1.64573        2.22611        1.80385
H          0.07857        1.91782        2.04857
C         -1.41274       -2.97753       -0.74417
H         -1.17135       -4.04124       -0.62843
H         -2.43312       -2.81258       -0.40335
H         -1.34550       -2.70581       -1.79510
C         -0.64454       -2.48055        1.46329
H         -1.64596       -2.22593        1.80385
H         -0.47697       -3.55384        1.61869
H          0.07838       -1.91782        2.04857
H         -2.79233        0.00014       -0.92869
H          4.92368       -0.00026        0.19919
C          1.08095       -0.00005       -0.15302
Rh        -0.81901        0.00004       -0.12419
