42
ZPtMeMe.log	Energy: -545075.0299350
Pt        -0.85631        0.00191        0.02522
C          1.78024        1.17430       -0.26548
C          1.77657       -1.17962       -0.26007
C          3.12046        1.22423       -0.06836
C          3.11670       -1.23309       -0.06322
C          3.89017       -0.00543        0.03885
H          3.64012        2.16887        0.00910
H          3.63331       -2.17911        0.01779
O          5.11610       -0.00693        0.21562
N          1.13078       -0.00196       -0.37229
C          0.84592        2.33605       -0.47230
H          0.69213        2.46036       -1.54403
H          1.24681        3.26796       -0.07666
C          0.83866       -2.33935       -0.46153
H          0.68725       -2.47133       -1.53278
H          1.23520       -3.27007       -0.05887
N         -0.51651        2.09169        0.13670
N         -0.52472       -2.08666        0.14272
C         -2.83037        0.00964        0.64906
H         -2.82746        0.04722        1.74273
H         -3.38437        0.87254        0.27937
H         -3.37184       -0.88494        0.34160
C         -1.48607        3.01150       -0.49647
H         -2.46828        2.85722       -0.06105
H         -1.17269        4.04071       -0.31957
H         -1.52347        2.83639       -1.56642
C         -0.46676        2.40038        1.58974
H         -0.15654        3.43512        1.73250
H         -1.45270        2.25418        2.02173
H          0.25038        1.74473        2.08300
C         -1.49691       -2.99780       -0.49916
H         -1.18471       -4.02949       -0.33521
H         -2.47807       -2.84800       -0.05961
H         -1.53651       -2.80692       -1.56642
C         -0.48291       -2.39724        1.59582
H         -1.46617       -2.23184        2.02694
H         -0.19377       -3.43825        1.73723
H          0.24725       -1.75688        2.08957
C         -1.60619       -0.02188       -1.86580
H         -2.11710        0.91641       -2.04932
H         -0.75109       -0.14712       -2.52510
H         -2.30858       -0.84319       -1.95449
