34
ZRh.log	Energy: -489554.6421992
C         -1.31654       -1.16756       -0.22803
C         -1.31654        1.16756       -0.22803
C         -2.66998       -1.21419       -0.06186
C         -2.66998        1.21419       -0.06186
C         -3.44323       -0.00000        0.05014
H         -3.18515       -2.16500       -0.02189
H         -3.18515        2.16500       -0.02189
O         -4.68272       -0.00000        0.21856
N         -0.65105       -0.00000       -0.28467
C         -0.41579       -2.34676       -0.48088
H         -0.32820       -2.46233       -1.56205
H         -0.83216       -3.27448       -0.07949
C         -0.41579        2.34676       -0.48088
H         -0.32820        2.46233       -1.56205
H         -0.83216        3.27448       -0.07949
N          0.95610       -2.11401        0.04982
N          0.95610        2.11401        0.04982
C          1.92019       -2.94361       -0.68378
H          2.91432       -2.78068       -0.27132
H          1.67349       -4.00804       -0.59879
H          1.92182       -2.65621       -1.73250
C          0.98783       -2.48286        1.47691
H          0.79946       -3.55564        1.59991
H          1.96315       -2.24286        1.89450
H          0.22748       -1.92328        2.01649
C          1.92019        2.94361       -0.68378
H          1.67349        4.00804       -0.59879
H          2.91432        2.78068       -0.27132
H          1.92182        2.65621       -1.73250
C          0.98783        2.48286        1.47691
H          1.96315        2.24286        1.89450
H          0.79946        3.55564        1.59991
H          0.22748        1.92328        2.01649
Rh         1.26480        0.00000       -0.07805
