39
ZRhMeH_sigma.log	Energy: -514993.3845073
C          1.54481        1.16606       -0.23112
C          1.54483       -1.16603       -0.23114
C          2.89209        1.21498       -0.02306
C          2.89211       -1.21493       -0.02307
C          3.66147        0.00003        0.11241
H          3.40594        2.16547        0.03524
H          3.40599       -2.16540        0.03521
O          4.89445        0.00005        0.32049
N          0.88106        0.00001       -0.31108
C          0.64724        2.34185       -0.50578
H          0.57344        2.44829       -1.58890
H          1.05420        3.27421       -0.10625
C          0.64729       -2.34183       -0.50580
H          0.57347       -2.44827       -1.58892
H          1.05428       -3.27420       -0.10628
N         -0.73413        2.11422        0.00805
N         -0.73408       -2.11424        0.00805
C         -3.45377        0.00001        0.30915
H         -2.81246        0.00058        1.20165
H         -4.07043        0.89400        0.31994
H         -4.06960       -0.89455        0.32048
C         -1.67560        2.96163       -0.73649
H         -2.67460        2.83011       -0.32684
H         -1.39926        4.01877       -0.65904
H         -1.68094        2.66457       -1.78231
C         -0.77948        2.48265        1.43519
H         -0.56499        3.54951        1.56190
H         -1.76775        2.26905        1.83559
H         -0.04325        1.90271        1.98677
C         -1.67554       -2.96167       -0.73647
H         -1.39919       -4.01880       -0.65901
H         -2.67454       -2.83016       -0.32681
H         -1.68090       -2.66462       -1.78229
C         -0.77940       -2.48266        1.43520
H         -1.76767       -2.26909        1.83560
H         -0.56488       -3.54953        1.56191
H         -0.04318       -1.90271        1.98676
H         -2.89802       -0.00005       -0.66947
Rh        -1.06217       -0.00002       -0.11951
