39
ZRhMeH.log	Energy: -514985.5741103
C         -1.53761       -1.16670       -0.31252
C         -1.53761        1.16670       -0.31252
C         -2.86725       -1.22066       -0.01544
C         -2.86725        1.22066       -0.01544
C         -3.62816        0.00000        0.15003
H         -3.37404       -2.16862        0.10784
H         -3.37404        2.16862        0.10784
O         -4.84551        0.00000        0.42795
N         -0.89467       -0.00000       -0.46519
C         -0.61747       -2.33493       -0.56405
H         -0.50251       -2.44084       -1.64318
H         -1.02318       -3.27132       -0.17532
C         -0.61747        2.33493       -0.56405
H         -0.50251        2.44084       -1.64318
H         -1.02318        3.27132       -0.17532
N          0.75211       -2.10234       -0.00155
N          0.75211        2.10234       -0.00155
C          3.08997       -0.00000        0.51191
H          3.07465        0.00000        1.61221
H          3.66536       -0.87815        0.20157
H          3.66537        0.87815        0.20156
C          1.70830       -2.99288       -0.67531
H          2.69156       -2.85925       -0.23303
H          1.40461       -4.03852       -0.56701
H          1.75696       -2.73585       -1.73011
C          0.73808       -2.40434        1.44287
H          0.46083       -3.44793        1.61508
H          1.72609       -2.22011        1.85758
H          0.01356       -1.76374        1.94575
C          1.70830        2.99288       -0.67531
H          1.40461        4.03852       -0.56701
H          2.69156        2.85925       -0.23303
H          1.75696        2.73585       -1.73011
C          0.73808        2.40434        1.44287
H          1.72609        2.22011        1.85758
H          0.46083        3.44793        1.61508
H          0.01356        1.76374        1.94575
H          1.70328       -0.00000       -1.50468
Rh         1.11603       -0.00000       -0.12199
