 Entering Gaussian System, Link 0=/cm/shared/apps//g16/g16
 Input=ch4.gjf
 Output=ch4.log
 Initial command:
 /cm/shared/apps//g16/l1.exe "/local/mvanvleet/pbs.14009.josephine/Gau-3180927.inp" -scrdir="/local/mvanvleet/pbs.14009.josephine/"
 Entering Link 1 = /cm/shared/apps//g16/l1.exe PID=   3180930.
  
 Copyright (c) 1988-2019, Gaussian, Inc.  All Rights Reserved.
  
 This is part of the Gaussian(R) 16 program.  It is based on
 the Gaussian(R) 09 system (copyright 2009, Gaussian, Inc.),
 the Gaussian(R) 03 system (copyright 2003, Gaussian, Inc.),
 the Gaussian(R) 98 system (copyright 1998, Gaussian, Inc.),
 the Gaussian(R) 94 system (copyright 1995, Gaussian, Inc.),
 the Gaussian 92(TM) system (copyright 1992, Gaussian, Inc.),
 the Gaussian 90(TM) system (copyright 1990, Gaussian, Inc.),
 the Gaussian 88(TM) system (copyright 1988, Gaussian, Inc.),
 the Gaussian 86(TM) system (copyright 1986, Carnegie Mellon
 University), and the Gaussian 82(TM) system (copyright 1983,
 Carnegie Mellon University). Gaussian is a federally registered
 trademark of Gaussian, Inc.
  
 This software contains proprietary and confidential information,
 including trade secrets, belonging to Gaussian, Inc.
  
 This software is provided under written license and may be
 used, copied, transmitted, or stored only in accord with that
 written license.
  
 The following legend is applicable only to US Government
 contracts under FAR:
  
                    RESTRICTED RIGHTS LEGEND
  
 Use, reproduction and disclosure by the US Government is
 subject to restrictions as set forth in subparagraphs (a)
 and (c) of the Commercial Computer Software - Restricted
 Rights clause in FAR 52.227-19.
  
 Gaussian, Inc.
 340 Quinnipiac St., Bldg. 40, Wallingford CT 06492
  
  
 ---------------------------------------------------------------
 Warning -- This program may not be used in any manner that
 competes with the business of Gaussian, Inc. or will provide
 assistance to any competitor of Gaussian, Inc.  The licensee
 of this program is prohibited from giving any competitor of
 Gaussian, Inc. access to this program.  By using this program,
 the user acknowledges that Gaussian, Inc. is engaged in the
 business of creating and licensing software in the field of
 computational chemistry and represents and warrants to the
 licensee that it is not a competitor of Gaussian, Inc. and that
 it will not use this program in any manner prohibited above.
 ---------------------------------------------------------------
  

 Cite this work as:
 Gaussian 16, Revision C.01,
 M. J. Frisch, G. W. Trucks, H. B. Schlegel, G. E. Scuseria, 
 M. A. Robb, J. R. Cheeseman, G. Scalmani, V. Barone, 
 G. A. Petersson, H. Nakatsuji, X. Li, M. Caricato, A. V. Marenich, 
 J. Bloino, B. G. Janesko, R. Gomperts, B. Mennucci, H. P. Hratchian, 
 J. V. Ortiz, A. F. Izmaylov, J. L. Sonnenberg, D. Williams-Young, 
 F. Ding, F. Lipparini, F. Egidi, J. Goings, B. Peng, A. Petrone, 
 T. Henderson, D. Ranasinghe, V. G. Zakrzewski, J. Gao, N. Rega, 
 G. Zheng, W. Liang, M. Hada, M. Ehara, K. Toyota, R. Fukuda, 
 J. Hasegawa, M. Ishida, T. Nakajima, Y. Honda, O. Kitao, H. Nakai, 
 T. Vreven, K. Throssell, J. A. Montgomery, Jr., J. E. Peralta, 
 F. Ogliaro, M. J. Bearpark, J. J. Heyd, E. N. Brothers, K. N. Kudin, 
 V. N. Staroverov, T. A. Keith, R. Kobayashi, J. Normand, 
 K. Raghavachari, A. P. Rendell, J. C. Burant, S. S. Iyengar, 
 J. Tomasi, M. Cossi, J. M. Millam, M. Klene, C. Adamo, R. Cammi, 
 J. W. Ochterski, R. L. Martin, K. Morokuma, O. Farkas, 
 J. B. Foresman, and D. J. Fox, Gaussian, Inc., Wallingford CT, 2019.
 
 ******************************************
 Gaussian 16:  ES64L-G16RevC.01  3-Jul-2019
                 5-Mar-2024 
 ******************************************
 %nprocshared=8
 Will use up to    8 processors via shared memory.
 %chk=ch4.chk
 %mem=1GB
 ----------------------------------------------------------
 # wb97xd def2TZVPP SCRF=(solvent=dichloromethane) opt freq
 ----------------------------------------------------------
 1/18=20,19=15,26=3,38=1/1,3;
 2/9=110,12=2,17=6,18=5,40=1/2;
 3/5=44,7=202,11=2,25=1,30=1,70=2201,71=1,72=9,74=-58/1,2,3;
 4//1;
 5/5=2,38=5,53=9/2;
 6/7=2,8=2,9=2,10=2,28=1/1;
 7//1,2,3,16;
 1/18=20,19=15,26=3/3(2);
 2/9=110/2;
 99//99;
 2/9=110/2;
 3/5=44,7=202,11=2,25=1,30=1,70=2205,71=1,72=9,74=-58/1,2,3;
 4/5=5,16=3,69=1/1;
 5/5=2,38=5,53=9/2;
 7//1,2,3,16;
 1/18=20,19=15,26=3/3(-5);
 2/9=110/2;
 6/7=2,8=2,9=2,10=2,19=2,28=1/1;
 99/9=1/99;
 ---
 ch4
 ---
 Symbolic Z-matrix:
 Charge =  0 Multiplicity = 1
 C                     0.        0.        0. 
 H                     0.63413   0.63413   0.63413 
 H                    -0.63413  -0.63413   0.63413 
 H                    -0.63413   0.63413  -0.63413 
 H                     0.63413  -0.63413  -0.63413 
 

 GradGradGradGradGradGradGradGradGradGradGradGradGradGradGradGradGradGrad
 Berny optimization.
 Initialization pass.
                           ----------------------------
                           !    Initial Parameters    !
                           ! (Angstroms and Degrees)  !
 --------------------------                            --------------------------
 ! Name  Definition              Value          Derivative Info.                !
 --------------------------------------------------------------------------------
 ! R1    R(1,2)                  1.0983         estimate D2E/DX2                !
 ! R2    R(1,3)                  1.0983         estimate D2E/DX2                !
 ! R3    R(1,4)                  1.0983         estimate D2E/DX2                !
 ! R4    R(1,5)                  1.0983         estimate D2E/DX2                !
 ! A1    A(2,1,3)              109.4712         estimate D2E/DX2                !
 ! A2    A(2,1,4)              109.4712         estimate D2E/DX2                !
 ! A3    A(2,1,5)              109.4712         estimate D2E/DX2                !
 ! A4    A(3,1,4)              109.4712         estimate D2E/DX2                !
 ! A5    A(3,1,5)              109.4712         estimate D2E/DX2                !
 ! A6    A(4,1,5)              109.4712         estimate D2E/DX2                !
 ! D1    D(2,1,4,3)           -120.0            estimate D2E/DX2                !
 ! D2    D(2,1,5,3)            120.0            estimate D2E/DX2                !
 ! D3    D(2,1,5,4)           -120.0            estimate D2E/DX2                !
 ! D4    D(3,1,5,4)            120.0            estimate D2E/DX2                !
 --------------------------------------------------------------------------------
 Trust Radius=3.00D-01 FncErr=1.00D-07 GrdErr=1.00D-06 EigMax=2.50D+02 EigMin=1.00D-04
 Number of steps in this run=     24 maximum allowed number of steps=    100.
 GradGradGradGradGradGradGradGradGradGradGradGradGradGradGradGradGradGrad

                          Input orientation:                          
 ---------------------------------------------------------------------
 Center     Atomic      Atomic             Coordinates (Angstroms)
 Number     Number       Type             X           Y           Z
 ---------------------------------------------------------------------
      1          6           0        0.000000    0.000000    0.000000
      2          1           0        0.634130    0.634130    0.634130
      3          1           0       -0.634130   -0.634130    0.634130
      4          1           0       -0.634130    0.634130   -0.634130
      5          1           0        0.634130   -0.634130   -0.634130
 ---------------------------------------------------------------------
                    Distance matrix (angstroms):
                    1          2          3          4          5
     1  C    0.000000
     2  H    1.098345   0.000000
     3  H    1.098345   1.793590   0.000000
     4  H    1.098345   1.793590   1.793590   0.000000
     5  H    1.098345   1.793590   1.793590   1.793590   0.000000
 Stoichiometry    CH4
 Framework group  TD[O(C),4C3(H)]
 Deg. of freedom     1
 Full point group                 TD      NOp  24
 Largest Abelian subgroup         D2      NOp   4
 Largest concise Abelian subgroup D2      NOp   4
                         Standard orientation:                         
 ---------------------------------------------------------------------
 Center     Atomic      Atomic             Coordinates (Angstroms)
 Number     Number       Type             X           Y           Z
 ---------------------------------------------------------------------
      1          6           0        0.000000    0.000000    0.000000
      2          1           0        0.634130    0.634130    0.634130
      3          1           0       -0.634130   -0.634130    0.634130
      4          1           0       -0.634130    0.634130   -0.634130
      5          1           0        0.634130   -0.634130   -0.634130
 ---------------------------------------------------------------------
 Rotational constants (GHZ):         155.8782316         155.8782316         155.8782316
 Standard basis: def2TZVPP (5D, 7F)
 There are    27 symmetry adapted cartesian basis functions of A   symmetry.
 There are    23 symmetry adapted cartesian basis functions of B1  symmetry.
 There are    23 symmetry adapted cartesian basis functions of B2  symmetry.
 There are    23 symmetry adapted cartesian basis functions of B3  symmetry.
 There are    24 symmetry adapted basis functions of A   symmetry.
 There are    21 symmetry adapted basis functions of B1  symmetry.
 There are    21 symmetry adapted basis functions of B2  symmetry.
 There are    21 symmetry adapted basis functions of B3  symmetry.
    87 basis functions,   119 primitive gaussians,    96 cartesian basis functions
     5 alpha electrons        5 beta electrons
       nuclear repulsion energy        13.3333053270 Hartrees.
 NAtoms=    5 NActive=    5 NUniq=    2 SFac= 4.00D+00 NAtFMM=   60 NAOKFM=F Big=F
 Integral buffers will be    131072 words long.
 Raffenetti 2 integral format.
 Two-electron integral symmetry is turned on.
 Nuclear repulsion after empirical dispersion term =       13.3328907074 Hartrees.
 ------------------------------------------------------------------------------
 Polarizable Continuum Model (PCM)
 =================================
 Model                : PCM.
 Atomic radii         : UFF (Universal Force Field).
 Polarization charges : Total charges.
 Charge compensation  : None.
 Solution method      : On-the-fly selection.
 Cavity type          : Scaled VdW (van der Waals Surface) (Alpha=1.100).
 Cavity algorithm     : GePol (No added spheres)
                        Default sphere list used, NSphG=    5.
                        Lebedev-Laikov grids with approx.  5.0 points / Ang**2.
                        Smoothing algorithm: York/Karplus (Gamma=1.0000).
                        Polarization charges: spherical gaussians, with
                                              point-specific exponents (IZeta= 3).
                        Self-potential: point-specific (ISelfS= 7).
                        Self-field    : sphere-specific E.n sum rule (ISelfD= 2).
 1st derivatives      : Analytical E(r).r(x)/FMM algorithm (CHGder, D1EAlg=3).
                        Cavity 1st derivative terms included.
 Solvent              : Dichloromethane, Eps=   8.930000 Eps(inf)=   2.028346
 ------------------------------------------------------------------------------
 Spheres list:
 ISph  on   Nord     Re0    Alpha      Xe            Ye            Ze
    1   C      1    1.9255  1.100      0.000000      0.000000      0.000000
    2   H      2    1.4430  1.100      0.634130      0.634130      0.634130
    3   H      3    1.4430  1.100     -0.634130     -0.634130      0.634130
    4   H      4    1.4430  1.100     -0.634130      0.634130     -0.634130
    5   H      5    1.4430  1.100      0.634130     -0.634130     -0.634130
 ------------------------------------------------------------------------------
 One-electron integrals computed using PRISM.
  24 Symmetry operations used in ECPInt.
 ECPInt:  NShTT=     630 NPrTT=    1412 LenC2=     631 LenP2D=    1382.
 LDataN:  DoStor=T MaxTD1= 6 Len=  172
 NBasis=    87 RedAO= T EigKep=  5.65D-04  NBF=    24    21    21    21
 NBsUse=    87 1.00D-06 EigRej= -1.00D+00 NBFU=    24    21    21    21
 ExpMin= 9.52D-02 ExpMax= 1.36D+04 ExpMxC= 4.63D+02 IAcc=3 IRadAn=         5 AccDes= 0.00D+00
 Harris functional with IExCor= 4639 and IRadAn=       5 diagonalized for initial guess.
 HarFok:  IExCor= 4639 AccDes= 0.00D+00 IRadAn=         5 IDoV= 1 UseB2=F ITyADJ=14
 ICtDFT=  3500011 ScaDFX=  1.000000  1.000000  1.000000  1.000000
 FoFCou: FMM=F IPFlag=           0 FMFlag=      100000 FMFlg1=           0
         NFxFlg=           0 DoJE=T BraDBF=F KetDBF=T FulRan=T
         wScrn=  0.000000 ICntrl=       500 IOpCl=  0 I1Cent=   200000004 NGrid=           0
         NMat0=    1 NMatS0=      1 NMatT0=    0 NMatD0=    1 NMtDS0=    0 NMtDT0=    0
 Petite list used in FoFCou.
 Initial guess orbital symmetries:
       Occupied  (A1) (A1) (T2) (T2) (T2)
       Virtual   (A1) (T2) (T2) (T2) (T2) (T2) (T2) (A1) (T2) (T2)
                 (T2) (E) (E) (A1) (T1) (T1) (T1) (T2) (T2) (T2)
                 (T2) (T2) (T2) (A1) (E) (E) (T2) (T2) (T2) (A1)
                 (T2) (T2) (T2) (T2) (T2) (T2) (A1) (T1) (T1) (T1)
                 (E) (E) (T2) (T2) (T2) (T1) (T1) (T1) (T2) (T2)
                 (T2) (E) (E) (A1) (E) (E) (T2) (T2) (T2) (T1)
                 (T1) (T1) (T2) (T2) (T2) (T2) (T2) (T2) (A1) (A1)
                 (T1) (T1) (T1) (E) (E) (T2) (T2) (T2) (T2) (T2)
                 (T2) (A1)
 The electronic state of the initial guess is 1-A1.
 Keep R1 ints in memory in symmetry-blocked form, NReq=22388427.
 Requested convergence on RMS density matrix=1.00D-08 within 128 cycles.
 Requested convergence on MAX density matrix=1.00D-06.
 Requested convergence on             energy=1.00D-06.
 No special actions if energy rises.
 Inv3:  Mode=1 IEnd=      696972.
 Iteration    1 A*A^-1 deviation from unit magnitude is 2.55D-15 for     10.
 Iteration    1 A*A^-1 deviation from orthogonality  is 2.39D-15 for    383     20.
 Iteration    1 A^-1*A deviation from unit magnitude is 2.22D-15 for     19.
 Iteration    1 A^-1*A deviation from orthogonality  is 1.61D-15 for    367     14.
 Error on total polarization charges =  0.00742
 SCF Done:  E(RwB97XD) =  -40.5208714449     A.U. after    8 cycles
            NFock=  8  Conv=0.47D-08     -V/T= 2.0081

 **********************************************************************

            Population analysis using the SCF Density.

 **********************************************************************

 Orbital symmetries:
       Occupied  (A1) (A1) (T2) (T2) (T2)
       Virtual   (A1) (T2) (T2) (T2) (T2) (T2) (T2) (A1) (T2) (T2)
                 (T2) (E) (E) (A1) (T1) (T1) (T1) (T2) (T2) (T2)
                 (T2) (T2) (T2) (A1) (E) (E) (T2) (T2) (T2) (A1)
                 (T2) (T2) (T2) (T2) (T2) (T2) (A1) (T1) (T1) (T1)
                 (E) (E) (T2) (T2) (T2) (T1) (T1) (T1) (T2) (T2)
                 (T2) (E) (E) (A1) (E) (E) (T2) (T2) (T2) (T1)
                 (T1) (T1) (T2) (T2) (T2) (T2) (T2) (T2) (A1) (A1)
                 (T1) (T1) (T1) (E) (E) (T2) (T2) (T2) (T2) (T2)
                 (T2) (A1)
 The electronic state is 1-A1.
 Alpha  occ. eigenvalues --  -10.26660  -0.78807  -0.47439  -0.47439  -0.47439
 Alpha virt. eigenvalues --    0.13043   0.20534   0.20534   0.20534   0.28329
 Alpha virt. eigenvalues --    0.28329   0.28329   0.46999   0.54148   0.54148
 Alpha virt. eigenvalues --    0.54148   0.58316   0.58316   0.58446   0.95753
 Alpha virt. eigenvalues --    0.95753   0.95753   1.01431   1.01431   1.01431
 Alpha virt. eigenvalues --    1.16726   1.16726   1.16726   1.40405   1.47019
 Alpha virt. eigenvalues --    1.47019   1.50748   1.50748   1.50748   1.61077
 Alpha virt. eigenvalues --    1.93482   1.93482   1.93482   2.60260   2.60260
 Alpha virt. eigenvalues --    2.60260   2.73655   2.90029   2.90029   2.90029
 Alpha virt. eigenvalues --    2.90545   2.90545   2.96814   2.96814   2.96814
 Alpha virt. eigenvalues --    3.39325   3.39325   3.39325   3.45693   3.45693
 Alpha virt. eigenvalues --    3.45693   3.58241   3.58241   3.72516   3.88077
 Alpha virt. eigenvalues --    3.88077   3.98049   3.98049   3.98049   4.15510
 Alpha virt. eigenvalues --    4.15510   4.15510   4.29368   4.29368   4.29368
 Alpha virt. eigenvalues --    4.64036   4.64036   4.64036   4.91860   5.21574
 Alpha virt. eigenvalues --    5.22281   5.22281   5.22281   5.34443   5.34443
 Alpha virt. eigenvalues --    5.38476   5.38476   5.38476   5.64465   5.64465
 Alpha virt. eigenvalues --    5.64465  23.85200
          Condensed to atoms (all electrons):
               1          2          3          4          5
     1  C    4.766736   0.401814   0.401814   0.401814   0.401814
     2  H    0.401814   0.560692  -0.018668  -0.018668  -0.018668
     3  H    0.401814  -0.018668   0.560692  -0.018668  -0.018668
     4  H    0.401814  -0.018668  -0.018668   0.560692  -0.018668
     5  H    0.401814  -0.018668  -0.018668  -0.018668   0.560692
 Mulliken charges:
               1
     1  C   -0.373994
     2  H    0.093498
     3  H    0.093498
     4  H    0.093498
     5  H    0.093498
 Sum of Mulliken charges =  -0.00000
 Mulliken charges with hydrogens summed into heavy atoms:
               1
     1  C   -0.000000
 Electronic spatial extent (au):  <R**2>=             35.9438
 Charge=             -0.0000 electrons
 Dipole moment (field-independent basis, Debye):
    X=              0.0000    Y=              0.0000    Z=             -0.0000  Tot=              0.0000
 Quadrupole moment (field-independent basis, Debye-Ang):
   XX=             -8.3893   YY=             -8.3893   ZZ=             -8.3893
   XY=              0.0000   XZ=              0.0000   YZ=             -0.0000
 Traceless Quadrupole moment (field-independent basis, Debye-Ang):
   XX=              0.0000   YY=             -0.0000   ZZ=             -0.0000
   XY=              0.0000   XZ=              0.0000   YZ=             -0.0000
 Octapole moment (field-independent basis, Debye-Ang**2):
  XXX=             -0.0000  YYY=              0.0000  ZZZ=              0.0000  XYY=             -0.0000
  XXY=             -0.0000  XXZ=             -0.0000  XZZ=             -0.0000  YZZ=             -0.0000
  YYZ=             -0.0000  XYZ=              0.7841
 Hexadecapole moment (field-independent basis, Debye-Ang**3):
 XXXX=            -17.0092 YYYY=            -17.0092 ZZZZ=            -17.0092 XXXY=              0.0000
 XXXZ=             -0.0000 YYYX=              0.0000 YYYZ=             -0.0000 ZZZX=              0.0000
 ZZZY=              0.0000 XXYY=             -5.1137 XXZZ=             -5.1137 YYZZ=             -5.1137
 XXYZ=              0.0000 YYXZ=             -0.0000 ZZXY=              0.0000
 N-N= 1.333289070745D+01 E-N=-1.198761606414D+02  KE= 4.019533007889D+01
 Symmetry A    KE= 3.440932871488D+01
 Symmetry B1   KE= 1.928667121336D+00
 Symmetry B2   KE= 1.928667121336D+00
 Symmetry B3   KE= 1.928667121336D+00
  24 Symmetry operations used in ECPInt.
 ECPInt:  NShTT=     630 NPrTT=    1412 LenC2=     631 LenP2D=    1382.
 LDataN:  DoStor=T MaxTD1= 7 Len=  274
 D1PCM: PCM CHGder 1st derivatives, ID1Alg=3 FixD1E=F DoIter=F DoCFld=F I1PDM=0.
 Calling FoFJK, ICntrl=      2127 FMM=F ISym2X=1 I1Cent= 0 IOpClX= 0 NMat=1 NMatS=1 NMatT=0.
 ***** Axes restored to original set *****
 -------------------------------------------------------------------
 Center     Atomic                   Forces (Hartrees/Bohr)
 Number     Number              X              Y              Z
 -------------------------------------------------------------------
      1        6          -0.000000000   -0.000000000    0.000000000
      2        1          -0.003763273   -0.003763273   -0.003763273
      3        1           0.003763273    0.003763273   -0.003763273
      4        1           0.003763273   -0.003763273    0.003763273
      5        1          -0.003763273    0.003763273    0.003763273
 -------------------------------------------------------------------
 Cartesian Forces:  Max     0.003763273 RMS     0.003365974

 GradGradGradGradGradGradGradGradGradGradGradGradGradGradGradGradGradGrad
 Berny optimization.
 FormGI is forming the generalized inverse of G from B-inverse, IUseBI=4.
 Internal  Forces:  Max     0.006518180 RMS     0.003484114
 Search for a local minimum.
 Step number   1 out of a maximum of   24
 All quantities printed in internal units (Hartrees-Bohrs-Radians)
 Mixed Optimization -- RFO/linear search
 Second derivative matrix not updated -- first step.
 The second derivative matrix:
                          R1        R2        R3        R4        A1
           R1           0.33866
           R2           0.00000   0.33866
           R3           0.00000   0.00000   0.33866
           R4           0.00000   0.00000   0.00000   0.33866
           A1           0.00000   0.00000   0.00000   0.00000   0.16000
           A2           0.00000   0.00000   0.00000   0.00000   0.00000
           A3           0.00000   0.00000   0.00000   0.00000   0.00000
           A4           0.00000   0.00000   0.00000   0.00000   0.00000
           A5           0.00000   0.00000   0.00000   0.00000   0.00000
           A6           0.00000   0.00000   0.00000   0.00000   0.00000
           D1           0.00000   0.00000   0.00000   0.00000   0.00000
           D2           0.00000   0.00000   0.00000   0.00000   0.00000
           D3           0.00000   0.00000   0.00000   0.00000   0.00000
           D4           0.00000   0.00000   0.00000   0.00000   0.00000
                          A2        A3        A4        A5        A6
           A2           0.16000
           A3           0.00000   0.16000
           A4           0.00000   0.00000   0.16000
           A5           0.00000   0.00000   0.00000   0.16000
           A6           0.00000   0.00000   0.00000   0.00000   0.16000
           D1           0.00000   0.00000   0.00000   0.00000   0.00000
           D2           0.00000   0.00000   0.00000   0.00000   0.00000
           D3           0.00000   0.00000   0.00000   0.00000   0.00000
           D4           0.00000   0.00000   0.00000   0.00000   0.00000
                          D1        D2        D3        D4
           D1           0.00230
           D2           0.00000   0.00230
           D3           0.00000   0.00000   0.00230
           D4           0.00000   0.00000   0.00000   0.00230
 ITU=  0
     Eigenvalues ---    0.05082   0.05715   0.08641   0.16000   0.16000
     Eigenvalues ---    0.33866   0.33866   0.33866   0.33866
 RFO step:  Lambda=-5.01081964D-04 EMin= 5.08230769D-02
 Linear search not attempted -- first point.
 Iteration  1 RMS(Cart)=  0.01027281 RMS(Int)=  0.00000000
 Iteration  2 RMS(Cart)=  0.00000000 RMS(Int)=  0.00000000
 ClnCor:  largest displacement from symmetrization is 3.48D-14 for atom     4.
 Variable       Old X    -DE/DX   Delta X   Delta X   Delta X     New X
                                 (Linear)    (Quad)   (Total)
    R1        2.07557  -0.00652   0.00000  -0.01922  -0.01922   2.05635
    R2        2.07557  -0.00652   0.00000  -0.01922  -0.01922   2.05635
    R3        2.07557  -0.00652   0.00000  -0.01922  -0.01922   2.05635
    R4        2.07557  -0.00652   0.00000  -0.01922  -0.01922   2.05635
    A1        1.91063  -0.00000   0.00000   0.00000   0.00000   1.91063
    A2        1.91063  -0.00000   0.00000  -0.00000  -0.00000   1.91063
    A3        1.91063   0.00000   0.00000   0.00000  -0.00000   1.91063
    A4        1.91063   0.00000   0.00000   0.00000   0.00000   1.91063
    A5        1.91063   0.00000   0.00000   0.00000  -0.00000   1.91063
    A6        1.91063  -0.00000   0.00000  -0.00000   0.00000   1.91063
    D1       -2.09440   0.00000   0.00000  -0.00000   0.00000  -2.09440
    D2        2.09440   0.00000   0.00000   0.00000   0.00000   2.09440
    D3       -2.09440   0.00000   0.00000   0.00000   0.00000  -2.09440
    D4        2.09440   0.00000   0.00000   0.00000   0.00000   2.09440
         Item               Value     Threshold  Converged?
 Maximum Force            0.006518     0.000450     NO 
 RMS     Force            0.003484     0.000300     NO 
 Maximum Displacement     0.011096     0.001800     NO 
 RMS     Displacement     0.010273     0.001200     NO 
 Predicted change in Energy=-2.509117D-04
 GradGradGradGradGradGradGradGradGradGradGradGradGradGradGradGradGradGrad

                          Input orientation:                          
 ---------------------------------------------------------------------
 Center     Atomic      Atomic             Coordinates (Angstroms)
 Number     Number       Type             X           Y           Z
 ---------------------------------------------------------------------
      1          6           0        0.000000   -0.000000   -0.000000
      2          1           0        0.628258    0.628258    0.628258
      3          1           0       -0.628258   -0.628258    0.628258
      4          1           0       -0.628258    0.628258   -0.628258
      5          1           0        0.628258   -0.628258   -0.628258
 ---------------------------------------------------------------------
                    Distance matrix (angstroms):
                    1          2          3          4          5
     1  C    0.000000
     2  H    1.088175   0.000000
     3  H    1.088175   1.776983   0.000000
     4  H    1.088175   1.776983   1.776983   0.000000
     5  H    1.088175   1.776983   1.776983   1.776983   0.000000
 Stoichiometry    CH4
 Framework group  TD[O(C),4C3(H)]
 Deg. of freedom     1
 Full point group                 TD      NOp  24
 Largest Abelian subgroup         D2      NOp   4
 Largest concise Abelian subgroup D2      NOp   4
                         Standard orientation:                         
 ---------------------------------------------------------------------
 Center     Atomic      Atomic             Coordinates (Angstroms)
 Number     Number       Type             X           Y           Z
 ---------------------------------------------------------------------
      1          6           0        0.000000    0.000000    0.000000
      2          1           0        0.628258    0.628258    0.628258
      3          1           0       -0.628258   -0.628258    0.628258
      4          1           0       -0.628258    0.628258   -0.628258
      5          1           0        0.628258   -0.628258   -0.628258
 ---------------------------------------------------------------------
 Rotational constants (GHZ):         158.8055223         158.8055223         158.8055223
 Standard basis: def2TZVPP (5D, 7F)
 There are    27 symmetry adapted cartesian basis functions of A   symmetry.
 There are    23 symmetry adapted cartesian basis functions of B1  symmetry.
 There are    23 symmetry adapted cartesian basis functions of B2  symmetry.
 There are    23 symmetry adapted cartesian basis functions of B3  symmetry.
 There are    24 symmetry adapted basis functions of A   symmetry.
 There are    21 symmetry adapted basis functions of B1  symmetry.
 There are    21 symmetry adapted basis functions of B2  symmetry.
 There are    21 symmetry adapted basis functions of B3  symmetry.
    87 basis functions,   119 primitive gaussians,    96 cartesian basis functions
     5 alpha electrons        5 beta electrons
       nuclear repulsion energy        13.4579183658 Hartrees.
 NAtoms=    5 NActive=    5 NUniq=    2 SFac= 4.00D+00 NAtFMM=   60 NAOKFM=F Big=F
 Integral buffers will be    131072 words long.
 Raffenetti 2 integral format.
 Two-electron integral symmetry is turned on.
 Nuclear repulsion after empirical dispersion term =       13.4575244994 Hartrees.
 ------------------------------------------------------------------------------
 Polarizable Continuum Model (PCM)
 =================================
 Model                : PCM.
 Atomic radii         : UFF (Universal Force Field).
 Polarization charges : Total charges.
 Charge compensation  : None.
 Solution method      : On-the-fly selection.
 Cavity type          : Scaled VdW (van der Waals Surface) (Alpha=1.100).
 Cavity algorithm     : GePol (No added spheres)
                        Default sphere list used, NSphG=    5.
                        Lebedev-Laikov grids with approx.  5.0 points / Ang**2.
                        Smoothing algorithm: York/Karplus (Gamma=1.0000).
                        Polarization charges: spherical gaussians, with
                                              point-specific exponents (IZeta= 3).
                        Self-potential: point-specific (ISelfS= 7).
                        Self-field    : sphere-specific E.n sum rule (ISelfD= 2).
 1st derivatives      : Analytical E(r).r(x)/FMM algorithm (CHGder, D1EAlg=3).
                        Cavity 1st derivative terms included.
 Solvent              : Dichloromethane, Eps=   8.930000 Eps(inf)=   2.028346
 ------------------------------------------------------------------------------
 Spheres list:
 ISph  on   Nord     Re0    Alpha      Xe            Ye            Ze
    1   C      1    1.9255  1.100      0.000000      0.000000      0.000000
    2   H      2    1.4430  1.100      0.628258      0.628258      0.628258
    3   H      3    1.4430  1.100     -0.628258     -0.628258      0.628258
    4   H      4    1.4430  1.100     -0.628258      0.628258     -0.628258
    5   H      5    1.4430  1.100      0.628258     -0.628258     -0.628258
 ------------------------------------------------------------------------------
 One-electron integrals computed using PRISM.
  24 Symmetry operations used in ECPInt.
 ECPInt:  NShTT=     630 NPrTT=    1412 LenC2=     631 LenP2D=    1382.
 LDataN:  DoStor=T MaxTD1= 6 Len=  172
 NBasis=    87 RedAO= T EigKep=  5.33D-04  NBF=    24    21    21    21
 NBsUse=    87 1.00D-06 EigRej= -1.00D+00 NBFU=    24    21    21    21
 Initial guess from the checkpoint file:  "ch4.chk"
 B after Tr=    -0.000000   -0.000000    0.000000
         Rot=    1.000000   -0.000000    0.000000    0.000000 Ang=   0.00 deg.
 Initial guess orbital symmetries:
       Occupied  (A1) (A1) (T2) (T2) (T2)
       Virtual   (A1) (T2) (T2) (T2) (T2) (T2) (T2) (A1) (T2) (T2)
                 (T2) (E) (E) (A1) (T1) (T1) (T1) (T2) (T2) (T2)
                 (T2) (T2) (T2) (A1) (E) (E) (T2) (T2) (T2) (A1)
                 (T2) (T2) (T2) (T2) (T2) (T2) (A1) (T1) (T1) (T1)
                 (E) (E) (T2) (T2) (T2) (T1) (T1) (T1) (T2) (T2)
                 (T2) (E) (E) (A1) (E) (E) (T2) (T2) (T2) (T1)
                 (T1) (T1) (T2) (T2) (T2) (T2) (T2) (T2) (A1) (A1)
                 (T1) (T1) (T1) (E) (E) (T2) (T2) (T2) (T2) (T2)
                 (T2) (A1)
 Keep R1 ints in memory in symmetry-blocked form, NReq=22388427.
 Requested convergence on RMS density matrix=1.00D-08 within 128 cycles.
 Requested convergence on MAX density matrix=1.00D-06.
 Requested convergence on             energy=1.00D-06.
 No special actions if energy rises.
 Inv3:  Mode=1 IEnd=      696972.
 Iteration    1 A*A^-1 deviation from unit magnitude is 3.11D-15 for     53.
 Iteration    1 A*A^-1 deviation from orthogonality  is 1.76D-15 for    408     88.
 Iteration    1 A^-1*A deviation from unit magnitude is 2.66D-15 for     53.
 Iteration    1 A^-1*A deviation from orthogonality  is 1.67D-15 for    439    185.
 Error on total polarization charges =  0.00731
 SCF Done:  E(RwB97XD) =  -40.5211211030     A.U. after    6 cycles
            NFock=  6  Conv=0.84D-08     -V/T= 2.0068
  24 Symmetry operations used in ECPInt.
 ECPInt:  NShTT=     630 NPrTT=    1412 LenC2=     631 LenP2D=    1382.
 LDataN:  DoStor=T MaxTD1= 7 Len=  274
 D1PCM: PCM CHGder 1st derivatives, ID1Alg=3 FixD1E=F DoIter=F DoCFld=F I1PDM=0.
 Calling FoFJK, ICntrl=      2127 FMM=F ISym2X=1 I1Cent= 0 IOpClX= 0 NMat=1 NMatS=1 NMatT=0.
 ***** Axes restored to original set *****
 -------------------------------------------------------------------
 Center     Atomic                   Forces (Hartrees/Bohr)
 Number     Number              X              Y              Z
 -------------------------------------------------------------------
      1        6          -0.000000000   -0.000000000    0.000000000
      2        1           0.000049567    0.000049567    0.000049567
      3        1          -0.000049567   -0.000049567    0.000049567
      4        1          -0.000049567    0.000049567   -0.000049567
      5        1           0.000049567   -0.000049567   -0.000049567
 -------------------------------------------------------------------
 Cartesian Forces:  Max     0.000049567 RMS     0.000044334

 GradGradGradGradGradGradGradGradGradGradGradGradGradGradGradGradGradGrad
 Berny optimization.
 Using GEDIIS/GDIIS optimizer.
 FormGI is forming the generalized inverse of G from B-inverse, IUseBI=4.
 Internal  Forces:  Max     0.000085853 RMS     0.000045890
 Search for a local minimum.
 Step number   2 out of a maximum of   24
 All quantities printed in internal units (Hartrees-Bohrs-Radians)
 Mixed Optimization -- En-DIIS/RFO-DIIS
 Update second derivatives using D2CorX and points    1    2
 DE= -2.50D-04 DEPred=-2.51D-04 R= 9.95D-01
 TightC=F SS=  1.41D+00  RLast= 3.84D-02 DXNew= 5.0454D-01 1.1531D-01
 Trust test= 9.95D-01 RLast= 3.84D-02 DXMaxT set to 3.00D-01
 The second derivative matrix:
                          R1        R2        R3        R4        A1
           R1           0.33990
           R2           0.00124   0.33990
           R3           0.00124   0.00124   0.33990
           R4           0.00124   0.00124   0.00124   0.33990
           A1           0.00000   0.00000   0.00000   0.00000   0.16000
           A2           0.00000   0.00000   0.00000   0.00000   0.00000
           A3          -0.00000  -0.00000  -0.00000  -0.00000  -0.00000
           A4          -0.00000  -0.00000  -0.00000  -0.00000  -0.00000
           A5          -0.00000  -0.00000  -0.00000  -0.00000  -0.00000
           A6           0.00000   0.00000   0.00000   0.00000   0.00000
           D1          -0.00000  -0.00000  -0.00000  -0.00000  -0.00000
           D2          -0.00000  -0.00000  -0.00000  -0.00000  -0.00000
           D3          -0.00000  -0.00000  -0.00000  -0.00000  -0.00000
           D4           0.00000   0.00000   0.00000   0.00000   0.00000
                          A2        A3        A4        A5        A6
           A2           0.16000
           A3          -0.00000   0.16000
           A4          -0.00000   0.00000   0.16000
           A5          -0.00000   0.00000   0.00000   0.16000
           A6           0.00000  -0.00000  -0.00000  -0.00000   0.16000
           D1          -0.00000   0.00000   0.00000   0.00000  -0.00000
           D2          -0.00000   0.00000   0.00000   0.00000  -0.00000
           D3          -0.00000   0.00000   0.00000   0.00000  -0.00000
           D4           0.00000  -0.00000  -0.00000  -0.00000   0.00000
                          D1        D2        D3        D4
           D1           0.00230
           D2           0.00000   0.00230
           D3           0.00000   0.00000   0.00230
           D4          -0.00000  -0.00000  -0.00000   0.00230
 ITU=  1  0
 Use linear search instead of GDIIS.
     Eigenvalues ---    0.05082   0.05715   0.08641   0.16000   0.16000
     Eigenvalues ---    0.33866   0.33866   0.33866   0.34363
 RFO step:  Lambda= 0.00000000D+00 EMin= 5.08230769D-02
 Quartic linear search produced a step of -0.01264.
 Iteration  1 RMS(Cart)=  0.00012987 RMS(Int)=  0.00000000
 Iteration  2 RMS(Cart)=  0.00000000 RMS(Int)=  0.00000000
 ClnCor:  largest displacement from symmetrization is 1.65D-14 for atom     3.
 Variable       Old X    -DE/DX   Delta X   Delta X   Delta X     New X
                                 (Linear)    (Quad)   (Total)
    R1        2.05635   0.00009   0.00024   0.00000   0.00024   2.05660
    R2        2.05635   0.00009   0.00024  -0.00000   0.00024   2.05660
    R3        2.05635   0.00009   0.00024   0.00000   0.00024   2.05660
    R4        2.05635   0.00009   0.00024  -0.00000   0.00024   2.05660
    A1        1.91063  -0.00000  -0.00000  -0.00000  -0.00000   1.91063
    A2        1.91063   0.00000   0.00000   0.00000   0.00000   1.91063
    A3        1.91063   0.00000   0.00000  -0.00000   0.00000   1.91063
    A4        1.91063   0.00000   0.00000   0.00000   0.00000   1.91063
    A5        1.91063  -0.00000   0.00000  -0.00000  -0.00000   1.91063
    A6        1.91063  -0.00000   0.00000  -0.00000   0.00000   1.91063
    D1       -2.09440  -0.00000   0.00000  -0.00000   0.00000  -2.09440
    D2        2.09440  -0.00000  -0.00000  -0.00000   0.00000   2.09440
    D3       -2.09440  -0.00000   0.00000  -0.00000   0.00000  -2.09440
    D4        2.09440   0.00000   0.00000   0.00000   0.00000   2.09440
         Item               Value     Threshold  Converged?
 Maximum Force            0.000086     0.000450     YES
 RMS     Force            0.000046     0.000300     YES
 Maximum Displacement     0.000140     0.001800     YES
 RMS     Displacement     0.000130     0.001200     YES
 Predicted change in Energy=-4.286699D-08
 Optimization completed.
    -- Stationary point found.
                           ----------------------------
                           !   Optimized Parameters   !
                           ! (Angstroms and Degrees)  !
 --------------------------                            --------------------------
 ! Name  Definition              Value          Derivative Info.                !
 --------------------------------------------------------------------------------
 ! R1    R(1,2)                  1.0882         -DE/DX =    0.0001              !
 ! R2    R(1,3)                  1.0882         -DE/DX =    0.0001              !
 ! R3    R(1,4)                  1.0882         -DE/DX =    0.0001              !
 ! R4    R(1,5)                  1.0882         -DE/DX =    0.0001              !
 ! A1    A(2,1,3)              109.4712         -DE/DX =    0.0                 !
 ! A2    A(2,1,4)              109.4712         -DE/DX =    0.0                 !
 ! A3    A(2,1,5)              109.4712         -DE/DX =    0.0                 !
 ! A4    A(3,1,4)              109.4712         -DE/DX =    0.0                 !
 ! A5    A(3,1,5)              109.4712         -DE/DX =    0.0                 !
 ! A6    A(4,1,5)              109.4712         -DE/DX =    0.0                 !
 ! D1    D(2,1,4,3)           -120.0            -DE/DX =    0.0                 !
 ! D2    D(2,1,5,3)            120.0            -DE/DX =    0.0                 !
 ! D3    D(2,1,5,4)           -120.0            -DE/DX =    0.0                 !
 ! D4    D(3,1,5,4)            120.0            -DE/DX =    0.0                 !
 --------------------------------------------------------------------------------
 GradGradGradGradGradGradGradGradGradGradGradGradGradGradGradGradGradGrad

                          Input orientation:                          
 ---------------------------------------------------------------------
 Center     Atomic      Atomic             Coordinates (Angstroms)
 Number     Number       Type             X           Y           Z
 ---------------------------------------------------------------------
      1          6           0        0.000000    0.000000    0.000000
      2          1           0        0.628258    0.628258    0.628258
      3          1           0       -0.628258   -0.628258    0.628258
      4          1           0       -0.628258    0.628258   -0.628258
      5          1           0        0.628258   -0.628258   -0.628258
 ---------------------------------------------------------------------
                    Distance matrix (angstroms):
                    1          2          3          4          5
     1  C    0.000000
     2  H    1.088175   0.000000
     3  H    1.088175   1.776983   0.000000
     4  H    1.088175   1.776983   1.776983   0.000000
     5  H    1.088175   1.776983   1.776983   1.776983   0.000000
 Stoichiometry    CH4
 Framework group  TD[O(C),4C3(H)]
 Deg. of freedom     1
 Full point group                 TD      NOp  24
 Largest Abelian subgroup         D2      NOp   4
 Largest concise Abelian subgroup D2      NOp   4
                         Standard orientation:                         
 ---------------------------------------------------------------------
 Center     Atomic      Atomic             Coordinates (Angstroms)
 Number     Number       Type             X           Y           Z
 ---------------------------------------------------------------------
      1          6           0        0.000000    0.000000    0.000000
      2          1           0        0.628258    0.628258    0.628258
      3          1           0       -0.628258   -0.628258    0.628258
      4          1           0       -0.628258    0.628258   -0.628258
      5          1           0        0.628258   -0.628258   -0.628258
 ---------------------------------------------------------------------
 Rotational constants (GHZ):         158.8055223         158.8055223         158.8055223

 **********************************************************************

            Population analysis using the SCF Density.

 **********************************************************************

 Orbital symmetries:
       Occupied  (A1) (A1) (T2) (T2) (T2)
       Virtual   (A1) (T2) (T2) (T2) (T2) (T2) (T2) (A1) (T2) (T2)
                 (T2) (E) (E) (A1) (T1) (T1) (T1) (T2) (T2) (T2)
                 (T2) (T2) (T2) (A1) (E) (E) (T2) (T2) (T2) (A1)
                 (T2) (T2) (T2) (T2) (T2) (T2) (A1) (E) (E) (T1)
                 (T1) (T1) (T2) (T2) (T2) (T1) (T1) (T1) (T2) (T2)
                 (T2) (E) (E) (A1) (E) (E) (T2) (T2) (T2) (T1)
                 (T1) (T1) (T2) (T2) (T2) (T2) (T2) (T2) (A1) (T1)
                 (T1) (T1) (A1) (E) (E) (T2) (T2) (T2) (T2) (T2)
                 (T2) (A1)
 The electronic state is 1-A1.
 Alpha  occ. eigenvalues --  -10.26209  -0.79115  -0.47615  -0.47615  -0.47615
 Alpha virt. eigenvalues --    0.13188   0.20755   0.20755   0.20755   0.28306
 Alpha virt. eigenvalues --    0.28306   0.28306   0.47041   0.54610   0.54610
 Alpha virt. eigenvalues --    0.54610   0.58500   0.58500   0.59320   0.96289
 Alpha virt. eigenvalues --    0.96289   0.96289   1.01552   1.01552   1.01552
 Alpha virt. eigenvalues --    1.16902   1.16902   1.16902   1.39890   1.47580
 Alpha virt. eigenvalues --    1.47580   1.52061   1.52061   1.52061   1.62045
 Alpha virt. eigenvalues --    1.93021   1.93021   1.93021   2.60297   2.60297
 Alpha virt. eigenvalues --    2.60297   2.72532   2.90150   2.90150   2.90798
 Alpha virt. eigenvalues --    2.90798   2.90798   2.97372   2.97372   2.97372
 Alpha virt. eigenvalues --    3.40013   3.40013   3.40013   3.46411   3.46411
 Alpha virt. eigenvalues --    3.46411   3.58824   3.58824   3.75133   3.88747
 Alpha virt. eigenvalues --    3.88747   3.99579   3.99579   3.99579   4.17271
 Alpha virt. eigenvalues --    4.17271   4.17271   4.31944   4.31944   4.31944
 Alpha virt. eigenvalues --    4.65818   4.65818   4.65818   4.92235   5.24828
 Alpha virt. eigenvalues --    5.24828   5.24828   5.25506   5.38714   5.38714
 Alpha virt. eigenvalues --    5.41201   5.41201   5.41201   5.67087   5.67087
 Alpha virt. eigenvalues --    5.67087  23.93043
          Condensed to atoms (all electrons):
               1          2          3          4          5
     1  C    4.766055   0.402916   0.402916   0.402916   0.402916
     2  H    0.402916   0.557719  -0.018355  -0.018355  -0.018355
     3  H    0.402916  -0.018355   0.557719  -0.018355  -0.018355
     4  H    0.402916  -0.018355  -0.018355   0.557719  -0.018355
     5  H    0.402916  -0.018355  -0.018355  -0.018355   0.557719
 Mulliken charges:
               1
     1  C   -0.377719
     2  H    0.094430
     3  H    0.094430
     4  H    0.094430
     5  H    0.094430
 Sum of Mulliken charges =  -0.00000
 Mulliken charges with hydrogens summed into heavy atoms:
               1
     1  C   -0.000000
 Electronic spatial extent (au):  <R**2>=             35.5618
 Charge=             -0.0000 electrons
 Dipole moment (field-independent basis, Debye):
    X=              0.0000    Y=              0.0000    Z=              0.0000  Tot=              0.0000
 Quadrupole moment (field-independent basis, Debye-Ang):
   XX=             -8.3605   YY=             -8.3605   ZZ=             -8.3605
   XY=             -0.0000   XZ=              0.0000   YZ=              0.0000
 Traceless Quadrupole moment (field-independent basis, Debye-Ang):
   XX=             -0.0000   YY=              0.0000   ZZ=              0.0000
   XY=             -0.0000   XZ=              0.0000   YZ=              0.0000
 Octapole moment (field-independent basis, Debye-Ang**2):
  XXX=             -0.0000  YYY=              0.0000  ZZZ=              0.0000  XYY=              0.0000
  XXY=             -0.0000  XXZ=              0.0000  XZZ=             -0.0000  YZZ=              0.0000
  YYZ=             -0.0000  XYZ=              0.7548
 Hexadecapole moment (field-independent basis, Debye-Ang**3):
 XXXX=            -16.7401 YYYY=            -16.7401 ZZZZ=            -16.7401 XXXY=             -0.0000
 XXXZ=             -0.0000 YYYX=             -0.0000 YYYZ=              0.0000 ZZZX=             -0.0000
 ZZZY=              0.0000 XXYY=             -5.0455 XXZZ=             -5.0455 YYZZ=             -5.0455
 XXYZ=             -0.0000 YYXZ=             -0.0000 ZZXY=             -0.0000
 N-N= 1.345752449942D+01 E-N=-1.201639216011D+02  KE= 4.024894152723D+01
 Symmetry A    KE= 3.441744210022D+01
 Symmetry B1   KE= 1.943833142338D+00
 Symmetry B2   KE= 1.943833142338D+00
 Symmetry B3   KE= 1.943833142338D+00
 Unable to Open any file for archive entry.
 1\1\GINC-NODE001\FOpt\RwB97XD\def2TZVPP\C1H4\MVANVLEET\05-Mar-2024\0\\
 # wb97xd def2TZVPP SCRF=(solvent=dichloromethane) opt freq\\ch4\\0,1\C
 ,0.,0.,0.\H,0.6282582995,0.6282582995,0.6282582995\H,-0.6282582995,-0.
 6282582995,0.6282582995\H,-0.6282582995,0.6282582995,-0.6282582995\H,0
 .6282582995,-0.6282582995,-0.6282582995\\Version=ES64L-G16RevC.01\Stat
 e=1-A1\HF=-40.5211211\RMSD=8.388e-09\RMSF=4.433e-05\Dipole=0.,0.,0.\Qu
 adrupole=0.,0.,0.,0.,0.,0.\PG=TD [O(C1),4C3(H1)]\\@
 The archive entry for this job was punched.


 ... THE UNIVERSE IS NOT ONLY QUEERER THAN WE SUPPOSE,
 BUT QUEERER THAN WE CAN SUPPOSE ... 

                                   -- J. B. S. HALDANE
 Job cpu time:       0 days  0 hours  0 minutes 48.0 seconds.
 Elapsed time:       0 days  0 hours  0 minutes  6.7 seconds.
 File lengths (MBytes):  RWF=     11 Int=      0 D2E=      0 Chk=      2 Scr=      1
 Normal termination of Gaussian 16 at Tue Mar  5 21:40:10 2024.
 Link1:  Proceeding to internal job step number  2.
 ----------------------------------------------------------------------
 #N Geom=AllCheck Guess=TCheck SCRF=Check GenChk RwB97XD/def2TZVPP Freq
 ----------------------------------------------------------------------
 1/10=4,29=7,30=1,38=1,40=1/1,3;
 2/12=2,40=1/2;
 3/5=44,7=202,11=2,14=-4,25=1,30=1,70=2,71=2,74=-58,116=1,140=1/1,2,3;
 4/5=101/1;
 5/5=2,38=6,98=1/2;
 8/6=4,10=90,11=11/1;
 11/6=1,8=1,9=11,15=111,16=1/1,2,10;
 10/6=1/2;
 6/7=2,8=2,9=2,10=2,28=1/1;
 7/8=1,10=1,25=1/1,2,3,16;
 1/10=4,30=1/3;
 99//99;
 Structure from the checkpoint file:  "ch4.chk"
 ---
 ch4
 ---
 Charge =  0 Multiplicity = 1
 Redundant internal coordinates found in file.  (old form).
 C,0,0.,0.,0.
 H,0,0.6282582995,0.6282582995,0.6282582995
 H,0,-0.6282582995,-0.6282582995,0.6282582995
 H,0,-0.6282582995,0.6282582995,-0.6282582995
 H,0,0.6282582995,-0.6282582995,-0.6282582995
 Recover connectivity data from disk.

 GradGradGradGradGradGradGradGradGradGradGradGradGradGradGradGradGradGrad
 Berny optimization.
 Initialization pass.
                           ----------------------------
                           !    Initial Parameters    !
                           ! (Angstroms and Degrees)  !
 --------------------------                            --------------------------
 ! Name  Definition              Value          Derivative Info.                !
 --------------------------------------------------------------------------------
 ! R1    R(1,2)                  1.0882         calculate D2E/DX2 analytically  !
 ! R2    R(1,3)                  1.0882         calculate D2E/DX2 analytically  !
 ! R3    R(1,4)                  1.0882         calculate D2E/DX2 analytically  !
 ! R4    R(1,5)                  1.0882         calculate D2E/DX2 analytically  !
 ! A1    A(2,1,3)              109.4712         calculate D2E/DX2 analytically  !
 ! A2    A(2,1,4)              109.4712         calculate D2E/DX2 analytically  !
 ! A3    A(2,1,5)              109.4712         calculate D2E/DX2 analytically  !
 ! A4    A(3,1,4)              109.4712         calculate D2E/DX2 analytically  !
 ! A5    A(3,1,5)              109.4712         calculate D2E/DX2 analytically  !
 ! A6    A(4,1,5)              109.4712         calculate D2E/DX2 analytically  !
 ! D1    D(2,1,4,3)           -120.0            calculate D2E/DX2 analytically  !
 ! D2    D(2,1,5,3)            120.0            calculate D2E/DX2 analytically  !
 ! D3    D(2,1,5,4)           -120.0            calculate D2E/DX2 analytically  !
 ! D4    D(3,1,5,4)            120.0            calculate D2E/DX2 analytically  !
 --------------------------------------------------------------------------------
 Trust Radius=3.00D-01 FncErr=1.00D-07 GrdErr=1.00D-07 EigMax=2.50D+02 EigMin=1.00D-04
 Number of steps in this run=      2 maximum allowed number of steps=      2.
 GradGradGradGradGradGradGradGradGradGradGradGradGradGradGradGradGradGrad

                          Input orientation:                          
 ---------------------------------------------------------------------
 Center     Atomic      Atomic             Coordinates (Angstroms)
 Number     Number       Type             X           Y           Z
 ---------------------------------------------------------------------
      1          6           0        0.000000   -0.000000    0.000000
      2          1           0        0.628258    0.628258    0.628258
      3          1           0       -0.628258   -0.628258    0.628258
      4          1           0       -0.628258    0.628258   -0.628258
      5          1           0        0.628258   -0.628258   -0.628258
 ---------------------------------------------------------------------
                    Distance matrix (angstroms):
                    1          2          3          4          5
     1  C    0.000000
     2  H    1.088175   0.000000
     3  H    1.088175   1.776983   0.000000
     4  H    1.088175   1.776983   1.776983   0.000000
     5  H    1.088175   1.776983   1.776983   1.776983   0.000000
 Stoichiometry    CH4
 Framework group  TD[O(C),4C3(H)]
 Deg. of freedom     1
 Full point group                 TD      NOp  24
 Largest Abelian subgroup         D2      NOp   4
 Largest concise Abelian subgroup D2      NOp   4
                         Standard orientation:                         
 ---------------------------------------------------------------------
 Center     Atomic      Atomic             Coordinates (Angstroms)
 Number     Number       Type             X           Y           Z
 ---------------------------------------------------------------------
      1          6           0        0.000000    0.000000    0.000000
      2          1           0        0.628258    0.628258    0.628258
      3          1           0       -0.628258   -0.628258    0.628258
      4          1           0       -0.628258    0.628258   -0.628258
      5          1           0        0.628258   -0.628258   -0.628258
 ---------------------------------------------------------------------
 Rotational constants (GHZ):         158.8055223         158.8055223         158.8055223
 Standard basis: def2TZVPP (5D, 7F)
 There are    27 symmetry adapted cartesian basis functions of A   symmetry.
 There are    23 symmetry adapted cartesian basis functions of B1  symmetry.
 There are    23 symmetry adapted cartesian basis functions of B2  symmetry.
 There are    23 symmetry adapted cartesian basis functions of B3  symmetry.
 There are    24 symmetry adapted basis functions of A   symmetry.
 There are    21 symmetry adapted basis functions of B1  symmetry.
 There are    21 symmetry adapted basis functions of B2  symmetry.
 There are    21 symmetry adapted basis functions of B3  symmetry.
    87 basis functions,   119 primitive gaussians,    96 cartesian basis functions
     5 alpha electrons        5 beta electrons
       nuclear repulsion energy        13.4579183658 Hartrees.
 NAtoms=    5 NActive=    5 NUniq=    2 SFac= 4.00D+00 NAtFMM=   60 NAOKFM=F Big=F
 Integral buffers will be    131072 words long.
 Raffenetti 2 integral format.
 Two-electron integral symmetry is turned on.
 Nuclear repulsion after empirical dispersion term =       13.4575244994 Hartrees.
 Force inversion solution in PCM.
 ------------------------------------------------------------------------------
 Polarizable Continuum Model (PCM)
 =================================
 Model                : PCM.
 Atomic radii         : UFF (Universal Force Field).
 Polarization charges : Total charges.
 Charge compensation  : None.
 Solution method      : Matrix inversion.
 Cavity type          : Scaled VdW (van der Waals Surface) (Alpha=1.100).
 Cavity algorithm     : GePol (No added spheres)
                        Default sphere list used, NSphG=    5.
                        Lebedev-Laikov grids with approx.  5.0 points / Ang**2.
                        Smoothing algorithm: York/Karplus (Gamma=1.0000).
                        Polarization charges: spherical gaussians, with
                                              point-specific exponents (IZeta= 3).
                        Self-potential: point-specific (ISelfS= 7).
                        Self-field    : sphere-specific E.n sum rule (ISelfD= 2).
 1st derivatives      : Analytical E(r).r(x)/FMM algorithm (CHGder, D1EAlg=3).
                        Cavity 1st derivative terms included.
 2nd derivatives      : Analytical E(r).r(xy)/FMM algorithm (CHGder, D2EAlg=3).
                        Cavity 2nd derivative terms included.
 Solvent              : Dichloromethane, Eps=   8.930000 Eps(inf)=   2.028346
 ------------------------------------------------------------------------------
 Spheres list:
 ISph  on   Nord     Re0    Alpha      Xe            Ye            Ze
    1   C      1    1.9255  1.100      0.000000      0.000000      0.000000
    2   H      2    1.4430  1.100      0.628258      0.628258      0.628258
    3   H      3    1.4430  1.100     -0.628258     -0.628258      0.628258
    4   H      4    1.4430  1.100     -0.628258      0.628258     -0.628258
    5   H      5    1.4430  1.100      0.628258     -0.628258     -0.628258
 ------------------------------------------------------------------------------
 One-electron integrals computed using PRISM.
  24 Symmetry operations used in ECPInt.
 ECPInt:  NShTT=     630 NPrTT=    1412 LenC2=     631 LenP2D=    1382.
 LDataN:  DoStor=T MaxTD1= 6 Len=  172
 NBasis=    87 RedAO= T EigKep=  5.33D-04  NBF=    24    21    21    21
 NBsUse=    87 1.00D-06 EigRej= -1.00D+00 NBFU=    24    21    21    21
 Initial guess from the checkpoint file:  "ch4.chk"
 B after Tr=     0.000000    0.000000   -0.000000
         Rot=    1.000000    0.000000   -0.000000    0.000000 Ang=   0.00 deg.
 Initial guess orbital symmetries:
       Occupied  (A1) (A1) (T2) (T2) (T2)
       Virtual   (A1) (T2) (T2) (T2) (T2) (T2) (T2) (A1) (T2) (T2)
                 (T2) (E) (E) (A1) (T1) (T1) (T1) (T2) (T2) (T2)
                 (T2) (T2) (T2) (A1) (E) (E) (T2) (T2) (T2) (A1)
                 (T2) (T2) (T2) (T2) (T2) (T2) (A1) (E) (E) (T1)
                 (T1) (T1) (T2) (T2) (T2) (T1) (T1) (T1) (T2) (T2)
                 (T2) (E) (E) (A1) (E) (E) (T2) (T2) (T2) (T1)
                 (T1) (T1) (T2) (T2) (T2) (T2) (T2) (T2) (A1) (T1)
                 (T1) (T1) (A1) (E) (E) (T2) (T2) (T2) (T2) (T2)
                 (T2) (A1)
 Keep R1 ints in memory in symmetry-blocked form, NReq=22388427.
 Requested convergence on RMS density matrix=1.00D-08 within 128 cycles.
 Requested convergence on MAX density matrix=1.00D-06.
 Requested convergence on             energy=1.00D-06.
 No special actions if energy rises.
 Inv3:  Mode=1 IEnd=      696972.
 Iteration    1 A*A^-1 deviation from unit magnitude is 3.11D-15 for     51.
 Iteration    1 A*A^-1 deviation from orthogonality  is 2.78D-15 for    408     88.
 Iteration    1 A^-1*A deviation from unit magnitude is 2.66D-15 for     11.
 Iteration    1 A^-1*A deviation from orthogonality  is 1.56D-15 for    381    100.
 Error on total polarization charges =  0.00731
 SCF Done:  E(RwB97XD) =  -40.5211211030     A.U. after    1 cycles
            NFock=  1  Conv=0.12D-08     -V/T= 2.0068
 DoSCS=F DFT=T ScalE2(SS,OS)=  1.000000  1.000000
 Range of M.O.s used for correlation:     1    87
 NBasis=    87 NAE=     5 NBE=     5 NFC=     0 NFV=     0
 NROrb=     87 NOA=     5 NOB=     5 NVA=    82 NVB=    82

 **** Warning!!: The largest alpha MO coefficient is  0.22449768D+02

  24 Symmetry operations used in ECPInt.
 ECPInt:  NShTT=     630 NPrTT=    1412 LenC2=     631 LenP2D=    1382.
 LDataN:  DoStor=T MaxTD1= 7 Len=  274
 Symmetrizing basis deriv contribution to polar:
 IMax=3 JMax=2 DiffMx= 0.00D+00
 G2DrvN: will do     6 centers at a time, making    1 passes.
 Calling FoFCou, ICntrl=  3107 FMM=F I1Cent=   0 AccDes= 0.00D+00.
 NEqPCM:  Using equilibrium solvation (IEInf=0, Eps=   8.9300, EpsInf=   2.0283)
 G2PCM: DoFxE=T DoFxN=T DoGrad=T DoDP/DQ/DG/TGxP=FFFF NFrqRd=   0 IEInf=0 SqF1=F DoCFld=F IF1Alg=4.
 End of G2Drv F.D. properties file   721 does not exist.
 End of G2Drv F.D. properties file   722 does not exist.
 End of G2Drv F.D. properties file   788 does not exist.
          IDoAtm=11111
 NEqPCM:  Using equilibrium solvation (IEInf=0, Eps=   8.9300, EpsInf=   2.0283)
          Differentiating once with respect to electric field.
                with respect to dipole field.
          Differentiating once with respect to nuclear coordinates.
 Keep R1 ints in memory in symmetry-blocked form, NReq=22365263.
          There are     9 degrees of freedom in the 1st order CPHF.  IDoFFX=4 NUNeed=     9.
      9 vectors produced by pass  0 Test12= 4.56D-15 1.11D-08 XBig12= 4.83D+00 1.08D+00.
 AX will form     9 AO Fock derivatives at one time.
      9 vectors produced by pass  1 Test12= 4.56D-15 1.11D-08 XBig12= 1.55D-01 1.70D-01.
      9 vectors produced by pass  2 Test12= 4.56D-15 1.11D-08 XBig12= 1.62D-03 1.66D-02.
      9 vectors produced by pass  3 Test12= 4.56D-15 1.11D-08 XBig12= 1.26D-05 1.33D-03.
      9 vectors produced by pass  4 Test12= 4.56D-15 1.11D-08 XBig12= 3.80D-08 5.39D-05.
      9 vectors produced by pass  5 Test12= 4.56D-15 1.11D-08 XBig12= 1.25D-10 3.18D-06.
      4 vectors produced by pass  6 Test12= 4.56D-15 1.11D-08 XBig12= 3.66D-13 1.70D-07.
 InvSVY:  IOpt=1 It=  1 EMax= 8.88D-16
 Solved reduced A of dimension    58 with     9 vectors.
 Isotropic polarizability for W=    0.000000       17.92 Bohr**3.
 End of Minotr F.D. properties file   721 does not exist.
 End of Minotr F.D. properties file   722 does not exist.
 End of Minotr F.D. properties file   788 does not exist.

 **********************************************************************

            Population analysis using the SCF Density.

 **********************************************************************

 Orbital symmetries:
       Occupied  (A1) (A1) (T2) (T2) (T2)
       Virtual   (A1) (T2) (T2) (T2) (T2) (T2) (T2) (A1) (T2) (T2)
                 (T2) (E) (E) (A1) (T1) (T1) (T1) (T2) (T2) (T2)
                 (T2) (T2) (T2) (A1) (E) (E) (T2) (T2) (T2) (A1)
                 (T2) (T2) (T2) (T2) (T2) (T2) (A1) (E) (E) (T1)
                 (T1) (T1) (T2) (T2) (T2) (T1) (T1) (T1) (T2) (T2)
                 (T2) (E) (E) (A1) (E) (E) (T2) (T2) (T2) (T1)
                 (T1) (T1) (T2) (T2) (T2) (T2) (T2) (T2) (A1) (T1)
                 (T1) (T1) (A1) (E) (E) (T2) (T2) (T2) (T2) (T2)
                 (T2) (A1)
 The electronic state is 1-A1.
 Alpha  occ. eigenvalues --  -10.26209  -0.79115  -0.47615  -0.47615  -0.47615
 Alpha virt. eigenvalues --    0.13188   0.20755   0.20755   0.20755   0.28306
 Alpha virt. eigenvalues --    0.28306   0.28306   0.47041   0.54610   0.54610
 Alpha virt. eigenvalues --    0.54610   0.58500   0.58500   0.59320   0.96289
 Alpha virt. eigenvalues --    0.96289   0.96289   1.01552   1.01552   1.01552
 Alpha virt. eigenvalues --    1.16902   1.16902   1.16902   1.39890   1.47580
 Alpha virt. eigenvalues --    1.47580   1.52061   1.52061   1.52061   1.62045
 Alpha virt. eigenvalues --    1.93021   1.93021   1.93021   2.60297   2.60297
 Alpha virt. eigenvalues --    2.60297   2.72532   2.90150   2.90150   2.90798
 Alpha virt. eigenvalues --    2.90798   2.90798   2.97372   2.97372   2.97372
 Alpha virt. eigenvalues --    3.40013   3.40013   3.40013   3.46411   3.46411
 Alpha virt. eigenvalues --    3.46411   3.58824   3.58824   3.75133   3.88747
 Alpha virt. eigenvalues --    3.88747   3.99579   3.99579   3.99579   4.17271
 Alpha virt. eigenvalues --    4.17271   4.17271   4.31944   4.31944   4.31944
 Alpha virt. eigenvalues --    4.65818   4.65818   4.65818   4.92235   5.24828
 Alpha virt. eigenvalues --    5.24828   5.24828   5.25506   5.38714   5.38714
 Alpha virt. eigenvalues --    5.41201   5.41201   5.41201   5.67087   5.67087
 Alpha virt. eigenvalues --    5.67087  23.93043
          Condensed to atoms (all electrons):
               1          2          3          4          5
     1  C    4.766055   0.402916   0.402916   0.402916   0.402916
     2  H    0.402916   0.557719  -0.018355  -0.018355  -0.018355
     3  H    0.402916  -0.018355   0.557719  -0.018355  -0.018355
     4  H    0.402916  -0.018355  -0.018355   0.557719  -0.018355
     5  H    0.402916  -0.018355  -0.018355  -0.018355   0.557719
 Mulliken charges:
               1
     1  C   -0.377719
     2  H    0.094430
     3  H    0.094430
     4  H    0.094430
     5  H    0.094430
 Sum of Mulliken charges =   0.00000
 Mulliken charges with hydrogens summed into heavy atoms:
               1
     1  C    0.000000
 APT charges:
               1
     1  C   -0.019286
     2  H    0.004821
     3  H    0.004821
     4  H    0.004821
     5  H    0.004821
 Sum of APT charges =   0.00000
 APT charges with hydrogens summed into heavy atoms:
               1
     1  C    0.000000
 Electronic spatial extent (au):  <R**2>=             35.5618
 Charge=              0.0000 electrons
 Dipole moment (field-independent basis, Debye):
    X=              0.0000    Y=              0.0000    Z=              0.0000  Tot=              0.0000
 Quadrupole moment (field-independent basis, Debye-Ang):
   XX=             -8.3605   YY=             -8.3605   ZZ=             -8.3605
   XY=              0.0000   XZ=              0.0000   YZ=              0.0000
 Traceless Quadrupole moment (field-independent basis, Debye-Ang):
   XX=             -0.0000   YY=              0.0000   ZZ=              0.0000
   XY=              0.0000   XZ=              0.0000   YZ=              0.0000
 Octapole moment (field-independent basis, Debye-Ang**2):
  XXX=             -0.0000  YYY=              0.0000  ZZZ=              0.0000  XYY=             -0.0000
  XXY=              0.0000  XXZ=              0.0000  XZZ=             -0.0000  YZZ=              0.0000
  YYZ=              0.0000  XYZ=              0.7548
 Hexadecapole moment (field-independent basis, Debye-Ang**3):
 XXXX=            -16.7401 YYYY=            -16.7401 ZZZZ=            -16.7401 XXXY=              0.0000
 XXXZ=             -0.0000 YYYX=              0.0000 YYYZ=              0.0000 ZZZX=              0.0000
 ZZZY=             -0.0000 XXYY=             -5.0455 XXZZ=             -5.0455 YYZZ=             -5.0455
 XXYZ=              0.0000 YYXZ=              0.0000 ZZXY=             -0.0000
 N-N= 1.345752449942D+01 E-N=-1.201639214861D+02  KE= 4.024894145444D+01
 Symmetry A    KE= 3.441744203549D+01
 Symmetry B1   KE= 1.943833139650D+00
 Symmetry B2   KE= 1.943833139650D+00
 Symmetry B3   KE= 1.943833139650D+00
  Exact polarizability:      17.916      -0.000      17.916      -0.000      -0.000      17.916
 Approx polarizability:      14.938      -0.000      14.938       0.000      -0.000      14.938
  24 Symmetry operations used in ECPInt.
 ECPInt:  NShTT=     630 NPrTT=    1412 LenC2=     631 LenP2D=    1382.
 LDataN:  DoStor=T MaxTD1= 8 Len=  415
 D2PCM: PCM CHGder 2nd derivatives, FixD1E=F FixD2E=F DoIter=F DoCFld=F I1PDM=0
 Calling FoFJK, ICntrl=    100127 FMM=F ISym2X=1 I1Cent= 0 IOpClX= 0 NMat=1 NMatS=1 NMatT=0.
 Full mass-weighted force constant matrix:
 Low frequencies ---   -0.0010   -0.0006   -0.0005   63.0469   63.0469   63.0469
 Low frequencies --- 1333.6132 1333.6132 1333.6132
 Diagonal vibrational polarizability:
        0.3650435       0.3650435       0.3650435
 Harmonic frequencies (cm**-1), IR intensities (KM/Mole), Raman scattering
 activities (A**4/AMU), depolarization ratios for plane and unpolarized
 incident light, reduced masses (AMU), force constants (mDyne/A),
 and normal coordinates:
                      1                      2                      3
                     T2                     T2                     T2
 Frequencies --   1333.6132              1333.6132              1333.6132
 Red. masses --      1.1787                 1.1787                 1.1787
 Frc consts  --      1.2351                 1.2351                 1.2351
 IR Inten    --     19.3825                19.3825                19.3825
  Atom  AN      X      Y      Z        X      Y      Z        X      Y      Z
     1   6    -0.01  -0.09  -0.09    -0.00  -0.09   0.09     0.12  -0.01  -0.01
     2   1    -0.30   0.08   0.08    -0.00   0.43  -0.43    -0.39   0.24   0.24
     3   1     0.02   0.41   0.44    -0.33   0.10  -0.10    -0.37   0.26  -0.21
     4   1     0.02   0.44   0.41     0.33   0.10  -0.10    -0.37  -0.21   0.26
     5   1     0.35   0.11   0.11     0.00   0.43  -0.43    -0.35  -0.23  -0.23
                      4                      5                      6
                      E                      E                     A1
 Frequencies --   1549.8608              1549.8608              3044.2778
 Red. masses --      1.0078                 1.0078                 1.0078
 Frc consts  --      1.4263                 1.4263                 5.5031
 IR Inten    --      0.0000                 0.0000                 0.0000
  Atom  AN      X      Y      Z        X      Y      Z        X      Y      Z
     1   6     0.00  -0.00   0.00    -0.00   0.00   0.00     0.00   0.00   0.00
     2   1    -0.00   0.35  -0.35     0.41  -0.20  -0.20     0.29   0.29   0.29
     3   1     0.00  -0.35  -0.35    -0.41   0.20  -0.20    -0.29  -0.29   0.29
     4   1     0.00   0.35   0.35    -0.41  -0.20   0.20    -0.29   0.29  -0.29
     5   1    -0.00  -0.35   0.35     0.41   0.20   0.20     0.29  -0.29  -0.29
                      7                      8                      9
                     T2                     T2                     T2
 Frequencies --   3164.2974              3164.2974              3164.2974
 Red. masses --      1.1019                 1.1019                 1.1019
 Frc consts  --      6.5005                 6.5005                 6.5005
 IR Inten    --     26.7008                26.7008                26.7008
  Atom  AN      X      Y      Z        X      Y      Z        X      Y      Z
     1   6     0.09  -0.01  -0.01    -0.00   0.07  -0.07    -0.02  -0.06  -0.06
     2   1    -0.19  -0.21  -0.21     0.00   0.01  -0.01     0.46   0.45   0.45
     3   1    -0.27  -0.29   0.28    -0.41  -0.40   0.40     0.06   0.05  -0.07
     4   1    -0.27   0.28  -0.29     0.41  -0.40   0.40     0.06  -0.07   0.05
     5   1    -0.35   0.37   0.37    -0.00   0.01  -0.01    -0.35   0.33   0.33

 -------------------
 - Thermochemistry -
 -------------------
 Temperature   298.150 Kelvin.  Pressure   1.00000 Atm.
 Atom     1 has atomic number  6 and mass  12.00000
 Atom     2 has atomic number  1 and mass   1.00783
 Atom     3 has atomic number  1 and mass   1.00783
 Atom     4 has atomic number  1 and mass   1.00783
 Atom     5 has atomic number  1 and mass   1.00783
 Molecular mass:    16.03130 amu.
 Principal axes and moments of inertia in atomic units:
                           1         2         3
     Eigenvalues --    11.36447  11.36447  11.36447
           X            0.00000   0.90167  -0.43242
           Y            0.00000   0.43242   0.90167
           Z            1.00000   0.00000  -0.00000
 This molecule is a spherical top.
 Rotational symmetry number 12.
 Rotational temperatures (Kelvin)      7.62146     7.62146     7.62146
 Rotational constants (GHZ):         158.80552   158.80552   158.80552
 Zero-point vibrational energy     117459.7 (Joules/Mol)
                                   28.07355 (Kcal/Mol)
 Vibrational temperatures:   1918.77  1918.77  1918.77  2229.90  2229.90
          (Kelvin)           4380.04  4552.72  4552.72  4552.72
 
 Zero-point correction=                           0.044738 (Hartree/Particle)
 Thermal correction to Energy=                    0.047608
 Thermal correction to Enthalpy=                  0.048552
 Thermal correction to Gibbs Free Energy=         0.027427
 Sum of electronic and zero-point Energies=            -40.476383
 Sum of electronic and thermal Energies=               -40.473513
 Sum of electronic and thermal Enthalpies=             -40.472569
 Sum of electronic and thermal Free Energies=          -40.493694
 
                     E (Thermal)             CV                S
                      KCal/Mol        Cal/Mol-Kelvin    Cal/Mol-Kelvin
 Total                   29.874              6.485             44.461
 Electronic               0.000              0.000              0.000
 Translational            0.889              2.981             34.261
 Rotational               0.889              2.981             10.110
 Vibrational             28.097              0.523              0.090
                       Q            Log10(Q)             Ln(Q)
 Total Bot       0.242339D-12        -12.615576        -29.048438
 Total V=0       0.917228D+08          7.962477         18.334282
 Vib (Bot)       0.265784D-20        -20.575472        -47.376774
 Vib (V=0)       0.100596D+01          0.002582          0.005945
 Electronic      0.100000D+01          0.000000          0.000000
 Translational   0.252294D+07          6.401907         14.740936
 Rotational      0.361400D+02          1.557988          3.587401
 ***** Axes restored to original set *****
 -------------------------------------------------------------------
 Center     Atomic                   Forces (Hartrees/Bohr)
 Number     Number              X              Y              Z
 -------------------------------------------------------------------
      1        6          -0.000000000    0.000000000   -0.000000000
      2        1           0.000049566    0.000049566    0.000049566
      3        1          -0.000049566   -0.000049566    0.000049566
      4        1          -0.000049566    0.000049566   -0.000049566
      5        1           0.000049566   -0.000049566   -0.000049566
 -------------------------------------------------------------------
 Cartesian Forces:  Max     0.000049566 RMS     0.000044334
 FormGI is forming the generalized inverse of G from B-inverse, IUseBI=4.

 GradGradGradGradGradGradGradGradGradGradGradGradGradGradGradGradGradGrad
 Berny optimization.
 Internal  Forces:  Max     0.000085852 RMS     0.000045890
 Search for a local minimum.
 Step number   1 out of a maximum of    2
 All quantities printed in internal units (Hartrees-Bohrs-Radians)
 Second derivative matrix not updated -- analytic derivatives used.
 The second derivative matrix:
                          R1        R2        R3        R4        A1
           R1           0.34838
           R2           0.00170   0.34838
           R3           0.00170   0.00170   0.34838
           R4           0.00170   0.00170   0.00170   0.34838
           A1           0.00186   0.00186  -0.00117  -0.00255   0.01916
           A2           0.00291  -0.00075   0.00324  -0.00540  -0.00850
           A3           0.00569  -0.00457  -0.00506   0.00393  -0.01269
           A4          -0.00075   0.00291   0.00324  -0.00540  -0.00850
           A5          -0.00457   0.00569  -0.00506   0.00393  -0.01269
           A6          -0.00514  -0.00514   0.00480   0.00549   0.02323
           D1          -0.00360  -0.00360  -0.00254   0.00974  -0.01305
           D2           0.00296   0.00296  -0.00762   0.00169   0.00791
           D3          -0.00390   0.00687  -0.00381   0.00085   0.00396
           D4          -0.00687   0.00390   0.00381  -0.00085  -0.00396
                          A2        A3        A4        A5        A6
           A2           0.03612
           A3          -0.02195   0.07056
           A4          -0.00201   0.02409   0.03612
           A5           0.02409  -0.03421  -0.02195   0.07056
           A6          -0.02775  -0.02580  -0.02775  -0.02580   0.08387
           D1          -0.01048   0.01424  -0.01048   0.01424   0.00554
           D2          -0.00910   0.00671  -0.00910   0.00671  -0.00315
           D3          -0.01380  -0.00053   0.00470   0.00725  -0.00157
           D4          -0.00470  -0.00725   0.01380   0.00053   0.00157
                          D1        D2        D3        D4
           D1           0.02883
           D2           0.00145   0.01792
           D3           0.00072   0.00896   0.01819
           D4          -0.00072  -0.00896   0.00923   0.01819
 ITU=  0
     Eigenvalues ---    0.03677   0.04143   0.06296   0.12757   0.12806
     Eigenvalues ---    0.34750   0.34752   0.34777   0.35346
 Angle between quadratic step and forces=   0.00 degrees.
 Linear search not attempted -- first point.
 Iteration  1 RMS(Cart)=  0.00012983 RMS(Int)=  0.00000000
 Iteration  2 RMS(Cart)=  0.00000000 RMS(Int)=  0.00000000
 ClnCor:  largest displacement from symmetrization is 1.06D-11 for atom     5.
 Variable       Old X    -DE/DX   Delta X   Delta X   Delta X     New X
                                 (Linear)    (Quad)   (Total)
    R1        2.05635   0.00009   0.00000   0.00024   0.00024   2.05660
    R2        2.05635   0.00009   0.00000   0.00024   0.00024   2.05660
    R3        2.05635   0.00009   0.00000   0.00024   0.00024   2.05660
    R4        2.05635   0.00009   0.00000   0.00024   0.00024   2.05660
    A1        1.91063   0.00000   0.00000   0.00000  -0.00000   1.91063
    A2        1.91063  -0.00000   0.00000   0.00000   0.00000   1.91063
    A3        1.91063  -0.00000   0.00000   0.00000   0.00000   1.91063
    A4        1.91063  -0.00000   0.00000   0.00000   0.00000   1.91063
    A5        1.91063  -0.00000   0.00000  -0.00000   0.00000   1.91063
    A6        1.91063   0.00000   0.00000  -0.00000  -0.00000   1.91063
    D1       -2.09440  -0.00000   0.00000  -0.00000   0.00000  -2.09440
    D2        2.09440   0.00000   0.00000   0.00000  -0.00000   2.09440
    D3       -2.09440   0.00000   0.00000  -0.00000   0.00000  -2.09440
    D4        2.09440  -0.00000   0.00000  -0.00000   0.00000   2.09440
         Item               Value     Threshold  Converged?
 Maximum Force            0.000086     0.000450     YES
 RMS     Force            0.000046     0.000300     YES
 Maximum Displacement     0.000140     0.001800     YES
 RMS     Displacement     0.000130     0.001200     YES
 Predicted change in Energy=-4.170445D-08
 Optimization completed.
    -- Stationary point found.
                           ----------------------------
                           !   Optimized Parameters   !
                           ! (Angstroms and Degrees)  !
 --------------------------                            --------------------------
 ! Name  Definition              Value          Derivative Info.                !
 --------------------------------------------------------------------------------
 ! R1    R(1,2)                  1.0882         -DE/DX =    0.0001              !
 ! R2    R(1,3)                  1.0882         -DE/DX =    0.0001              !
 ! R3    R(1,4)                  1.0882         -DE/DX =    0.0001              !
 ! R4    R(1,5)                  1.0882         -DE/DX =    0.0001              !
 ! A1    A(2,1,3)              109.4712         -DE/DX =    0.0                 !
 ! A2    A(2,1,4)              109.4712         -DE/DX =    0.0                 !
 ! A3    A(2,1,5)              109.4712         -DE/DX =    0.0                 !
 ! A4    A(3,1,4)              109.4712         -DE/DX =    0.0                 !
 ! A5    A(3,1,5)              109.4712         -DE/DX =    0.0                 !
 ! A6    A(4,1,5)              109.4712         -DE/DX =    0.0                 !
 ! D1    D(2,1,4,3)           -120.0            -DE/DX =    0.0                 !
 ! D2    D(2,1,5,3)            120.0            -DE/DX =    0.0                 !
 ! D3    D(2,1,5,4)           -120.0            -DE/DX =    0.0                 !
 ! D4    D(3,1,5,4)            120.0            -DE/DX =    0.0                 !
 --------------------------------------------------------------------------------
 GradGradGradGradGradGradGradGradGradGradGradGradGradGradGradGradGradGrad

 Dipole is zero, so no output in dipole orientation.

 ----------------------------------------------------------------------

 Electric dipole moment (input orientation):
 (Debye = 10**-18 statcoulomb cm , SI units = C m)
                  (au)            (Debye)         (10**-30 SI)
   Tot        0.000000D+00      0.000000D+00      0.000000D+00
   x          0.000000D+00      0.000000D+00      0.000000D+00
   y          0.000000D+00      0.000000D+00      0.000000D+00
   z          0.000000D+00      0.000000D+00      0.000000D+00

 Dipole polarizability, Alpha (input orientation).
 (esu units = cm**3 , SI units = C**2 m**2 J**-1)
 Alpha(0;0):
               (au)            (10**-24 esu)      (10**-40 SI)
   iso        0.179159D+02      0.265487D+01      0.295394D+01
   aniso      0.000000D+00      0.000000D+00      0.000000D+00
   xx         0.179159D+02      0.265487D+01      0.295394D+01
   yx         0.000000D+00      0.000000D+00      0.000000D+00
   yy         0.179159D+02      0.265487D+01      0.295394D+01
   zx         0.000000D+00      0.000000D+00      0.000000D+00
   zy         0.000000D+00      0.000000D+00      0.000000D+00
   zz         0.179159D+02      0.265487D+01      0.295394D+01

 ----------------------------------------------------------------------
 Unable to Open any file for archive entry.
 1\1\GINC-NODE001\Freq\RwB97XD\def2TZVPP\C1H4\MVANVLEET\05-Mar-2024\0\\
 #N Geom=AllCheck Guess=TCheck SCRF=Check GenChk RwB97XD/def2TZVPP Freq
 \\ch4\\0,1\C,0.,0.,0.\H,0.6282582995,0.6282582995,0.6282582995\H,-0.62
 82582995,-0.6282582995,0.6282582995\H,-0.6282582995,0.6282582995,-0.62
 82582995\H,0.6282582995,-0.6282582995,-0.6282582995\\Version=ES64L-G16
 RevC.01\State=1-A1\HF=-40.5211211\RMSD=1.229e-09\RMSF=4.433e-05\ZeroPo
 int=0.044738\Thermal=0.0476079\ETot=-40.4735132\HTot=-40.472569\GTot=-
 40.493694\Dipole=0.,0.,0.\DipoleDeriv=-0.0192856,0.,0.,0.,-0.0192856,0
 .,0.,0.,-0.0192856,0.0048214,-0.0770685,-0.0770685,-0.0770685,0.004821
 4,-0.0770685,-0.0770685,-0.0770685,0.0048214,0.0048214,-0.0770685,0.07
 70685,-0.0770685,0.0048214,0.0770685,0.0770685,0.0770685,0.0048214,0.0
 048214,0.0770685,-0.0770685,0.0770685,0.0048214,0.0770685,-0.0770685,0
 .0770685,0.0048214,0.0048214,0.0770685,0.0770685,0.0770685,0.0048214,-
 0.0770685,0.0770685,-0.0770685,0.0048214\Polar=17.9159213,0.,17.915921
 3,0.,0.,17.9159213\Quadrupole=0.,0.,0.,0.,0.,0.\PG=TD [O(C1),4C3(H1)]\
 NImag=0\\0.55163817,0.,0.55163817,0.,0.,0.55163817,-0.13790955,-0.0927
 9467,-0.09279467,0.14560885,-0.09279467,-0.13790955,-0.09279467,0.1013
 8383,0.14560885,-0.09279467,-0.09279467,-0.13790955,0.10138383,0.10138
 383,0.14560885,-0.13790955,-0.09279467,0.09279467,-0.01024695,-0.00858
 916,0.01134484,0.14560885,-0.09279467,-0.13790955,0.09279467,-0.008589
 16,-0.01024695,0.01134484,0.10138383,0.14560885,0.09279467,0.09279467,
 -0.13790955,-0.01134484,-0.01134484,0.01279460,-0.10138383,-0.10138383
 ,0.14560885,-0.13790955,0.09279467,-0.09279467,-0.01024695,0.01134484,
 -0.00858916,0.01279460,-0.01134484,0.01134484,0.14560885,0.09279467,-0
 .13790955,0.09279467,-0.01134484,0.01279460,-0.01134484,0.01134484,-0.
 01024695,0.00858916,-0.10138383,0.14560885,-0.09279467,0.09279467,-0.1
 3790955,-0.00858916,0.01134484,-0.01024695,-0.01134484,0.00858916,-0.0
 1024695,0.10138383,-0.10138383,0.14560885,-0.13790955,0.09279467,0.092
 79467,0.01279460,-0.01134484,-0.01134484,-0.01024695,0.01134484,0.0085
 8916,-0.01024695,0.00858916,0.01134484,0.14560885,0.09279467,-0.137909
 55,-0.09279467,0.01134484,-0.01024695,-0.00858916,-0.01134484,0.012794
 60,0.01134484,0.00858916,-0.01024695,-0.01134484,-0.10138383,0.1456088
 5,0.09279467,-0.09279467,-0.13790955,0.01134484,-0.00858916,-0.0102469
 5,0.00858916,-0.01134484,-0.01024695,-0.01134484,0.01134484,0.01279460
 ,-0.10138383,0.10138383,0.14560885\\0.,0.,0.,-0.00004957,-0.00004957,-
 0.00004957,0.00004957,0.00004957,-0.00004957,0.00004957,-0.00004957,0.
 00004957,-0.00004957,0.00004957,0.00004957\\\@
 The archive entry for this job was punched.


 We find comfort among those who agree with us -- growth among those who don't.
 -- Frank A. Clark
 Job cpu time:       0 days  0 hours  1 minutes  8.5 seconds.
 Elapsed time:       0 days  0 hours  0 minutes  9.1 seconds.
 File lengths (MBytes):  RWF=     15 Int=      0 D2E=      0 Chk=      3 Scr=      1
 Normal termination of Gaussian 16 at Tue Mar  5 21:40:20 2024.
