 Entering Gaussian System, Link 0=/cm/shared/apps//g16/g16
 Input=HZIr.gjf
 Output=HZIr.log
 Initial command:
 /cm/shared/apps//g16/l1.exe "/local/mvanvleet/pbs.14632.josephine/Gau-1629915.inp" -scrdir="/local/mvanvleet/pbs.14632.josephine/"
 Entering Link 1 = /cm/shared/apps//g16/l1.exe PID=   1629919.
  
 Copyright (c) 1988-2019, Gaussian, Inc.  All Rights Reserved.
  
 This is part of the Gaussian(R) 16 program.  It is based on
 the Gaussian(R) 09 system (copyright 2009, Gaussian, Inc.),
 the Gaussian(R) 03 system (copyright 2003, Gaussian, Inc.),
 the Gaussian(R) 98 system (copyright 1998, Gaussian, Inc.),
 the Gaussian(R) 94 system (copyright 1995, Gaussian, Inc.),
 the Gaussian 92(TM) system (copyright 1992, Gaussian, Inc.),
 the Gaussian 90(TM) system (copyright 1990, Gaussian, Inc.),
 the Gaussian 88(TM) system (copyright 1988, Gaussian, Inc.),
 the Gaussian 86(TM) system (copyright 1986, Carnegie Mellon
 University), and the Gaussian 82(TM) system (copyright 1983,
 Carnegie Mellon University). Gaussian is a federally registered
 trademark of Gaussian, Inc.
  
 This software contains proprietary and confidential information,
 including trade secrets, belonging to Gaussian, Inc.
  
 This software is provided under written license and may be
 used, copied, transmitted, or stored only in accord with that
 written license.
  
 The following legend is applicable only to US Government
 contracts under FAR:
  
                    RESTRICTED RIGHTS LEGEND
  
 Use, reproduction and disclosure by the US Government is
 subject to restrictions as set forth in subparagraphs (a)
 and (c) of the Commercial Computer Software - Restricted
 Rights clause in FAR 52.227-19.
  
 Gaussian, Inc.
 340 Quinnipiac St., Bldg. 40, Wallingford CT 06492
  
  
 ---------------------------------------------------------------
 Warning -- This program may not be used in any manner that
 competes with the business of Gaussian, Inc. or will provide
 assistance to any competitor of Gaussian, Inc.  The licensee
 of this program is prohibited from giving any competitor of
 Gaussian, Inc. access to this program.  By using this program,
 the user acknowledges that Gaussian, Inc. is engaged in the
 business of creating and licensing software in the field of
 computational chemistry and represents and warrants to the
 licensee that it is not a competitor of Gaussian, Inc. and that
 it will not use this program in any manner prohibited above.
 ---------------------------------------------------------------
  

 Cite this work as:
 Gaussian 16, Revision C.01,
 M. J. Frisch, G. W. Trucks, H. B. Schlegel, G. E. Scuseria, 
 M. A. Robb, J. R. Cheeseman, G. Scalmani, V. Barone, 
 G. A. Petersson, H. Nakatsuji, X. Li, M. Caricato, A. V. Marenich, 
 J. Bloino, B. G. Janesko, R. Gomperts, B. Mennucci, H. P. Hratchian, 
 J. V. Ortiz, A. F. Izmaylov, J. L. Sonnenberg, D. Williams-Young, 
 F. Ding, F. Lipparini, F. Egidi, J. Goings, B. Peng, A. Petrone, 
 T. Henderson, D. Ranasinghe, V. G. Zakrzewski, J. Gao, N. Rega, 
 G. Zheng, W. Liang, M. Hada, M. Ehara, K. Toyota, R. Fukuda, 
 J. Hasegawa, M. Ishida, T. Nakajima, Y. Honda, O. Kitao, H. Nakai, 
 T. Vreven, K. Throssell, J. A. Montgomery, Jr., J. E. Peralta, 
 F. Ogliaro, M. J. Bearpark, J. J. Heyd, E. N. Brothers, K. N. Kudin, 
 V. N. Staroverov, T. A. Keith, R. Kobayashi, J. Normand, 
 K. Raghavachari, A. P. Rendell, J. C. Burant, S. S. Iyengar, 
 J. Tomasi, M. Cossi, J. M. Millam, M. Klene, C. Adamo, R. Cammi, 
 J. W. Ochterski, R. L. Martin, K. Morokuma, O. Farkas, 
 J. B. Foresman, and D. J. Fox, Gaussian, Inc., Wallingford CT, 2019.
 
 ******************************************
 Gaussian 16:  ES64L-G16RevC.01  3-Jul-2019
                28-Mar-2024 
 ******************************************
 %nprocshared=6
 Will use up to    6 processors via shared memory.
 %chk=HZIr.chk
 %mem=2GB
 ----------------------------------------------------------
 # wb97xd def2TZVPP SCRF=(solvent=dichloromethane) opt freq
 ----------------------------------------------------------
 1/18=20,19=15,26=3,38=1/1,3;
 2/9=110,12=2,17=6,18=5,40=1/2;
 3/5=44,7=202,11=2,25=1,30=1,70=2201,71=1,72=9,74=-58/1,2,3;
 4//1;
 5/5=2,38=5,53=9/2;
 6/7=2,8=2,9=2,10=2,28=1/1;
 7//1,2,3,16;
 1/18=20,19=15,26=3/3(2);
 2/9=110/2;
 99//99;
 2/9=110/2;
 3/5=44,7=202,11=2,25=1,30=1,70=2205,71=1,72=9,74=-58/1,2,3;
 4/5=5,16=3,69=1/1;
 5/5=2,38=5,53=9/2;
 7//1,2,3,16;
 1/18=20,19=15,26=3/3(-5);
 2/9=110/2;
 6/7=2,8=2,9=2,10=2,19=2,28=1/1;
 99/9=1/99;
 ----
 HZIr
 ----
 Symbolic Z-matrix:
 Charge =  1 Multiplicity = 1
 C                    -0.23915   1.51955   1.1869 
 C                    -0.23915   1.51955  -1.1869 
 C                    -0.07739   2.88049   1.22947 
 C                    -0.07739   2.88049  -1.22947 
 C                     0.05562   3.6721    0. 
 H                    -0.07688   3.40995   2.18737 
 H                    -0.07688   3.40995  -2.18737 
 O                     0.22985   4.89995   0. 
 N                    -0.27763   0.84266   0. 
 C                    -0.55182   0.58716   2.33325 
 H                    -1.64587   0.42711   2.3605 
 H                    -0.22373   0.98413   3.31481 
 C                    -0.55182   0.58716  -2.33325 
 H                    -1.64587   0.42711  -2.3605 
 H                    -0.22373   0.98413  -3.31481 
 N                     0.06379  -0.76475   2.08774 
 N                     0.06379  -0.76475  -2.08774 
 C                    -0.61966  -1.76858   2.93231 
 H                    -0.1304   -2.74493   2.78341 
 H                    -0.55137  -1.48686   4.00512 
 H                    -1.6732   -1.83649   2.6237 
 C                     1.49564  -0.69452   2.48812 
 H                     1.56833  -0.49254   3.57855 
 H                     1.98615  -1.64954   2.24926 
 H                     1.98382   0.11368   1.92304 
 C                    -0.61966  -1.76858  -2.93231 
 H                    -0.55137  -1.48686  -4.00512 
 H                    -0.1304   -2.74493  -2.78341 
 H                    -1.6732   -1.83649  -2.6237 
 C                     1.49564  -0.69452  -2.48812 
 H                     1.98615  -1.64954  -2.24926 
 H                     1.56833  -0.49254  -3.57855 
 H                     1.98382   0.11368  -1.92304 
 Ir                   -0.04789  -1.04107   0. 
 H                     0.22985   5.89995   0. 
 

 GradGradGradGradGradGradGradGradGradGradGradGradGradGradGradGradGradGrad
 Berny optimization.
 Initialization pass.
                           ----------------------------
                           !    Initial Parameters    !
                           ! (Angstroms and Degrees)  !
 --------------------------                            --------------------------
 ! Name  Definition              Value          Derivative Info.                !
 --------------------------------------------------------------------------------
 ! R1    R(1,3)                  1.3712         estimate D2E/DX2                !
 ! R2    R(1,9)                  1.3669         estimate D2E/DX2                !
 ! R3    R(1,10)                 1.5104         estimate D2E/DX2                !
 ! R4    R(2,4)                  1.3712         estimate D2E/DX2                !
 ! R5    R(2,9)                  1.3669         estimate D2E/DX2                !
 ! R6    R(2,13)                 1.5104         estimate D2E/DX2                !
 ! R7    R(3,5)                  1.4683         estimate D2E/DX2                !
 ! R8    R(3,6)                  1.0945         estimate D2E/DX2                !
 ! R9    R(4,5)                  1.4683         estimate D2E/DX2                !
 ! R10   R(4,7)                  1.0945         estimate D2E/DX2                !
 ! R11   R(5,8)                  1.2401         estimate D2E/DX2                !
 ! R12   R(8,35)                 1.0            estimate D2E/DX2                !
 ! R13   R(9,34)                 1.8977         estimate D2E/DX2                !
 ! R14   R(10,11)                1.106          estimate D2E/DX2                !
 ! R15   R(10,12)                1.1085         estimate D2E/DX2                !
 ! R16   R(10,16)                1.5056         estimate D2E/DX2                !
 ! R17   R(13,14)                1.106          estimate D2E/DX2                !
 ! R18   R(13,15)                1.1085         estimate D2E/DX2                !
 ! R19   R(13,17)                1.5056         estimate D2E/DX2                !
 ! R20   R(16,18)                1.4792         estimate D2E/DX2                !
 ! R21   R(16,22)                1.4884         estimate D2E/DX2                !
 ! R22   R(16,34)                2.1089         estimate D2E/DX2                !
 ! R23   R(17,26)                1.4792         estimate D2E/DX2                !
 ! R24   R(17,30)                1.4884         estimate D2E/DX2                !
 ! R25   R(17,34)                2.1089         estimate D2E/DX2                !
 ! R26   R(18,19)                1.1022         estimate D2E/DX2                !
 ! R27   R(18,20)                1.1113         estimate D2E/DX2                !
 ! R28   R(18,21)                1.0999         estimate D2E/DX2                !
 ! R29   R(22,23)                1.1114         estimate D2E/DX2                !
 ! R30   R(22,24)                1.0999         estimate D2E/DX2                !
 ! R31   R(22,25)                1.1004         estimate D2E/DX2                !
 ! R32   R(26,27)                1.1113         estimate D2E/DX2                !
 ! R33   R(26,28)                1.1022         estimate D2E/DX2                !
 ! R34   R(26,29)                1.0999         estimate D2E/DX2                !
 ! R35   R(30,31)                1.0999         estimate D2E/DX2                !
 ! R36   R(30,32)                1.1114         estimate D2E/DX2                !
 ! R37   R(30,33)                1.1004         estimate D2E/DX2                !
 ! A1    A(3,1,9)              121.452          estimate D2E/DX2                !
 ! A2    A(3,1,10)             127.8482         estimate D2E/DX2                !
 ! A3    A(9,1,10)             110.3352         estimate D2E/DX2                !
 ! A4    A(4,2,9)              121.452          estimate D2E/DX2                !
 ! A5    A(4,2,13)             127.8482         estimate D2E/DX2                !
 ! A6    A(9,2,13)             110.3352         estimate D2E/DX2                !
 ! A7    A(1,3,5)              121.3184         estimate D2E/DX2                !
 ! A8    A(1,3,6)              120.4885         estimate D2E/DX2                !
 ! A9    A(5,3,6)              118.1638         estimate D2E/DX2                !
 ! A10   A(2,4,5)              121.3184         estimate D2E/DX2                !
 ! A11   A(2,4,7)              120.4885         estimate D2E/DX2                !
 ! A12   A(5,4,7)              118.1638         estimate D2E/DX2                !
 ! A13   A(3,5,4)              113.7199         estimate D2E/DX2                !
 ! A14   A(3,5,8)              123.1279         estimate D2E/DX2                !
 ! A15   A(4,5,8)              123.1279         estimate D2E/DX2                !
 ! A16   A(1,9,2)              120.5281         estimate D2E/DX2                !
 ! A17   A(1,9,34)             119.2193         estimate D2E/DX2                !
 ! A18   A(2,9,34)             119.2193         estimate D2E/DX2                !
 ! A19   A(1,10,11)            108.2282         estimate D2E/DX2                !
 ! A20   A(1,10,12)            112.9382         estimate D2E/DX2                !
 ! A21   A(1,10,16)            110.2364         estimate D2E/DX2                !
 ! A22   A(11,10,12)           108.8315         estimate D2E/DX2                !
 ! A23   A(11,10,16)           106.1724         estimate D2E/DX2                !
 ! A24   A(12,10,16)           110.1779         estimate D2E/DX2                !
 ! A25   A(2,13,14)            108.2282         estimate D2E/DX2                !
 ! A26   A(2,13,15)            112.9382         estimate D2E/DX2                !
 ! A27   A(2,13,17)            110.2364         estimate D2E/DX2                !
 ! A28   A(14,13,15)           108.8315         estimate D2E/DX2                !
 ! A29   A(14,13,17)           106.1724         estimate D2E/DX2                !
 ! A30   A(15,13,17)           110.1779         estimate D2E/DX2                !
 ! A31   A(10,16,18)           109.1065         estimate D2E/DX2                !
 ! A32   A(10,16,22)           107.8846         estimate D2E/DX2                !
 ! A33   A(10,16,34)           104.9171         estimate D2E/DX2                !
 ! A34   A(18,16,22)           108.8388         estimate D2E/DX2                !
 ! A35   A(18,16,34)           116.862          estimate D2E/DX2                !
 ! A36   A(22,16,34)           108.8699         estimate D2E/DX2                !
 ! A37   A(13,17,26)           109.1065         estimate D2E/DX2                !
 ! A38   A(13,17,30)           107.8846         estimate D2E/DX2                !
 ! A39   A(13,17,34)           104.9171         estimate D2E/DX2                !
 ! A40   A(26,17,30)           108.8388         estimate D2E/DX2                !
 ! A41   A(26,17,34)           116.862          estimate D2E/DX2                !
 ! A42   A(30,17,34)           108.8699         estimate D2E/DX2                !
 ! A43   A(16,18,19)           108.5973         estimate D2E/DX2                !
 ! A44   A(16,18,20)           110.5339         estimate D2E/DX2                !
 ! A45   A(16,18,21)           108.9207         estimate D2E/DX2                !
 ! A46   A(19,18,20)           109.1296         estimate D2E/DX2                !
 ! A47   A(19,18,21)           109.4261         estimate D2E/DX2                !
 ! A48   A(20,18,21)           110.2048         estimate D2E/DX2                !
 ! A49   A(16,22,23)           109.5983         estimate D2E/DX2                !
 ! A50   A(16,22,24)           109.2463         estimate D2E/DX2                !
 ! A51   A(16,22,25)           108.8627         estimate D2E/DX2                !
 ! A52   A(23,22,24)           109.9816         estimate D2E/DX2                !
 ! A53   A(23,22,25)           109.9598         estimate D2E/DX2                !
 ! A54   A(24,22,25)           109.1698         estimate D2E/DX2                !
 ! A55   A(17,26,27)           110.5339         estimate D2E/DX2                !
 ! A56   A(17,26,28)           108.5973         estimate D2E/DX2                !
 ! A57   A(17,26,29)           108.9207         estimate D2E/DX2                !
 ! A58   A(27,26,28)           109.1296         estimate D2E/DX2                !
 ! A59   A(27,26,29)           110.2048         estimate D2E/DX2                !
 ! A60   A(28,26,29)           109.4261         estimate D2E/DX2                !
 ! A61   A(17,30,31)           109.2463         estimate D2E/DX2                !
 ! A62   A(17,30,32)           109.5983         estimate D2E/DX2                !
 ! A63   A(17,30,33)           108.8627         estimate D2E/DX2                !
 ! A64   A(31,30,32)           109.9816         estimate D2E/DX2                !
 ! A65   A(31,30,33)           109.1698         estimate D2E/DX2                !
 ! A66   A(32,30,33)           109.9598         estimate D2E/DX2                !
 ! A67   A(9,34,16)             82.8972         estimate D2E/DX2                !
 ! A68   A(9,34,17)             82.8972         estimate D2E/DX2                !
 ! A69   A(16,34,17)           163.7513         estimate D2E/DX2                !
 ! A70   L(5,8,35,6,-1)        179.2623         estimate D2E/DX2                !
 ! A71   L(5,8,35,6,-2)        189.7478         estimate D2E/DX2                !
 ! D1    D(9,1,3,5)              0.2829         estimate D2E/DX2                !
 ! D2    D(9,1,3,6)            178.2802         estimate D2E/DX2                !
 ! D3    D(10,1,3,5)          -172.0906         estimate D2E/DX2                !
 ! D4    D(10,1,3,6)             5.9068         estimate D2E/DX2                !
 ! D5    D(3,1,9,2)             -4.1307         estimate D2E/DX2                !
 ! D6    D(3,1,9,34)           164.1544         estimate D2E/DX2                !
 ! D7    D(10,1,9,2)           169.4524         estimate D2E/DX2                !
 ! D8    D(10,1,9,34)          -22.2626         estimate D2E/DX2                !
 ! D9    D(3,1,10,11)           95.1733         estimate D2E/DX2                !
 ! D10   D(3,1,10,12)          -25.3836         estimate D2E/DX2                !
 ! D11   D(3,1,10,16)         -149.1087         estimate D2E/DX2                !
 ! D12   D(9,1,10,11)          -77.8918         estimate D2E/DX2                !
 ! D13   D(9,1,10,12)          161.5513         estimate D2E/DX2                !
 ! D14   D(9,1,10,16)           37.8262         estimate D2E/DX2                !
 ! D15   D(9,2,4,5)             -0.2829         estimate D2E/DX2                !
 ! D16   D(9,2,4,7)           -178.2802         estimate D2E/DX2                !
 ! D17   D(13,2,4,5)           172.0906         estimate D2E/DX2                !
 ! D18   D(13,2,4,7)            -5.9068         estimate D2E/DX2                !
 ! D19   D(4,2,9,1)              4.1307         estimate D2E/DX2                !
 ! D20   D(4,2,9,34)          -164.1544         estimate D2E/DX2                !
 ! D21   D(13,2,9,1)          -169.4524         estimate D2E/DX2                !
 ! D22   D(13,2,9,34)           22.2626         estimate D2E/DX2                !
 ! D23   D(4,2,13,14)          -95.1733         estimate D2E/DX2                !
 ! D24   D(4,2,13,15)           25.3836         estimate D2E/DX2                !
 ! D25   D(4,2,13,17)          149.1087         estimate D2E/DX2                !
 ! D26   D(9,2,13,14)           77.8918         estimate D2E/DX2                !
 ! D27   D(9,2,13,15)         -161.5513         estimate D2E/DX2                !
 ! D28   D(9,2,13,17)          -37.8262         estimate D2E/DX2                !
 ! D29   D(1,3,5,4)              3.2293         estimate D2E/DX2                !
 ! D30   D(1,3,5,8)           -178.5163         estimate D2E/DX2                !
 ! D31   D(6,3,5,4)           -174.8132         estimate D2E/DX2                !
 ! D32   D(6,3,5,8)              3.4412         estimate D2E/DX2                !
 ! D33   D(2,4,5,3)             -3.2293         estimate D2E/DX2                !
 ! D34   D(2,4,5,8)            178.5163         estimate D2E/DX2                !
 ! D35   D(7,4,5,3)            174.8132         estimate D2E/DX2                !
 ! D36   D(7,4,5,8)             -3.4412         estimate D2E/DX2                !
 ! D37   D(1,9,34,16)            1.8259         estimate D2E/DX2                !
 ! D38   D(1,9,34,17)         -170.2658         estimate D2E/DX2                !
 ! D39   D(2,9,34,16)          170.2658         estimate D2E/DX2                !
 ! D40   D(2,9,34,17)           -1.8259         estimate D2E/DX2                !
 ! D41   D(1,10,16,18)        -160.3024         estimate D2E/DX2                !
 ! D42   D(1,10,16,22)          81.607          estimate D2E/DX2                !
 ! D43   D(1,10,16,34)         -34.3477         estimate D2E/DX2                !
 ! D44   D(11,10,16,18)        -43.3            estimate D2E/DX2                !
 ! D45   D(11,10,16,22)       -161.3906         estimate D2E/DX2                !
 ! D46   D(11,10,16,34)         82.6547         estimate D2E/DX2                !
 ! D47   D(12,10,16,18)         74.3867         estimate D2E/DX2                !
 ! D48   D(12,10,16,22)        -43.704          estimate D2E/DX2                !
 ! D49   D(12,10,16,34)       -159.6586         estimate D2E/DX2                !
 ! D50   D(2,13,17,26)         160.3024         estimate D2E/DX2                !
 ! D51   D(2,13,17,30)         -81.607          estimate D2E/DX2                !
 ! D52   D(2,13,17,34)          34.3477         estimate D2E/DX2                !
 ! D53   D(14,13,17,26)         43.3            estimate D2E/DX2                !
 ! D54   D(14,13,17,30)        161.3906         estimate D2E/DX2                !
 ! D55   D(14,13,17,34)        -82.6547         estimate D2E/DX2                !
 ! D56   D(15,13,17,26)        -74.3867         estimate D2E/DX2                !
 ! D57   D(15,13,17,30)         43.704          estimate D2E/DX2                !
 ! D58   D(15,13,17,34)        159.6586         estimate D2E/DX2                !
 ! D59   D(10,16,18,19)       -177.2413         estimate D2E/DX2                !
 ! D60   D(10,16,18,20)        -57.5548         estimate D2E/DX2                !
 ! D61   D(10,16,18,21)         63.6612         estimate D2E/DX2                !
 ! D62   D(22,16,18,19)        -59.7516         estimate D2E/DX2                !
 ! D63   D(22,16,18,20)         59.9349         estimate D2E/DX2                !
 ! D64   D(22,16,18,21)       -178.8491         estimate D2E/DX2                !
 ! D65   D(34,16,18,19)         64.0189         estimate D2E/DX2                !
 ! D66   D(34,16,18,20)       -176.2947         estimate D2E/DX2                !
 ! D67   D(34,16,18,21)        -55.0786         estimate D2E/DX2                !
 ! D68   D(10,16,22,23)         63.5423         estimate D2E/DX2                !
 ! D69   D(10,16,22,24)       -175.8925         estimate D2E/DX2                !
 ! D70   D(10,16,22,25)        -56.76           estimate D2E/DX2                !
 ! D71   D(18,16,22,23)        -54.7201         estimate D2E/DX2                !
 ! D72   D(18,16,22,24)         65.8451         estimate D2E/DX2                !
 ! D73   D(18,16,22,25)       -175.0224         estimate D2E/DX2                !
 ! D74   D(34,16,22,23)        176.8799         estimate D2E/DX2                !
 ! D75   D(34,16,22,24)        -62.5549         estimate D2E/DX2                !
 ! D76   D(34,16,22,25)         56.5776         estimate D2E/DX2                !
 ! D77   D(10,16,34,9)          18.5681         estimate D2E/DX2                !
 ! D78   D(10,16,34,17)         47.7741         estimate D2E/DX2                !
 ! D79   D(18,16,34,9)         139.5416         estimate D2E/DX2                !
 ! D80   D(18,16,34,17)        168.7476         estimate D2E/DX2                !
 ! D81   D(22,16,34,9)         -96.7038         estimate D2E/DX2                !
 ! D82   D(22,16,34,17)        -67.4978         estimate D2E/DX2                !
 ! D83   D(13,17,26,27)         57.5548         estimate D2E/DX2                !
 ! D84   D(13,17,26,28)        177.2413         estimate D2E/DX2                !
 ! D85   D(13,17,26,29)        -63.6612         estimate D2E/DX2                !
 ! D86   D(30,17,26,27)        -59.9349         estimate D2E/DX2                !
 ! D87   D(30,17,26,28)         59.7516         estimate D2E/DX2                !
 ! D88   D(30,17,26,29)        178.8491         estimate D2E/DX2                !
 ! D89   D(34,17,26,27)        176.2947         estimate D2E/DX2                !
 ! D90   D(34,17,26,28)        -64.0189         estimate D2E/DX2                !
 ! D91   D(34,17,26,29)         55.0786         estimate D2E/DX2                !
 ! D92   D(13,17,30,31)        175.8925         estimate D2E/DX2                !
 ! D93   D(13,17,30,32)        -63.5423         estimate D2E/DX2                !
 ! D94   D(13,17,30,33)         56.76           estimate D2E/DX2                !
 ! D95   D(26,17,30,31)        -65.8451         estimate D2E/DX2                !
 ! D96   D(26,17,30,32)         54.7201         estimate D2E/DX2                !
 ! D97   D(26,17,30,33)        175.0224         estimate D2E/DX2                !
 ! D98   D(34,17,30,31)         62.5549         estimate D2E/DX2                !
 ! D99   D(34,17,30,32)       -176.8799         estimate D2E/DX2                !
 ! D100  D(34,17,30,33)        -56.5776         estimate D2E/DX2                !
 ! D101  D(13,17,34,9)         -18.5681         estimate D2E/DX2                !
 ! D102  D(13,17,34,16)        -47.7741         estimate D2E/DX2                !
 ! D103  D(26,17,34,9)        -139.5416         estimate D2E/DX2                !
 ! D104  D(26,17,34,16)       -168.7476         estimate D2E/DX2                !
 ! D105  D(30,17,34,9)          96.7038         estimate D2E/DX2                !
 ! D106  D(30,17,34,16)         67.4978         estimate D2E/DX2                !
 --------------------------------------------------------------------------------
 Trust Radius=3.00D-01 FncErr=1.00D-07 GrdErr=1.00D-06 EigMax=2.50D+02 EigMin=1.00D-04
 Number of steps in this run=    210 maximum allowed number of steps=    210.
 GradGradGradGradGradGradGradGradGradGradGradGradGradGradGradGradGradGrad

                          Input orientation:                          
 ---------------------------------------------------------------------
 Center     Atomic      Atomic             Coordinates (Angstroms)
 Number     Number       Type             X           Y           Z
 ---------------------------------------------------------------------
      1          6           0       -0.239150    1.519550    1.186900
      2          6           0       -0.239150    1.519550   -1.186900
      3          6           0       -0.077390    2.880490    1.229470
      4          6           0       -0.077390    2.880490   -1.229470
      5          6           0        0.055620    3.672100    0.000000
      6          1           0       -0.076880    3.409950    2.187370
      7          1           0       -0.076880    3.409950   -2.187370
      8          8           0        0.229850    4.899950    0.000000
      9          7           0       -0.277630    0.842660    0.000000
     10          6           0       -0.551820    0.587160    2.333250
     11          1           0       -1.645870    0.427110    2.360500
     12          1           0       -0.223730    0.984130    3.314810
     13          6           0       -0.551820    0.587160   -2.333250
     14          1           0       -1.645870    0.427110   -2.360500
     15          1           0       -0.223730    0.984130   -3.314810
     16          7           0        0.063790   -0.764750    2.087740
     17          7           0        0.063790   -0.764750   -2.087740
     18          6           0       -0.619660   -1.768580    2.932310
     19          1           0       -0.130400   -2.744930    2.783410
     20          1           0       -0.551370   -1.486860    4.005120
     21          1           0       -1.673200   -1.836490    2.623700
     22          6           0        1.495640   -0.694520    2.488120
     23          1           0        1.568330   -0.492540    3.578550
     24          1           0        1.986150   -1.649540    2.249260
     25          1           0        1.983820    0.113680    1.923040
     26          6           0       -0.619660   -1.768580   -2.932310
     27          1           0       -0.551370   -1.486860   -4.005120
     28          1           0       -0.130400   -2.744930   -2.783410
     29          1           0       -1.673200   -1.836490   -2.623700
     30          6           0        1.495640   -0.694520   -2.488120
     31          1           0        1.986150   -1.649540   -2.249260
     32          1           0        1.568330   -0.492540   -3.578550
     33          1           0        1.983820    0.113680   -1.923040
     34         77           0       -0.047890   -1.041070    0.000000
     35          1           0        0.229850    5.899950    0.000000
 ---------------------------------------------------------------------
                    Distance matrix (angstroms):
                    1          2          3          4          5
     1  C    0.000000
     2  C    2.373800   0.000000
     3  C    1.371181   2.777979   0.000000
     4  C    2.777979   1.371181   2.458940   0.000000
     5  C    2.475700   2.475700   1.468310   1.468310   0.000000
     6  H    2.144967   3.871129   1.094486   3.457618   2.207004
     7  H    3.871129   2.144967   3.457618   1.094486   2.207004
     8  O    3.613281   3.613281   2.384158   2.384158   1.240150
     9  N    1.366892   1.366892   2.388398   2.388398   2.848997
    10  C    1.510375   3.654938   2.588972   4.263499   3.915341
    11  H    2.132985   3.969425   3.123849   4.622455   4.358553
    12  H    2.194291   4.533465   2.822453   4.926264   4.276819
    13  C    3.654938   1.510375   4.263499   2.588972   3.915341
    14  H    3.969425   2.132985   4.622455   3.123849   4.358553
    15  H    4.533465   2.194291   4.926264   2.822453   4.276819
    16  N    2.474129   4.004131   3.747577   4.930678   4.903505
    17  N    4.004131   2.474129   4.930678   3.747577   4.903505
    18  C    3.742064   5.284362   4.980720   6.263252   6.217350
    19  H    4.554828   5.827605   5.836342   6.910236   6.997160
    20  H    4.132596   6.007750   5.196406   6.833691   6.559290
    21  H    3.922231   5.276379   5.171111   6.296303   6.341702
    22  C    3.099157   4.627891   4.103574   5.392179   5.227979
    23  H    3.610468   5.479508   4.427629   6.099408   5.695484
    24  H    4.015433   5.177093   5.081274   6.072967   6.091467
    25  H    2.731294   4.073057   3.519213   4.673558   4.480892
    26  C    5.284362   3.742064   6.263252   4.980720   6.217350
    27  H    6.007750   4.132596   6.833691   5.196406   6.559290
    28  H    5.827605   4.554828   6.910236   5.836342   6.997160
    29  H    5.276379   3.922231   6.296303   5.171111   6.341702
    30  C    4.627891   3.099157   5.392179   4.103574   5.227979
    31  H    5.177093   4.015433   6.072967   5.081274   6.091467
    32  H    5.479508   3.610468   6.099408   4.427629   5.695484
    33  H    4.073057   2.731294   4.673558   3.519213   4.480892
    34  Ir   2.828796   2.828796   4.109878   4.109878   4.714306
    35  H    4.562521   4.562521   3.274619   3.274619   2.234652
                    6          7          8          9         10
     6  H    0.000000
     7  H    4.374740   0.000000
     8  O    2.664352   2.664352   0.000000
     9  N    3.378737   3.378737   4.088904   0.000000
    10  C    2.866181   5.350674   4.965402   2.363158   0.000000
    11  H    3.374765   5.660582   5.394125   2.759841   1.106031
    12  H    2.679046   6.014994   5.150471   3.318265   1.108462
    13  C    5.350674   2.866181   4.965402   2.363158   4.666500
    14  H    5.660582   3.374765   5.394125   2.759841   4.822225
    15  H    6.014994   2.679046   5.150471   3.318265   5.671491
    16  N    4.178257   5.976995   6.039459   2.656877   1.505627
    17  N    5.976995   4.178257   6.039459   2.656877   4.663881
    18  C    5.259916   7.302254   7.334126   3.941320   2.431663
    19  H    6.183905   7.911641   8.143792   4.543110   3.388667
    20  H    5.244817   7.908908   7.579092   4.641399   2.663965
    21  H    5.501250   7.295188   7.475629   4.001158   2.686249
    22  C    4.405672   6.417141   6.252284   3.420256   2.420492
    23  H    4.457749   7.154158   6.608820   4.242210   2.685435
    24  H    5.464281   7.038339   7.144199   4.049065   3.383958
    25  H    3.896377   5.657504   5.448199   3.056739   2.611882
    26  C    7.302254   5.259916   7.334126   3.941320   5.768902
    27  H    7.908908   5.244817   7.579092   4.641399   6.669070
    28  H    7.911641   6.183905   8.143792   4.543110   6.120509
    29  H    7.295188   5.501250   7.475629   4.001158   5.630535
    30  C    6.417141   4.405672   6.252284   3.420256   5.392625
    31  H    7.038339   5.464281   7.144199   4.049065   5.695921
    32  H    7.154158   4.457749   6.608820   4.242210   6.372611
    33  H    5.657504   3.896377   5.448199   3.056739   4.976913
    34  Ir   4.959537   4.959537   5.947509   1.897688   2.889487
    35  H    3.328479   3.328479   1.000000   5.082688   5.854981
                   11         12         13         14         15
    11  H    0.000000
    12  H    1.800961   0.000000
    13  C    4.822225   5.671491   0.000000
    14  H    4.721000   5.877235   1.106031   0.000000
    15  H    5.877235   6.629620   1.108462   1.800961   0.000000
    16  N    2.101872   2.155678   4.663881   4.912261   5.685842
    17  N    4.912261   5.685842   1.505627   2.101872   2.155678
    18  C    2.490206   2.807219   5.768902   5.821340   6.838178
    19  H    3.540811   3.767889   6.120509   6.230433   7.148628
    20  H    2.750634   2.586439   6.669070   6.736641   7.732691
    21  H    2.279014   3.245688   5.630535   5.474201   6.732218
    22  C    3.338177   2.541164   5.392625   5.885257   6.280772
    23  H    3.558157   2.337005   6.372611   6.815362   7.273957
    24  H    4.185262   3.599331   5.695921   6.225266   6.540540
    25  H    3.669368   2.750997   4.976913   5.623309   5.750307
    26  C    5.821340   6.838178   2.431663   2.490206   2.807219
    27  H    6.736641   7.732691   2.663965   2.750634   2.586439
    28  H    6.230433   7.148628   3.388667   3.540811   3.767889
    29  H    5.474201   6.732218   2.686249   2.279014   3.245688
    30  C    5.885257   6.280772   2.420492   3.338177   2.541164
    31  H    6.225266   6.540540   3.383958   4.185262   3.599331
    32  H    6.815362   7.273957   2.685435   3.558157   2.337005
    33  H    5.623309   5.750307   2.611882   3.669368   2.750997
    34  Ir   3.206408   3.888486   2.889487   3.206408   3.888486
    35  H    6.248381   5.946342   5.854981   6.248381   5.946342
                   16         17         18         19         20
    16  N    0.000000
    17  N    4.175480   0.000000
    18  C    1.479215   5.164850   0.000000
    19  H    2.107790   5.261837   1.102182   0.000000
    20  H    2.139208   6.166264   1.111283   1.803478   0.000000
    21  H    2.110217   5.134533   1.099908   1.797499   1.813578
    22  C    1.488432   4.795166   2.413587   2.633512   2.668209
    23  H    2.135475   5.868951   2.614040   2.931074   2.379866
    24  H    2.122360   4.825753   2.696474   2.442331   3.090067
    25  H    2.117848   4.532605   3.367438   3.658116   3.650202
    26  C    5.164850   1.479215   5.864620   5.819114   6.943484
    27  H    6.166264   2.139208   6.943484   6.916943   8.010240
    28  H    5.261837   2.107790   5.819114   5.566820   6.916943
    29  H    5.134533   2.110217   5.655423   5.695817   6.732161
    30  C    4.795166   1.488432   5.916854   5.885339   6.854212
    31  H    4.825753   2.122360   5.801128   5.568432   6.751499
    32  H    5.868951   2.135475   6.986192   6.959417   7.936867
    33  H    4.532605   2.117848   5.821979   5.898495   6.643192
    34  Ir   2.108906   2.108906   3.074839   3.264555   4.061183
    35  H    6.986019   6.986019   8.253876   9.089065   8.438972
                   21         22         23         24         25
    21  H    0.000000
    22  C    3.371057   0.000000
    23  H    3.636682   1.111358   0.000000
    24  H    3.683205   1.099872   1.811142   0.000000
    25  H    4.203318   1.100374   1.811311   1.793145   0.000000
    26  C    5.655423   5.916854   6.986192   5.801128   5.821979
    27  H    6.732161   6.854212   7.936867   6.751499   6.643192
    28  H    5.695817   5.885339   6.959417   5.568432   5.898495
    29  H    5.247400   6.121793   7.126123   6.096846   6.152219
    30  C    6.121793   4.976240   6.070467   4.857513   4.511080
    31  H    6.096846   4.857513   5.956223   4.498520   4.529574
    32  H    7.126123   6.070467   7.157100   5.956223   5.550462
    33  H    6.152219   4.511080   5.550462   4.529574   3.846080
    34  Ir   3.187182   2.948444   3.964729   3.093012   3.026446
    35  H    8.387962   7.161006   7.447246   8.070846   6.344715
                   26         27         28         29         30
    26  C    0.000000
    27  H    1.111283   0.000000
    28  H    1.102182   1.803478   0.000000
    29  H    1.099908   1.813578   1.797499   0.000000
    30  C    2.413587   2.668209   2.633512   3.371057   0.000000
    31  H    2.696474   3.090067   2.442331   3.683205   1.099872
    32  H    2.614040   2.379866   2.931074   3.636682   1.111358
    33  H    3.367438   3.650202   3.658116   4.203318   1.100374
    34  Ir   3.074839   4.061183   3.264555   3.187182   2.948444
    35  H    8.253876   8.438972   9.089065   8.387962   7.161006
                   31         32         33         34         35
    31  H    0.000000
    32  H    1.811142   0.000000
    33  H    1.793145   1.811311   0.000000
    34  Ir   3.093012   3.964729   3.026446   0.000000
    35  H    8.070846   7.447246   6.344715   6.946575   0.000000
 Stoichiometry    C11H19IrN3O(1+)
 Framework group  CS[SG(CHIrNO),X(C10H18N2)]
 Deg. of freedom    52
 Full point group                 CS      NOp   2
 Largest Abelian subgroup         CS      NOp   2
 Largest concise Abelian subgroup CS      NOp   2
                         Standard orientation:                         
 ---------------------------------------------------------------------
 Center     Atomic      Atomic             Coordinates (Angstroms)
 Number     Number       Type             X           Y           Z
 ---------------------------------------------------------------------
      1          6           0       -0.243893    1.488083    1.186900
      2          6           0       -0.243893    1.488083   -1.186900
      3          6           0       -0.085371    2.849404    1.229470
      4          6           0       -0.085371    2.849404   -1.229470
      5          6           0        0.045756    3.641329    0.000000
      6          1           0       -0.086120    3.378864    2.187370
      7          1           0       -0.086120    3.378864   -2.187370
      8          8           0        0.217065    4.869590    0.000000
      9          7           0       -0.280763    0.811104    0.000000
     10          6           0       -0.554344    0.554952    2.333250
     11          1           0       -1.648010    0.392300    2.360500
     12          1           0       -0.227199    0.952702    3.314810
     13          6           0       -0.554344    0.554952   -2.333250
     14          1           0       -1.648010    0.392300   -2.360500
     15          1           0       -0.227199    0.952702   -3.314810
     16          7           0        0.064480   -0.795489    2.087740
     17          7           0        0.064480   -0.795489   -2.087740
     18          6           0       -0.616580   -1.800942    2.932310
     19          1           0       -0.124999   -2.776126    2.783410
     20          1           0       -0.548960   -1.519061    4.005120
     21          1           0       -1.669955   -1.871358    2.623700
     22          6           0        1.496159   -0.721854    2.488120
     23          1           0        1.568368   -0.519701    3.578550
     24          1           0        1.988940   -1.675704    2.249260
     25          1           0        1.982415    0.087505    1.923040
     26          6           0       -0.616580   -1.800942   -2.932310
     27          1           0       -0.548960   -1.519061   -4.005120
     28          1           0       -0.124999   -2.776126   -2.783410
     29          1           0       -1.669955   -1.871358   -2.623700
     30          6           0        1.496159   -0.721854   -2.488120
     31          1           0        1.988940   -1.675704   -2.249260
     32          1           0        1.568368   -0.519701   -3.578550
     33          1           0        1.982415    0.087505   -1.923040
     34         77           0       -0.046542   -1.072074   -0.000000
     35          1           0        0.214686    5.869587    0.000000
 ---------------------------------------------------------------------
 Rotational constants (GHZ):           0.5416658           0.3802574           0.2467469
 Standard basis: def2TZVPP (5D, 7F)
 There are   484 symmetry adapted cartesian basis functions of A'  symmetry.
 There are   412 symmetry adapted cartesian basis functions of A"  symmetry.
 There are   421 symmetry adapted basis functions of A'  symmetry.
 There are   366 symmetry adapted basis functions of A"  symmetry.
   787 basis functions,  1188 primitive gaussians,   896 cartesian basis functions
    65 alpha electrons       65 beta electrons
       nuclear repulsion energy      1363.4932772694 Hartrees.
 NAtoms=   35 NActive=   35 NUniq=   20 SFac= 3.06D+00 NAtFMM=   60 NAOKFM=F Big=F
 Integral buffers will be    131072 words long.
 Raffenetti 2 integral format.
 Two-electron integral symmetry is turned on.
 Nuclear repulsion after empirical dispersion term =     1363.4575249333 Hartrees.
 ------------------------------------------------------------------------------
 Polarizable Continuum Model (PCM)
 =================================
 Model                : PCM.
 Atomic radii         : UFF (Universal Force Field).
 Polarization charges : Total charges.
 Charge compensation  : None.
 Solution method      : On-the-fly selection.
 Cavity type          : Scaled VdW (van der Waals Surface) (Alpha=1.100).
 Cavity algorithm     : GePol (No added spheres)
                        Default sphere list used, NSphG=   35.
                        Lebedev-Laikov grids with approx.  5.0 points / Ang**2.
                        Smoothing algorithm: York/Karplus (Gamma=1.0000).
                        Polarization charges: spherical gaussians, with
                                              point-specific exponents (IZeta= 3).
                        Self-potential: point-specific (ISelfS= 7).
                        Self-field    : sphere-specific E.n sum rule (ISelfD= 2).
 1st derivatives      : Analytical E(r).r(x)/FMM algorithm (CHGder, D1EAlg=3).
                        Cavity 1st derivative terms included.
 Solvent              : Dichloromethane, Eps=   8.930000 Eps(inf)=   2.028346
 ------------------------------------------------------------------------------
 One-electron integrals computed using PRISM.
   2 Symmetry operations used in ECPInt.
 ECPInt:  NShTT=   43660 NPrTT=  113928 LenC2=   39344 LenP2D=   78699.
 LDataN:  DoStor=T MaxTD1= 9 Len=  602
 NBasis=   787 RedAO= T EigKep=  1.80D-05  NBF=   421   366
 NBsUse=   787 1.00D-06 EigRej= -1.00D+00 NBFU=   421   366
 Defaulting to unpruned grid for atomic number  77.
 ExpMin= 5.00D-02 ExpMax= 2.70D+04 ExpMxC= 9.22D+02 IAcc=3 IRadAn=         5 AccDes= 0.00D+00
 Harris functional with IExCor= 4639 and IRadAn=       5 diagonalized for initial guess.
 HarFok:  IExCor= 4639 AccDes= 0.00D+00 IRadAn=         5 IDoV= 1 UseB2=F ITyADJ=14
 ICtDFT=  3500011 ScaDFX=  1.000000  1.000000  1.000000  1.000000
 Defaulting to unpruned grid for atomic number  77.
 FoFCou: FMM=F IPFlag=           0 FMFlag=      100000 FMFlg1=           0
         NFxFlg=           0 DoJE=T BraDBF=F KetDBF=T FulRan=T
         wScrn=  0.000000 ICntrl=       500 IOpCl=  0 I1Cent=   200000004 NGrid=           0
         NMat0=    1 NMatS0=      1 NMatT0=    0 NMatD0=    1 NMtDS0=    0 NMtDT0=    0
 Petite list used in FoFCou.
 Initial guess orbital symmetries:
       Occupied  (A') (A') (A") (A') (A") (A') (A") (A') (A') (A")
                 (A") (A') (A') (A") (A') (A') (A') (A") (A') (A')
                 (A') (A") (A') (A") (A') (A') (A") (A') (A") (A')
                 (A") (A') (A") (A') (A") (A') (A') (A") (A') (A")
                 (A') (A") (A') (A') (A") (A") (A') (A") (A') (A")
                 (A') (A') (A") (A") (A') (A') (A') (A") (A") (A")
                 (A') (A') (A") (A') (A")
       Virtual   (A') (A") (A') (A') (A') (A") (A') (A') (A') (A")
                 (A") (A') (A') (A") (A') (A") (A") (A') (A") (A')
                 (A') (A') (A") (A') (A') (A") (A') (A") (A') (A")
                 (A') (A") (A') (A") (A') (A') (A") (A') (A') (A")
                 (A') (A") (A') (A") (A') (A") (A") (A') (A') (A")
                 (A') (A') (A") (A') (A") (A') (A") (A') (A") (A')
                 (A") (A') (A") (A') (A') (A") (A') (A") (A') (A')
                 (A") (A") (A') (A") (A') (A') (A") (A') (A") (A')
                 (A") (A") (A') (A') (A') (A") (A") (A") (A') (A')
                 (A') (A") (A') (A") (A") (A') (A") (A') (A') (A")
                 (A') (A") (A') (A") (A') (A') (A") (A") (A') (A')
                 (A") (A") (A') (A') (A") (A") (A') (A') (A') (A")
                 (A") (A') (A") (A') (A') (A") (A') (A') (A") (A')
                 (A") (A") (A') (A') (A") (A") (A') (A") (A') (A')
                 (A") (A') (A') (A") (A') (A") (A') (A') (A") (A")
                 (A') (A') (A") (A") (A') (A") (A') (A") (A') (A")
                 (A') (A') (A") (A') (A") (A') (A") (A") (A') (A")
                 (A') (A') (A') (A") (A') (A") (A') (A") (A') (A")
                 (A") (A') (A') (A") (A') (A") (A') (A") (A') (A")
                 (A') (A') (A") (A") (A') (A") (A') (A") (A') (A")
                 (A") (A') (A") (A') (A') (A") (A') (A") (A') (A")
                 (A') (A') (A") (A') (A') (A") (A") (A') (A") (A')
                 (A") (A') (A') (A") (A') (A") (A') (A") (A') (A")
                 (A') (A") (A') (A') (A") (A') (A") (A") (A') (A')
                 (A') (A") (A") (A') (A") (A') (A") (A') (A") (A")
                 (A') (A") (A') (A') (A") (A') (A') (A") (A') (A')
                 (A") (A') (A") (A") (A') (A") (A') (A") (A') (A")
                 (A') (A') (A") (A") (A') (A") (A") (A") (A') (A')
                 (A') (A") (A') (A") (A') (A") (A') (A") (A') (A")
                 (A") (A') (A') (A') (A') (A") (A") (A') (A") (A")
                 (A') (A") (A') (A') (A") (A') (A") (A') (A') (A")
                 (A") (A') (A") (A') (A') (A') (A") (A") (A') (A")
                 (A') (A') (A") (A") (A') (A') (A") (A') (A') (A")
                 (A") (A') (A') (A") (A") (A') (A') (A") (A') (A")
                 (A') (A") (A') (A') (A") (A') (A") (A') (A") (A')
                 (A") (A') (A") (A') (A') (A") (A") (A') (A') (A")
                 (A") (A") (A') (A') (A") (A') (A') (A") (A') (A")
                 (A') (A") (A") (A') (A") (A') (A") (A") (A') (A')
                 (A") (A") (A') (A") (A') (A') (A") (A") (A') (A')
                 (A") (A') (A') (A") (A') (A") (A') (A") (A') (A')
                 (A") (A') (A") (A') (A") (A') (A') (A') (A") (A")
                 (A") (A') (A") (A') (A') (A") (A") (A') (A') (A')
                 (A") (A") (A') (A') (A") (A') (A") (A") (A') (A")
                 (A") (A') (A") (A') (A") (A') (A') (A') (A") (A')
                 (A') (A') (A") (A") (A') (A") (A') (A") (A') (A")
                 (A') (A") (A') (A") (A") (A') (A") (A') (A") (A")
                 (A') (A") (A') (A") (A') (A') (A") (A') (A') (A")
                 (A") (A') (A") (A') (A") (A') (A') (A") (A') (A")
                 (A") (A') (A") (A') (A') (A") (A') (A') (A") (A")
                 (A') (A") (A") (A') (A") (A') (A") (A') (A") (A')
                 (A") (A') (A') (A') (A") (A") (A") (A') (A') (A")
                 (A') (A") (A') (A") (A') (A') (A") (A") (A') (A")
                 (A') (A') (A") (A") (A') (A') (A") (A') (A") (A')
                 (A") (A') (A") (A") (A') (A') (A") (A") (A') (A')
                 (A") (A') (A") (A") (A') (A") (A') (A") (A') (A')
                 (A") (A") (A") (A') (A') (A") (A') (A') (A") (A")
                 (A') (A') (A') (A") (A") (A") (A') (A') (A") (A')
                 (A') (A") (A') (A') (A") (A') (A") (A') (A') (A")
                 (A") (A') (A') (A") (A") (A') (A") (A') (A") (A')
                 (A') (A") (A") (A') (A") (A') (A') (A") (A") (A")
                 (A') (A') (A") (A') (A") (A') (A") (A') (A') (A")
                 (A') (A") (A") (A') (A") (A') (A") (A') (A') (A")
                 (A") (A') (A') (A") (A') (A") (A') (A") (A') (A')
                 (A") (A') (A') (A") (A") (A') (A") (A") (A') (A')
                 (A") (A') (A') (A") (A") (A') (A") (A") (A') (A')
                 (A") (A') (A") (A') (A") (A') (A') (A") (A') (A')
                 (A") (A") (A') (A') (A") (A") (A') (A') (A") (A")
                 (A') (A") (A') (A") (A') (A") (A") (A') (A") (A')
                 (A") (A") (A') (A') (A") (A') (A') (A') (A") (A")
                 (A') (A") (A') (A") (A") (A') (A') (A') (A") (A")
                 (A') (A') (A') (A") (A') (A") (A') (A") (A') (A')
                 (A") (A") (A') (A') (A") (A') (A') (A') (A") (A')
                 (A') (A')
 The electronic state of the initial guess is 1-A'.
 Requested convergence on RMS density matrix=1.00D-08 within 128 cycles.
 Requested convergence on MAX density matrix=1.00D-06.
 Requested convergence on             energy=1.00D-06.
 No special actions if energy rises.
 Defaulting to unpruned grid for atomic number  77.
 Defaulting to unpruned grid for atomic number  77.
 Defaulting to unpruned grid for atomic number  77.
 Defaulting to unpruned grid for atomic number  77.
 Defaulting to unpruned grid for atomic number  77.
 Defaulting to unpruned grid for atomic number  77.
 Inv3:  Mode=1 IEnd=    17773068.
 Iteration    1 A*A^-1 deviation from unit magnitude is 2.89D-15 for     84.
 Iteration    1 A*A^-1 deviation from orthogonality  is 2.22D-15 for   1871    128.
 Iteration    1 A^-1*A deviation from unit magnitude is 3.00D-15 for   1095.
 Iteration    1 A^-1*A deviation from orthogonality  is 2.74D-15 for   1880    114.
 Error on total polarization charges =  0.02020
 SCF Done:  E(RwB97XD) =  -774.355716362     A.U. after   19 cycles
            NFock= 19  Conv=0.63D-08     -V/T= 2.1039

 **********************************************************************

            Population analysis using the SCF Density.

 **********************************************************************

 Orbital symmetries:
       Occupied  (A') (A") (A') (A') (A') (A") (A') (A") (A') (A")
                 (A') (A") (A') (A") (A') (A') (A') (A") (A') (A')
                 (A') (A") (A') (A") (A') (A') (A") (A') (A") (A')
                 (A") (A') (A") (A') (A") (A') (A') (A') (A") (A")
                 (A') (A") (A') (A') (A') (A") (A") (A') (A") (A')
                 (A") (A") (A') (A") (A') (A') (A') (A") (A") (A')
                 (A") (A") (A") (A') (A')
       Virtual   (A') (A") (A') (A') (A') (A') (A") (A') (A') (A')
                 (A") (A') (A") (A') (A") (A") (A') (A") (A') (A")
                 (A') (A') (A') (A") (A') (A') (A") (A") (A') (A')
                 (A") (A") (A') (A') (A") (A') (A") (A') (A') (A")
                 (A') (A") (A") (A') (A') (A") (A') (A') (A") (A')
                 (A") (A') (A') (A") (A") (A') (A") (A') (A") (A')
                 (A") (A') (A') (A") (A') (A") (A') (A") (A') (A')
                 (A") (A") (A") (A') (A') (A') (A') (A") (A') (A")
                 (A') (A") (A") (A') (A') (A") (A") (A") (A') (A')
                 (A') (A") (A') (A") (A') (A") (A") (A') (A') (A")
                 (A') (A') (A") (A") (A') (A') (A") (A') (A") (A')
                 (A") (A") (A') (A') (A") (A') (A") (A') (A") (A')
                 (A') (A") (A') (A") (A') (A') (A") (A') (A") (A')
                 (A") (A') (A") (A') (A") (A') (A") (A") (A') (A')
                 (A") (A') (A') (A") (A') (A") (A') (A') (A") (A')
                 (A") (A') (A") (A") (A') (A') (A") (A") (A') (A")
                 (A') (A') (A") (A") (A') (A') (A") (A') (A") (A")
                 (A') (A') (A") (A') (A') (A") (A') (A") (A') (A")
                 (A") (A') (A') (A") (A') (A') (A") (A") (A') (A")
                 (A') (A') (A") (A") (A") (A') (A') (A") (A') (A')
                 (A") (A") (A") (A') (A') (A") (A') (A") (A') (A')
                 (A") (A") (A') (A') (A') (A") (A") (A') (A") (A')
                 (A") (A') (A') (A') (A") (A") (A') (A') (A") (A")
                 (A') (A') (A") (A') (A") (A') (A") (A") (A') (A')
                 (A') (A") (A") (A') (A") (A') (A") (A') (A") (A')
                 (A") (A') (A") (A') (A') (A") (A') (A') (A") (A')
                 (A') (A") (A") (A') (A") (A") (A') (A") (A') (A")
                 (A') (A') (A") (A') (A") (A") (A") (A') (A") (A')
                 (A') (A") (A') (A") (A') (A") (A') (A") (A') (A")
                 (A") (A') (A') (A') (A") (A') (A") (A') (A") (A")
                 (A') (A') (A") (A') (A") (A') (A") (A') (A') (A")
                 (A') (A") (A") (A') (A') (A') (A") (A") (A') (A")
                 (A') (A') (A") (A') (A") (A') (A") (A') (A') (A")
                 (A') (A') (A") (A") (A") (A') (A') (A') (A") (A')
                 (A") (A') (A") (A') (A") (A') (A") (A') (A") (A')
                 (A") (A') (A") (A') (A') (A") (A') (A") (A') (A")
                 (A") (A") (A') (A') (A') (A") (A') (A") (A') (A")
                 (A') (A") (A") (A') (A") (A') (A") (A") (A') (A')
                 (A") (A') (A") (A') (A") (A') (A') (A") (A") (A')
                 (A') (A") (A") (A') (A') (A") (A') (A") (A') (A')
                 (A") (A") (A') (A') (A") (A') (A') (A") (A') (A")
                 (A') (A") (A') (A") (A') (A') (A') (A") (A") (A')
                 (A") (A') (A') (A") (A") (A') (A") (A") (A") (A')
                 (A') (A") (A') (A") (A') (A") (A') (A') (A') (A")
                 (A") (A') (A') (A") (A') (A") (A') (A") (A') (A')
                 (A") (A") (A') (A") (A') (A") (A") (A') (A") (A')
                 (A") (A') (A") (A') (A") (A') (A") (A') (A') (A")
                 (A") (A') (A") (A') (A") (A') (A') (A') (A") (A")
                 (A') (A") (A') (A") (A') (A") (A') (A') (A") (A")
                 (A') (A") (A") (A") (A') (A') (A") (A') (A') (A")
                 (A') (A") (A') (A') (A") (A") (A") (A') (A") (A')
                 (A') (A") (A') (A") (A') (A') (A") (A") (A') (A")
                 (A') (A') (A") (A') (A") (A') (A') (A") (A") (A')
                 (A') (A") (A") (A") (A') (A') (A") (A") (A') (A")
                 (A') (A") (A') (A') (A") (A") (A') (A") (A') (A')
                 (A") (A") (A") (A') (A') (A") (A') (A') (A") (A")
                 (A') (A') (A') (A") (A') (A") (A") (A') (A') (A")
                 (A') (A") (A') (A') (A") (A') (A") (A') (A') (A")
                 (A") (A') (A') (A") (A") (A') (A") (A') (A") (A')
                 (A') (A") (A") (A') (A') (A") (A') (A") (A") (A")
                 (A') (A') (A") (A') (A') (A") (A") (A') (A') (A")
                 (A') (A") (A") (A") (A') (A') (A") (A') (A') (A")
                 (A') (A") (A') (A") (A') (A") (A') (A') (A") (A')
                 (A") (A') (A') (A") (A') (A") (A") (A') (A") (A')
                 (A') (A") (A') (A") (A") (A') (A") (A') (A") (A')
                 (A') (A") (A") (A') (A") (A') (A') (A") (A') (A')
                 (A") (A') (A') (A") (A") (A") (A') (A') (A") (A")
                 (A") (A') (A') (A") (A') (A") (A") (A') (A") (A')
                 (A") (A") (A') (A') (A") (A') (A') (A') (A") (A")
                 (A') (A") (A') (A") (A") (A') (A') (A') (A") (A")
                 (A') (A') (A') (A") (A') (A") (A') (A") (A') (A')
                 (A") (A") (A') (A') (A") (A') (A') (A') (A") (A')
                 (A') (A')
 The electronic state is 1-A'.
 Alpha  occ. eigenvalues --  -19.31228 -14.51624 -14.51624 -14.51225 -10.42488
 Alpha  occ. eigenvalues --  -10.36669 -10.36666 -10.35463 -10.35463 -10.33137
 Alpha  occ. eigenvalues --  -10.33137 -10.33056 -10.33055 -10.32136 -10.32135
 Alpha  occ. eigenvalues --   -3.74423  -2.09045  -2.08212  -2.05242  -1.22436
 Alpha  occ. eigenvalues --   -1.10487  -1.07341  -1.06350  -0.93051  -0.91897
 Alpha  occ. eigenvalues --   -0.85281  -0.83178  -0.83144  -0.82682  -0.81000
 Alpha  occ. eigenvalues --   -0.74905  -0.73928  -0.72043  -0.67154  -0.64175
 Alpha  occ. eigenvalues --   -0.63344  -0.61120  -0.59758  -0.59708  -0.58463
 Alpha  occ. eigenvalues --   -0.58270  -0.58200  -0.56154  -0.54025  -0.52734
 Alpha  occ. eigenvalues --   -0.52538  -0.51827  -0.50630  -0.49653  -0.49145
 Alpha  occ. eigenvalues --   -0.48777  -0.48283  -0.47935  -0.47498  -0.47328
 Alpha  occ. eigenvalues --   -0.46600  -0.44526  -0.41453  -0.38958  -0.37248
 Alpha  occ. eigenvalues --   -0.36625  -0.29617  -0.27385  -0.26077  -0.25833
 Alpha virt. eigenvalues --    0.00122   0.02330   0.03031   0.07577   0.08319
 Alpha virt. eigenvalues --    0.09184   0.10202   0.10329   0.12716   0.13956
 Alpha virt. eigenvalues --    0.14130   0.14149   0.14436   0.14933   0.15741
 Alpha virt. eigenvalues --    0.15810   0.16176   0.16459   0.17125   0.18035
 Alpha virt. eigenvalues --    0.18259   0.18696   0.18985   0.19677   0.20616
 Alpha virt. eigenvalues --    0.20651   0.21278   0.21624   0.22035   0.22507
 Alpha virt. eigenvalues --    0.22559   0.23211   0.23666   0.25119   0.25273
 Alpha virt. eigenvalues --    0.26901   0.27508   0.27748   0.28909   0.29086
 Alpha virt. eigenvalues --    0.29614   0.30846   0.31267   0.31570   0.32393
 Alpha virt. eigenvalues --    0.33277   0.34532   0.34939   0.35333   0.35765
 Alpha virt. eigenvalues --    0.35822   0.36325   0.37397   0.37458   0.38492
 Alpha virt. eigenvalues --    0.38849   0.38938   0.39266   0.39879   0.39929
 Alpha virt. eigenvalues --    0.41464   0.42619   0.43475   0.43515   0.43900
 Alpha virt. eigenvalues --    0.44143   0.44874   0.45489   0.46163   0.46369
 Alpha virt. eigenvalues --    0.46822   0.47103   0.47628   0.47896   0.48395
 Alpha virt. eigenvalues --    0.48887   0.49372   0.49534   0.49736   0.49842
 Alpha virt. eigenvalues --    0.50714   0.50837   0.50979   0.51568   0.52249
 Alpha virt. eigenvalues --    0.52372   0.52760   0.53233   0.53319   0.55098
 Alpha virt. eigenvalues --    0.55491   0.56373   0.56387   0.57516   0.57728
 Alpha virt. eigenvalues --    0.57954   0.59054   0.59165   0.59906   0.60566
 Alpha virt. eigenvalues --    0.62483   0.63328   0.63426   0.64297   0.64798
 Alpha virt. eigenvalues --    0.65144   0.67127   0.67540   0.68081   0.69270
 Alpha virt. eigenvalues --    0.69585   0.71225   0.71278   0.72104   0.72219
 Alpha virt. eigenvalues --    0.73421   0.73425   0.74497   0.75647   0.75916
 Alpha virt. eigenvalues --    0.76995   0.77659   0.79753   0.80040   0.81158
 Alpha virt. eigenvalues --    0.82186   0.83227   0.83977   0.84586   0.85277
 Alpha virt. eigenvalues --    0.86539   0.87087   0.87148   0.88579   0.89216
 Alpha virt. eigenvalues --    0.90600   0.90673   0.91565   0.91828   0.92246
 Alpha virt. eigenvalues --    0.93755   0.94115   0.95572   0.95850   0.96290
 Alpha virt. eigenvalues --    0.97469   0.98468   0.99332   0.99774   1.00584
 Alpha virt. eigenvalues --    1.01000   1.01257   1.01910   1.03022   1.03313
 Alpha virt. eigenvalues --    1.03524   1.03818   1.05885   1.06315   1.06567
 Alpha virt. eigenvalues --    1.07107   1.07602   1.07990   1.08656   1.08889
 Alpha virt. eigenvalues --    1.09537   1.10284   1.10603   1.10735   1.12329
 Alpha virt. eigenvalues --    1.14008   1.15194   1.16009   1.16509   1.16844
 Alpha virt. eigenvalues --    1.17142   1.18702   1.19038   1.19799   1.20496
 Alpha virt. eigenvalues --    1.20617   1.22107   1.22784   1.23099   1.23789
 Alpha virt. eigenvalues --    1.25389   1.25391   1.26235   1.26509   1.27509
 Alpha virt. eigenvalues --    1.28244   1.29051   1.30721   1.31107   1.32168
 Alpha virt. eigenvalues --    1.32209   1.32513   1.33753   1.33954   1.34075
 Alpha virt. eigenvalues --    1.34337   1.35055   1.35711   1.35762   1.37353
 Alpha virt. eigenvalues --    1.38084   1.39410   1.39901   1.40778   1.41561
 Alpha virt. eigenvalues --    1.41784   1.43454   1.43495   1.44081   1.44727
 Alpha virt. eigenvalues --    1.44760   1.45943   1.46093   1.47386   1.47890
 Alpha virt. eigenvalues --    1.47965   1.49817   1.50567   1.50897   1.51171
 Alpha virt. eigenvalues --    1.51774   1.52341   1.52954   1.53295   1.54877
 Alpha virt. eigenvalues --    1.55562   1.55987   1.56164   1.57137   1.58532
 Alpha virt. eigenvalues --    1.58814   1.59985   1.60662   1.61914   1.62575
 Alpha virt. eigenvalues --    1.63398   1.63782   1.64469   1.64775   1.66634
 Alpha virt. eigenvalues --    1.67391   1.67975   1.68520   1.70512   1.70528
 Alpha virt. eigenvalues --    1.70944   1.71267   1.72188   1.72277   1.74010
 Alpha virt. eigenvalues --    1.74623   1.76686   1.79244   1.79263   1.79963
 Alpha virt. eigenvalues --    1.80972   1.81976   1.82521   1.82623   1.83812
 Alpha virt. eigenvalues --    1.85242   1.86145   1.87410   1.87827   1.89071
 Alpha virt. eigenvalues --    1.89432   1.90574   1.90879   1.92279   1.92333
 Alpha virt. eigenvalues --    1.94566   1.96245   1.96651   1.96943   1.98920
 Alpha virt. eigenvalues --    2.03021   2.03598   2.06305   2.07877   2.10832
 Alpha virt. eigenvalues --    2.10995   2.13612   2.15887   2.16929   2.18950
 Alpha virt. eigenvalues --    2.19688   2.20100   2.20490   2.21656   2.23321
 Alpha virt. eigenvalues --    2.23507   2.24667   2.25693   2.26762   2.28194
 Alpha virt. eigenvalues --    2.30252   2.33031   2.33633   2.35815   2.36184
 Alpha virt. eigenvalues --    2.36827   2.39700   2.40368   2.43214   2.43805
 Alpha virt. eigenvalues --    2.44816   2.45853   2.51762   2.52219   2.55590
 Alpha virt. eigenvalues --    2.58024   2.58826   2.59131   2.60921   2.62730
 Alpha virt. eigenvalues --    2.63663   2.64220   2.64918   2.65917   2.65972
 Alpha virt. eigenvalues --    2.66206   2.67523   2.69897   2.70120   2.71423
 Alpha virt. eigenvalues --    2.72540   2.73215   2.73229   2.75183   2.76512
 Alpha virt. eigenvalues --    2.76543   2.78445   2.79288   2.79632   2.81657
 Alpha virt. eigenvalues --    2.82097   2.82791   2.83230   2.84107   2.85706
 Alpha virt. eigenvalues --    2.85866   2.86634   2.87913   2.88089   2.88320
 Alpha virt. eigenvalues --    2.88763   2.89088   2.90820   2.91468   2.92499
 Alpha virt. eigenvalues --    2.92847   2.93418   2.93586   2.94615   2.95490
 Alpha virt. eigenvalues --    2.97382   2.97775   2.97903   2.98424   2.99355
 Alpha virt. eigenvalues --    2.99429   3.00870   3.01519   3.02065   3.02521
 Alpha virt. eigenvalues --    3.02930   3.03651   3.04977   3.06134   3.07175
 Alpha virt. eigenvalues --    3.08235   3.08280   3.08899   3.09568   3.10815
 Alpha virt. eigenvalues --    3.10898   3.11839   3.11874   3.12968   3.13521
 Alpha virt. eigenvalues --    3.14067   3.15120   3.15427   3.15926   3.16391
 Alpha virt. eigenvalues --    3.18303   3.18547   3.20597   3.20816   3.21345
 Alpha virt. eigenvalues --    3.22120   3.22780   3.23311   3.23383   3.24184
 Alpha virt. eigenvalues --    3.24257   3.26293   3.26477   3.26910   3.27718
 Alpha virt. eigenvalues --    3.27817   3.29035   3.29801   3.30270   3.31449
 Alpha virt. eigenvalues --    3.31478   3.31995   3.32030   3.32679   3.33252
 Alpha virt. eigenvalues --    3.34818   3.35425   3.35584   3.36207   3.37295
 Alpha virt. eigenvalues --    3.37806   3.37911   3.38421   3.38645   3.39833
 Alpha virt. eigenvalues --    3.40712   3.41522   3.41791   3.43566   3.43589
 Alpha virt. eigenvalues --    3.44719   3.45018   3.46298   3.46319   3.46636
 Alpha virt. eigenvalues --    3.47760   3.48063   3.49147   3.50873   3.51118
 Alpha virt. eigenvalues --    3.51872   3.52004   3.52313   3.53263   3.53289
 Alpha virt. eigenvalues --    3.54571   3.55947   3.56261   3.57684   3.58424
 Alpha virt. eigenvalues --    3.58688   3.58916   3.60396   3.61366   3.62398
 Alpha virt. eigenvalues --    3.62675   3.63897   3.64837   3.65763   3.66396
 Alpha virt. eigenvalues --    3.66443   3.66654   3.67077   3.67205   3.68188
 Alpha virt. eigenvalues --    3.69155   3.69779   3.70603   3.72400   3.72522
 Alpha virt. eigenvalues --    3.72908   3.74277   3.74607   3.75731   3.75983
 Alpha virt. eigenvalues --    3.76415   3.78075   3.78546   3.78696   3.79997
 Alpha virt. eigenvalues --    3.80868   3.80900   3.82754   3.83033   3.84105
 Alpha virt. eigenvalues --    3.84814   3.85119   3.86330   3.86378   3.88218
 Alpha virt. eigenvalues --    3.88754   3.89132   3.90983   3.91948   3.93262
 Alpha virt. eigenvalues --    3.93481   3.94942   3.95131   3.96507   3.97032
 Alpha virt. eigenvalues --    3.97556   3.99242   3.99761   4.00687   4.02293
 Alpha virt. eigenvalues --    4.02643   4.03643   4.05011   4.06327   4.06510
 Alpha virt. eigenvalues --    4.07015   4.08613   4.10102   4.10942   4.11325
 Alpha virt. eigenvalues --    4.12600   4.12979   4.13983   4.14893   4.15157
 Alpha virt. eigenvalues --    4.16012   4.17328   4.17808   4.17967   4.18097
 Alpha virt. eigenvalues --    4.19059   4.19569   4.19668   4.20262   4.21117
 Alpha virt. eigenvalues --    4.21974   4.22078   4.22343   4.23763   4.24175
 Alpha virt. eigenvalues --    4.24476   4.25041   4.26337   4.28031   4.28758
 Alpha virt. eigenvalues --    4.29076   4.29912   4.30250   4.31284   4.31486
 Alpha virt. eigenvalues --    4.32404   4.32795   4.33996   4.34451   4.35475
 Alpha virt. eigenvalues --    4.35672   4.37379   4.38514   4.38633   4.41707
 Alpha virt. eigenvalues --    4.42253   4.43403   4.43517   4.43584   4.44969
 Alpha virt. eigenvalues --    4.45902   4.48083   4.49564   4.49715   4.50348
 Alpha virt. eigenvalues --    4.50519   4.53259   4.54203   4.56409   4.56907
 Alpha virt. eigenvalues --    4.60459   4.61708   4.62749   4.65070   4.69253
 Alpha virt. eigenvalues --    4.69967   4.72125   4.72810   4.73550   4.74044
 Alpha virt. eigenvalues --    4.76352   4.77152   4.78228   4.78596   4.79571
 Alpha virt. eigenvalues --    4.81271   4.82153   4.83317   4.86270   4.87647
 Alpha virt. eigenvalues --    4.87774   4.88304   4.90009   4.90037   4.91566
 Alpha virt. eigenvalues --    4.91607   4.94100   4.97015   4.97596   5.01170
 Alpha virt. eigenvalues --    5.02641   5.03591   5.05149   5.05398   5.06053
 Alpha virt. eigenvalues --    5.06247   5.06930   5.08160   5.10427   5.11000
 Alpha virt. eigenvalues --    5.11868   5.12955   5.15444   5.15955   5.16176
 Alpha virt. eigenvalues --    5.17262   5.18402   5.18922   5.19973   5.21108
 Alpha virt. eigenvalues --    5.22140   5.22443   5.22756   5.24027   5.24602
 Alpha virt. eigenvalues --    5.25138   5.25263   5.26564   5.26870   5.27687
 Alpha virt. eigenvalues --    5.29454   5.29598   5.31019   5.31582   5.33344
 Alpha virt. eigenvalues --    5.33713   5.34447   5.34868   5.36094   5.36692
 Alpha virt. eigenvalues --    5.37337   5.37624   5.39761   5.40034   5.41198
 Alpha virt. eigenvalues --    5.42137   5.45907   5.47122   5.47198   5.48494
 Alpha virt. eigenvalues --    5.51410   5.51463   5.52139   5.52758   5.54131
 Alpha virt. eigenvalues --    5.54924   5.58116   5.60302   5.60848   5.62028
 Alpha virt. eigenvalues --    5.62312   5.64107   5.64985   5.65093   5.66307
 Alpha virt. eigenvalues --    5.67046   5.69419   5.72381   5.72762   5.74025
 Alpha virt. eigenvalues --    5.74257   5.74573   5.75779   5.76150   5.76943
 Alpha virt. eigenvalues --    5.77989   5.79091   5.79990   5.81887   5.87894
 Alpha virt. eigenvalues --    5.88182   5.89349   5.94621   6.02837   6.04469
 Alpha virt. eigenvalues --    6.06743   6.10196   6.13032   6.14078   6.23221
 Alpha virt. eigenvalues --    6.28114   6.28452   6.29939   6.37707   6.40477
 Alpha virt. eigenvalues --    6.66630   6.76605   6.99713   7.02388   7.35464
 Alpha virt. eigenvalues --    7.58228   8.08189  22.88997  23.09873  23.24714
 Alpha virt. eigenvalues --   23.38764  23.41287  23.48783  23.66630  23.67983
 Alpha virt. eigenvalues --   23.74840  23.77745  23.79511  32.83097  32.88298
 Alpha virt. eigenvalues --   33.04634  33.58219  39.75809  41.02396  44.35348
 Alpha virt. eigenvalues --   59.51112 363.29571
          Condensed to atoms (all electrons):
               1          2          3          4          5          6
     1  C    5.292822  -0.134890   0.359928   0.036315  -0.061610  -0.001782
     2  C   -0.134890   5.292822   0.036315   0.359928  -0.061610  -0.002104
     3  C    0.359928   0.036315   5.271534  -0.154536   0.502390   0.388322
     4  C    0.036315   0.359928  -0.154536   5.271534   0.502390   0.009291
     5  C   -0.061610  -0.061610   0.502390   0.502390   4.440205  -0.024186
     6  H   -0.001782  -0.002104   0.388322   0.009291  -0.024186   0.499903
     7  H   -0.002104  -0.001782   0.009291   0.388322  -0.024186  -0.000219
     8  O    0.015000   0.015000  -0.083496  -0.083496   0.395357   0.004991
     9  N    0.400838   0.400838  -0.065459  -0.065459  -0.003487   0.002770
    10  C    0.220983  -0.001109  -0.039544   0.000404   0.002832  -0.003887
    11  H   -0.033170   0.001105  -0.002814   0.000050  -0.000145   0.000100
    12  H   -0.056171  -0.000287  -0.001807  -0.000120   0.001051   0.000379
    13  C   -0.001109   0.220983   0.000404  -0.039544   0.002832   0.000039
    14  H    0.001105  -0.033170   0.000050  -0.002814  -0.000145   0.000001
    15  H   -0.000287  -0.056171  -0.000120  -0.001807   0.001051  -0.000002
    16  N   -0.036441   0.004184   0.000043   0.000189  -0.000104   0.000190
    17  N    0.004184  -0.036441   0.000189   0.000043  -0.000104  -0.000001
    18  C    0.015358   0.000255  -0.000252   0.000012   0.000004  -0.000034
    19  H   -0.000617  -0.000013   0.000042   0.000003  -0.000002   0.000000
    20  H    0.001472  -0.000008  -0.000009  -0.000004   0.000003   0.000011
    21  H   -0.001653   0.000038  -0.000192  -0.000001   0.000005  -0.000005
    22  C    0.004763  -0.000178   0.006083  -0.000013  -0.000462   0.000003
    23  H   -0.005014  -0.000080  -0.000386   0.000019  -0.000006   0.000004
    24  H   -0.000438   0.000075  -0.000273  -0.000013   0.000013  -0.000003
    25  H    0.014754  -0.000353   0.005589   0.000174  -0.000328   0.000128
    26  C    0.000255   0.015358   0.000012  -0.000252   0.000004   0.000001
    27  H   -0.000008   0.001472  -0.000004  -0.000009   0.000003  -0.000000
    28  H   -0.000013  -0.000617   0.000003   0.000042  -0.000002   0.000000
    29  H    0.000038  -0.001653  -0.000001  -0.000192   0.000005   0.000000
    30  C   -0.000178   0.004763  -0.000013   0.006083  -0.000462   0.000002
    31  H    0.000075  -0.000438  -0.000013  -0.000273   0.000013  -0.000000
    32  H   -0.000080  -0.005014   0.000019  -0.000386  -0.000006  -0.000000
    33  H   -0.000353   0.014754   0.000174   0.005589  -0.000328   0.000003
    34  Ir  -0.106419  -0.106419   0.002067   0.002067   0.000218  -0.000092
    35  H   -0.000365  -0.000365   0.003363   0.003363  -0.028601   0.000547
               7          8          9         10         11         12
     1  C   -0.002104   0.015000   0.400838   0.220983  -0.033170  -0.056171
     2  C   -0.001782   0.015000   0.400838  -0.001109   0.001105  -0.000287
     3  C    0.009291  -0.083496  -0.065459  -0.039544  -0.002814  -0.001807
     4  C    0.388322  -0.083496  -0.065459   0.000404   0.000050  -0.000120
     5  C   -0.024186   0.395357  -0.003487   0.002832  -0.000145   0.001051
     6  H   -0.000219   0.004991   0.002770  -0.003887   0.000100   0.000379
     7  H    0.499903   0.004991   0.002770   0.000039   0.000001  -0.000002
     8  O    0.004991   7.672446   0.000624  -0.000165  -0.000004   0.000002
     9  N    0.002770   0.000624   6.182637  -0.011989  -0.005492   0.003726
    10  C    0.000039  -0.000165  -0.011989   4.937237   0.439956   0.444236
    11  H    0.000001  -0.000004  -0.005492   0.439956   0.525688  -0.014665
    12  H   -0.000002   0.000002   0.003726   0.444236  -0.014665   0.527045
    13  C   -0.003887  -0.000165  -0.011989   0.001120   0.000063   0.000038
    14  H    0.000100  -0.000004  -0.005492   0.000063  -0.000036  -0.000001
    15  H    0.000379   0.000002   0.003726   0.000038  -0.000001  -0.000001
    16  N   -0.000001   0.000002  -0.012330   0.259164  -0.037435  -0.024837
    17  N    0.000190   0.000002  -0.012330  -0.000366   0.000102  -0.000048
    18  C    0.000001  -0.000000  -0.002777  -0.050474  -0.004398  -0.005675
    19  H    0.000000   0.000000   0.000006   0.009799   0.000471  -0.000557
    20  H   -0.000000   0.000000   0.000116  -0.010928  -0.002825   0.004934
    21  H    0.000000  -0.000000  -0.000196  -0.006487   0.002814  -0.000194
    22  C    0.000002   0.000000  -0.005018  -0.035368   0.006106  -0.012871
    23  H   -0.000000   0.000000   0.000547  -0.008298  -0.000253   0.005984
    24  H   -0.000000  -0.000000  -0.000053   0.008577  -0.000172  -0.000102
    25  H    0.000003  -0.000003  -0.004151  -0.015627   0.000391  -0.003342
    26  C   -0.000034  -0.000000  -0.002777  -0.000160  -0.000008   0.000002
    27  H    0.000011   0.000000   0.000116  -0.000001  -0.000000  -0.000000
    28  H    0.000000   0.000000   0.000006   0.000001   0.000001   0.000000
    29  H   -0.000005  -0.000000  -0.000196  -0.000040  -0.000000  -0.000000
    30  C    0.000003   0.000000  -0.005018   0.000054  -0.000001  -0.000000
    31  H   -0.000003  -0.000000  -0.000053   0.000015   0.000000   0.000001
    32  H    0.000004   0.000000   0.000547  -0.000003   0.000000   0.000000
    33  H    0.000128  -0.000003  -0.004151   0.000093  -0.000001  -0.000003
    34  Ir  -0.000092   0.000026   0.336166  -0.040790  -0.007362   0.011764
    35  H    0.000547   0.378985  -0.000001   0.000008  -0.000000   0.000000
              13         14         15         16         17         18
     1  C   -0.001109   0.001105  -0.000287  -0.036441   0.004184   0.015358
     2  C    0.220983  -0.033170  -0.056171   0.004184  -0.036441   0.000255
     3  C    0.000404   0.000050  -0.000120   0.000043   0.000189  -0.000252
     4  C   -0.039544  -0.002814  -0.001807   0.000189   0.000043   0.000012
     5  C    0.002832  -0.000145   0.001051  -0.000104  -0.000104   0.000004
     6  H    0.000039   0.000001  -0.000002   0.000190  -0.000001  -0.000034
     7  H   -0.003887   0.000100   0.000379  -0.000001   0.000190   0.000001
     8  O   -0.000165  -0.000004   0.000002   0.000002   0.000002  -0.000000
     9  N   -0.011989  -0.005492   0.003726  -0.012330  -0.012330  -0.002777
    10  C    0.001120   0.000063   0.000038   0.259164  -0.000366  -0.050474
    11  H    0.000063  -0.000036  -0.000001  -0.037435   0.000102  -0.004398
    12  H    0.000038  -0.000001  -0.000001  -0.024837  -0.000048  -0.005675
    13  C    4.937237   0.439956   0.444236  -0.000366   0.259164  -0.000160
    14  H    0.439956   0.525688  -0.014665   0.000102  -0.037435  -0.000008
    15  H    0.444236  -0.014665   0.527045  -0.000048  -0.024837   0.000002
    16  N   -0.000366   0.000102  -0.000048   6.350153  -0.008258   0.256671
    17  N    0.259164  -0.037435  -0.024837  -0.008258   6.350153   0.000612
    18  C   -0.000160  -0.000008   0.000002   0.256671   0.000612   4.830759
    19  H    0.000001   0.000001   0.000000  -0.031883   0.000046   0.416599
    20  H   -0.000001  -0.000000  -0.000000  -0.017865  -0.000014   0.406142
    21  H   -0.000040  -0.000000  -0.000000  -0.035558   0.000063   0.427596
    22  C    0.000054  -0.000001  -0.000000   0.258932   0.000477  -0.046611
    23  H   -0.000003   0.000000   0.000000  -0.022791  -0.000034  -0.009055
    24  H    0.000015   0.000000   0.000001  -0.031002   0.000143  -0.007217
    25  H    0.000093  -0.000001  -0.000003  -0.030856   0.000254   0.007985
    26  C   -0.050474  -0.004398  -0.005675   0.000612   0.256671  -0.000146
    27  H   -0.010928  -0.002825   0.004934  -0.000014  -0.017865   0.000004
    28  H    0.009799   0.000471  -0.000557   0.000046  -0.031883  -0.000020
    29  H   -0.006487   0.002814  -0.000194   0.000063  -0.035558  -0.000015
    30  C   -0.035368   0.006106  -0.012871   0.000477   0.258932  -0.000022
    31  H    0.008577  -0.000172  -0.000102   0.000143  -0.031002  -0.000016
    32  H   -0.008298  -0.000253   0.005984  -0.000034  -0.022791   0.000000
    33  H   -0.015627   0.000391  -0.003342   0.000254  -0.030856  -0.000012
    34  Ir  -0.040790  -0.007362   0.011764   0.194149   0.194149  -0.062317
    35  H    0.000008  -0.000000   0.000000   0.000000   0.000000   0.000000
              19         20         21         22         23         24
     1  C   -0.000617   0.001472  -0.001653   0.004763  -0.005014  -0.000438
     2  C   -0.000013  -0.000008   0.000038  -0.000178  -0.000080   0.000075
     3  C    0.000042  -0.000009  -0.000192   0.006083  -0.000386  -0.000273
     4  C    0.000003  -0.000004  -0.000001  -0.000013   0.000019  -0.000013
     5  C   -0.000002   0.000003   0.000005  -0.000462  -0.000006   0.000013
     6  H    0.000000   0.000011  -0.000005   0.000003   0.000004  -0.000003
     7  H    0.000000  -0.000000   0.000000   0.000002  -0.000000  -0.000000
     8  O    0.000000   0.000000  -0.000000   0.000000   0.000000  -0.000000
     9  N    0.000006   0.000116  -0.000196  -0.005018   0.000547  -0.000053
    10  C    0.009799  -0.010928  -0.006487  -0.035368  -0.008298   0.008577
    11  H    0.000471  -0.002825   0.002814   0.006106  -0.000253  -0.000172
    12  H   -0.000557   0.004934  -0.000194  -0.012871   0.005984  -0.000102
    13  C    0.000001  -0.000001  -0.000040   0.000054  -0.000003   0.000015
    14  H    0.000001  -0.000000  -0.000000  -0.000001   0.000000   0.000000
    15  H    0.000000  -0.000000  -0.000000  -0.000000   0.000000   0.000001
    16  N   -0.031883  -0.017865  -0.035558   0.258932  -0.022791  -0.031002
    17  N    0.000046  -0.000014   0.000063   0.000477  -0.000034   0.000143
    18  C    0.416599   0.406142   0.427596  -0.046611  -0.009055  -0.007217
    19  H    0.551457  -0.020243  -0.018608  -0.007725  -0.001683   0.003188
    20  H   -0.020243   0.542829  -0.020406  -0.009485   0.006196  -0.001310
    21  H   -0.018608  -0.020406   0.541019   0.007835  -0.000282   0.000086
    22  C   -0.007725  -0.009485   0.007835   4.832861   0.408994   0.420267
    23  H   -0.001683   0.006196  -0.000282   0.408994   0.547988  -0.019259
    24  H    0.003188  -0.001310   0.000086   0.420267  -0.019259   0.538838
    25  H    0.000274  -0.000467  -0.000175   0.422723  -0.020741  -0.016828
    26  C   -0.000020   0.000004  -0.000015  -0.000022   0.000000  -0.000016
    27  H    0.000000  -0.000000   0.000000   0.000001   0.000000   0.000000
    28  H   -0.000003   0.000000  -0.000001   0.000000  -0.000000  -0.000003
    29  H   -0.000001   0.000000  -0.000010  -0.000009   0.000000  -0.000000
    30  C    0.000000   0.000001  -0.000009  -0.000243   0.000015   0.000056
    31  H   -0.000003   0.000000  -0.000000   0.000056  -0.000001   0.000006
    32  H   -0.000000   0.000000   0.000000   0.000015  -0.000000  -0.000001
    33  H    0.000002   0.000000  -0.000001   0.000003  -0.000006   0.000019
    34  Ir  -0.009542   0.012511  -0.004329  -0.049622   0.013743  -0.008008
    35  H   -0.000000   0.000000  -0.000000  -0.000000  -0.000000  -0.000000
              25         26         27         28         29         30
     1  C    0.014754   0.000255  -0.000008  -0.000013   0.000038  -0.000178
     2  C   -0.000353   0.015358   0.001472  -0.000617  -0.001653   0.004763
     3  C    0.005589   0.000012  -0.000004   0.000003  -0.000001  -0.000013
     4  C    0.000174  -0.000252  -0.000009   0.000042  -0.000192   0.006083
     5  C   -0.000328   0.000004   0.000003  -0.000002   0.000005  -0.000462
     6  H    0.000128   0.000001  -0.000000   0.000000   0.000000   0.000002
     7  H    0.000003  -0.000034   0.000011   0.000000  -0.000005   0.000003
     8  O   -0.000003  -0.000000   0.000000   0.000000  -0.000000   0.000000
     9  N   -0.004151  -0.002777   0.000116   0.000006  -0.000196  -0.005018
    10  C   -0.015627  -0.000160  -0.000001   0.000001  -0.000040   0.000054
    11  H    0.000391  -0.000008  -0.000000   0.000001  -0.000000  -0.000001
    12  H   -0.003342   0.000002  -0.000000   0.000000  -0.000000  -0.000000
    13  C    0.000093  -0.050474  -0.010928   0.009799  -0.006487  -0.035368
    14  H   -0.000001  -0.004398  -0.002825   0.000471   0.002814   0.006106
    15  H   -0.000003  -0.005675   0.004934  -0.000557  -0.000194  -0.012871
    16  N   -0.030856   0.000612  -0.000014   0.000046   0.000063   0.000477
[...]
 0,0.00002526,0.00001208,-0.00546989,0.00201359,-0.00102160,-0.00156089
 ,0.00205010,-0.00014364,-0.00285082,0.00192825,0.00186501,-0.00321341,
 0.00018439,-0.00053680,0.05266467,-0.00796840,-0.08710072,-0.00012814,
 -0.00004863,0.00042980,-0.00000579,0.00001558,-0.00002662,-0.00001596,
 -0.00004288,0.00005934,0.00002514,-0.00000407,0.00005189,0.00010506,-0
 .00019248,-0.00096279,-0.00028155,-0.00003090,-0.00016328,0.00004459,-
 0.00002016,-0.00001936,0.00002518,-0.00001614,-0.00000770,-0.01951877,
 -0.00007732,0.00315872,-0.00313168,-0.00121293,0.00090143,0.00007959,0
 .00049078,0.00028148,-0.00285817,-0.00230935,-0.00135486,0.05497005,0.
 00417290,0.57361627,-0.00005840,-0.00013276,-0.00008979,-0.00036996,-0
 .00013150,-0.00043215,-0.00002047,0.00007446,0.00004786,0.00007125,0.0
 0007074,0.00019679,0.00001765,-0.00000515,-0.00001052,0.00000938,-0.00
 000142,0.00000242,-0.00002366,-0.00001156,-0.00000405,0.00000575,0.000
 00758,0.00002479,0.00022112,0.00044419,-0.00010493,0.00000176,0.000000
 17,0.00003101,0.00000502,0.00000269,0.00000894,-0.00000409,0.00000151,
 0.00000507,-0.00572009,-0.00140957,0.00108299,-0.00071318,0.00183905,-
 0.00000950,0.00001168,-0.00016283,-0.00001324,-0.00009231,0.00004888,0
 .00022619,-0.01721684,0.03138129,-0.00487457,0.00000544,0.00003015,0.0
 0002045,0.00000014,-0.00000682,0.00000354,-0.00000676,-0.00001124,0.00
 000957,-0.00000420,-0.00000239,0.00000394,-0.00002595,0.00000384,-0.00
 004566,-0.00000723,-0.00000482,-0.00000004,0.00001482,0.00000020,-0.00
 000060,0.00000376,-0.00000583,0.00000099,0.00106971,0.00220783,0.00006
 070,-0.00009038,-0.00019975,-0.00004082,-0.00049500,-0.00070211,0.0000
 8200,0.00029721,-0.00013881,0.00022499,-0.08507788,0.08497547,-0.02265
 388,0.09933299,-0.00002706,0.00000816,-0.00001198,0.00006374,0.0004104
 0,0.00048997,0.00002602,0.00006921,-0.00009287,-0.00001487,-0.00008741
 ,-0.00013039,-0.00001353,0.00002113,0.00016044,0.00001147,0.00000537,-
 0.00000338,-0.00000778,0.00001931,0.00000062,0.00000460,0.00002170,-0.
 00003236,-0.00035323,-0.00014420,0.00013968,-0.00001387,-0.00000557,-0
 .00005416,-0.00000519,-0.00000643,-0.00001519,0.00000862,-0.00000329,-
 0.00000194,0.00006250,0.00129436,-0.00014431,0.00016014,-0.00002598,-0
 .00013281,-0.00010806,0.00024202,-0.00030804,0.00000348,-0.00009429,-0
 .00013102,-0.00030264,-0.00055175,-0.00051834,-0.00000901,-0.00001384,
 -0.00000357,0.00000393,0.00000345,0.00000227,0.00000482,0.00000317,-0.
 00000508,0.00000438,0.00000573,-0.00000819,0.00002403,-0.00000330,0.00
 002042,0.00000201,-0.00000002,-0.00000827,0.00000029,0.00000323,-0.000
 00370,0.00000142,-0.00000462,-0.00000186,-0.00103029,0.00069013,-0.000
 04856,0.00002819,-0.00015105,0.00000372,-0.00001648,0.00046830,0.00027
 513,0.00007346,0.00032309,-0.00009167,0.09427581,-0.27587903,0.0580964
 3,-0.10157239,0.29237706,-0.00000278,0.00003718,0.00006594,-0.00041109
 ,0.00023872,0.00016645,0.00001164,-0.00000205,-0.00002884,0.00005126,0
 .00003591,-0.00003841,0.00001612,-0.00003867,0.00000412,-0.00000070,0.
 00000133,0.00000041,0.00000262,0.00000434,-0.00000277,-0.00000616,0.00
 005113,-0.00000700,-0.00011028,-0.00017333,0.00005457,0.00000799,-0.00
 001530,0.00000580,-0.00000557,-0.00000340,-0.00000469,0.00000101,0.000
 01196,0.00000453,0.00204897,0.00101959,0.00018922,0.00029248,-0.000681
 70,0.00038848,-0.00000347,-0.00035514,0.00030194,-0.00007313,0.0001250
 3,-0.00001157,0.00591442,-0.01137817,0.00070058,0.00000500,0.00000150,
 -0.00001280,0.00000005,0.00000104,-0.00000409,0.00000727,0.00000064,0.
 00000800,0.00000572,-0.00000012,-0.00000069,0.00000162,-0.00002131,-0.
 00002010,-0.00000307,0.00000363,0.00000784,0.00000052,0.00000487,-0.00
 002009,0.00000104,-0.00000640,-0.00000262,-0.00049736,0.00005467,-0.00
 021381,0.00012505,0.00021043,-0.00002520,-0.00012948,0.00007617,0.0001
 4584,0.00003735,-0.00012584,-0.00010399,-0.02547893,0.06117794,-0.0647
 9764,0.02196019,-0.06356945,0.06538843,-0.00001870,0.00004905,0.000067
 98,0.00004802,0.00021541,-0.00020442,-0.00000441,-0.00003325,-0.000014
 08,0.00000444,0.00009039,0.00007889,0.00000945,-0.00001845,-0.00005535
 ,-0.00000608,0.00000281,0.00000365,0.00000531,0.00000726,0.00000081,0.
 00000202,0.00006389,0.00000971,0.00010220,-0.00038533,-0.00010464,0.00
 008219,-0.00017018,-0.00001745,-0.00001078,0.00001222,0.,-0.00000698,0
 .00002904,0.00001320,0.00081940,-0.00301555,0.00199539,0.00021015,-0.0
 0011067,-0.00017773,0.00015034,0.00049693,-0.00067136,0.00090925,-0.00
 001004,0.00068996,-0.01347272,-0.00456403,0.03738794,0.00011964,0.0001
 1728,-0.00009293,-0.00000032,-0.00001108,0.00000440,-0.00002639,-0.000
 01195,0.00003996,-0.00002183,-0.00000462,-0.00001419,-0.00016317,0.000
 06161,0.00027959,0.00010791,0.00001724,0.00008839,-0.00000684,0.000002
 43,0.00000267,-0.00000098,0.00000435,0.00000311,0.00175145,0.00110159,
 0.00326932,0.00010587,-0.00001904,-0.00085344,-0.00010727,-0.00007879,
 -0.00026445,0.00021485,0.00015968,-0.00039753,-0.05077173,0.00001250,0
 .00082499,0.00123738,0.00031926,-0.01152554,0.05959727,0.00002579,0.00
 007066,0.00004642,-0.00003636,-0.00027619,-0.00021658,0.00002400,-0.00
 001668,0.00001589,0.00001427,0.00012244,0.00008836,-0.00001331,-0.0000
 8126,-0.00007945,-0.00000318,0.00000712,0.00000425,0.00001743,-0.00001
 486,-0.00000440,0.00000293,0.00010454,0.00001652,-0.00033375,-0.000218
 10,0.00044104,-0.00000784,-0.00001198,-0.00003713,-0.00000447,-0.00000
 874,-0.00000213,0.00000159,0.00000379,0.00001038,0.00037282,0.00102934
 ,-0.00216991,-0.00012073,0.00002279,0.00008103,0.00001763,-0.00026802,
 0.00044672,0.00008175,-0.00015160,0.00012292,-0.00029046,-0.00040529,-
 0.00097556,0.00003858,0.00001965,-0.00000182,0.00000413,0.00000018,0.0
 0000361,-0.00001467,-0.00000323,0.00001238,-0.00001010,0.00000395,-0.0
 0000299,-0.00004092,-0.00001275,0.00003049,0.00001629,0.00001216,0.000
 01337,-0.00000490,0.00000057,-0.00000300,0.00000229,0.00000575,0.00000
 011,-0.00026759,0.00012841,0.00121479,-0.00033364,0.00002587,-0.000057
 85,0.00011951,-0.00007330,0.00011197,0.00006710,-0.00008078,-0.0001969
 1,-0.00076787,-0.05783569,0.03813434,-0.00137574,-0.00210866,0.0278799
 0,0.00106456,0.05386073,0.00002647,-0.00008004,-0.00001557,-0.00006795
 ,-0.00003204,0.00006043,-0.00002251,-0.00006541,0.00005721,-0.00002850
 ,-0.00009120,-0.00010692,0.00000334,0.00025958,0.00000076,-0.00000348,
 -0.00002260,-0.00000895,0.00001248,-0.00002400,0.00000359,-0.00001703,
 -0.00035000,-0.00000957,0.00000777,0.00062774,0.00001379,-0.00004404,0
 .00015070,0.00007016,0.00000769,0.00001884,0.00001475,-0.00000321,-0.0
 0003716,-0.00003134,-0.00102532,0.00084659,0.00067326,-0.00010371,-0.0
 0019276,0.00032702,0.00043882,-0.00080200,0.00032326,-0.00046263,0.000
 11974,-0.00033748,0.00628962,0.00160450,-0.01261782,-0.00011401,-0.000
 13431,0.00006070,-0.00000385,0.00001289,0.00000466,0.00001162,0.000013
 23,-0.00007376,-0.00001304,-0.00000494,0.00003495,0.00018365,-0.000047
 88,-0.00015634,-0.00008633,-0.00001411,-0.00006038,0.,0.00000734,0.000
 00658,-0.00000370,-0.00000530,0.00001534,-0.00128693,-0.00074973,0.001
 61197,0.00081736,0.00075410,0.00051447,0.00004868,0.00005188,-0.000140
 62,-0.00006280,-0.00002420,0.00040883,0.00655322,0.03763632,-0.2981718
 3,-0.00032665,-0.00021655,-0.00512235,-0.01388857,-0.04227303,0.324708
 31,-0.00003665,0.00006490,0.00011776,0.00002388,0.00065561,0.00012959,
 -0.00000895,-0.00005029,-0.00004557,0.00002756,0.00009794,0.00002910,-
 0.00001174,0.00012762,0.00000027,0.00000462,-0.00000325,-0.00000294,0.
 00000943,-0.00000340,0.00000002,-0.00000334,-0.00007209,-0.00000806,-0
 .00008669,-0.00019704,0.00025797,0.00002728,-0.00003224,0.00001609,-0.
 00000551,0.00001117,-0.00000255,-0.00000648,0.00001396,-0.00000318,0.0
 0082895,-0.00155680,-0.00049571,0.00021052,-0.00014060,-0.00002635,-0.
 00011121,0.00024652,-0.00018514,-0.00000838,0.00002924,0.00028315,-0.0
 2215127,-0.02509549,-0.01493627,0.00001338,0.00002249,0.00001134,0.000
 00308,-0.00000017,0.00000553,-0.00002041,-0.00001052,-0.00000293,-0.00
 002036,-0.00000312,0.00000466,-0.00002915,-0.00000176,-0.00002449,-0.0
 0000073,0.00000243,0.00000375,0.00000366,0.00000116,-0.00000105,0.0000
 0830,-0.00000213,0.00000712,-0.00552251,0.00206214,0.00320721,0.000057
 98,0.00013502,-0.00004088,0.00024744,-0.00007393,0.00014555,-0.0010537
 5,-0.00134084,-0.00100568,-0.11893682,-0.09433079,-0.06473698,0.007857
 18,0.00843817,0.00661233,0.00179143,0.00158696,0.00045383,0.13692445,0
 .00003885,0.00003901,-0.00000846,-0.00000186,-0.00003094,-0.00026116,0
 .00000019,-0.00005359,0.00009866,-0.00005683,0.00003425,0.00014996,0.0
 0003233,-0.00000676,-0.00014452,-0.00001184,-0.00000263,0.00000240,0.0
 0000551,-0.00001217,0.00000507,-0.00000377,-0.00003837,0.00002970,0.00
 005305,0.00019593,0.00002795,0.00000372,0.00001143,0.00002583,0.000001
 29,0.00000436,0.00001230,-0.00000647,-0.00000289,0.00000023,0.00075575
 ,0.00046696,0.00070410,-0.00016198,0.00008811,0.00002475,0.00011514,0.
 00011774,0.00008668,0.00006903,-0.00000129,0.00011659,0.00259728,0.001
 58281,0.00173925,0.00002161,-0.00000386,-0.00000346,-0.00000212,0.0000
 0051,0.00000157,-0.00001528,-0.00000079,-0.00000755,-0.00001498,-0.000
 00283,0.00000713,-0.00001734,-0.00001130,0.00001734,0.00000396,0.00000
 583,0.00000546,-0.00000569,-0.00000396,0.00000528,-0.00000238,0.000012
 59,0.00001766,0.00031074,0.00048962,0.00047192,0.00000887,-0.00006420,
 -0.00011530,0.00008717,0.00048259,-0.00001449,-0.00004999,0.00041613,-
 0.00026855,-0.10263642,-0.19142260,-0.09543770,-0.01490218,-0.01743045
 ,-0.01406351,0.00410607,0.00485865,0.00364155,0.10922932,0.20006744,-0
 .00000461,-0.00002857,-0.00004305,-0.00006255,-0.00005584,0.00034788,0
 .00000398,0.00003801,-0.00004036,0.00000695,-0.00001342,-0.00003881,0.
 00001745,-0.00003561,0.00005947,-0.00000108,0.00000426,-0.00000115,-0.
 00002381,0.00002200,-0.00000303,0.00000238,0.00005185,-0.00001204,0.00
 003893,-0.00019138,0.00007800,0.00000936,-0.00002306,-0.00001366,-0.00
 000399,-0.00000052,-0.00000065,0.00000398,0.00000436,0.00000338,-0.000
 26397,0.00013332,0.00045196,0.00003987,0.00012889,-0.00013612,-0.00004
 338,-0.00009352,-0.00042908,-0.00002751,-0.00005980,0.00012350,0.00740
 933,0.00998149,0.00504127,0.00001282,0.00002213,0.00001959,0.00000123,
 0.00000097,-0.00000100,-0.00000515,-0.00000704,0.00001639,-0.00000390,
 -0.00000039,0.00000590,-0.00000010,0.00001451,-0.00001355,-0.00000240,
 0.00000009,0.00001454,-0.00000113,0.00000120,-0.00000148,-0.00000672,-
 0.00001589,-0.00001238,0.00114921,-0.00035148,-0.00012371,0.00038778,0
 .00010626,0.00047170,0.00005308,-0.00013914,-0.00016517,0.00044896,0.0
 0010739,0.00051580,-0.07099350,-0.09833213,-0.11424864,0.00475520,0.00
 611650,0.00361965,-0.01529905,-0.02197565,-0.01239234,0.07112222,0.103
 62857,0.11805382,0.00575371,0.00228455,0.00318446,0.00571035,0.0021413
 5,-0.00312777,0.00233938,0.00019441,-0.00101036,0.00224968,0.00015517,
 0.00099030,-0.00058683,-0.00115097,0.00014346,-0.00001760,-0.00007031,
 0.00005696,-0.00004103,-0.00007341,-0.00005670,-0.00006706,0.00168364,
 0.00005113,-0.01586620,0.01379299,0.00001570,-0.00050944,0.00225586,0.
 00467052,0.00025981,-0.00083243,0.00035608,0.00013742,0.00173057,0.000
 26471,-0.00037832,0.00201238,-0.00475532,0.00027372,-0.00079661,-0.000
 33688,0.00014683,0.00173997,-0.00031067,-0.04571184,-0.00049169,-0.000
 42577,-0.04518491,-0.00111611,-0.00050072,0.00128054,0.00349580,0.0099
 7120,0.00029074,-0.00021547,-0.00009839,-0.00026251,-0.00163590,0.0016
 2781,0.00014477,0.00049151,0.00078830,-0.00001268,-0.00402973,-0.01714
 783,-0.00263201,0.00014315,-0.00274168,-0.00024134,-0.00000187,-0.0010
 7817,-0.00001558,0.00041666,-0.00130030,0.00082897,0.00226299,-0.01109
 799,-0.00024292,-0.00166067,-0.00158620,0.00028043,-0.00020671,0.00012
 445,0.00013396,0.00046897,-0.00079095,-0.00034680,-0.00384715,0.017255
 80,-0.00023401,-0.00004236,0.00114724,-0.00264840,0.00016854,0.0027052
 5,-0.00002507,0.00045076,0.00128111,0.09523477,0.00271998,-0.02869760,
 -0.02382795,0.00266087,-0.02807181,0.02415984,-0.00002561,-0.00087272,
 0.00532586,0.00001863,-0.00031300,-0.00493719,0.00055381,0.00782341,-0
 .00115325,-0.00021074,0.00005368,-0.00020752,-0.00020208,0.00012720,0.
 00020391,-0.00054004,-0.01321328,-0.00037346,0.01189583,-0.16371985,0.
 00134032,0.00179300,-0.00833267,-0.01149306,-0.00011779,0.00139476,-0.
 00085556,0.00080428,-0.00243273,-0.00010838,0.00153169,-0.00776699,0.0
 1135400,-0.00013093,0.00134563,0.00078119,0.00081365,-0.00245407,0.000
 16529,-0.00040945,-0.05012008,0.00103901,-0.00126271,-0.05606543,-0.00
 064709,0.00249075,0.00670977,0.00934476,0.00017338,0.00065331,0.000618
 33,-0.00160578,-0.00094999,0.00303675,0.00014114,-0.00008343,0.0000965
 7,-0.00167820,-0.00061041,-0.00107435,0.00055206,0.00134062,0.00062403
 ,-0.00030487,0.00057673,0.00050369,0.00022952,0.00019379,-0.00096916,0
 .00190914,0.00741658,-0.01156144,-0.00154901,-0.00106567,-0.00299772,0
 .00019937,0.00059978,-0.00068632,0.00014677,-0.00004739,-0.00010570,-0
 .00135546,-0.00046791,0.00103199,-0.00031072,0.00054459,-0.00049726,0.
 00050160,0.00129838,-0.00060703,0.00017698,0.00021234,0.00096690,-0.01
 963684,0.33424445,0.00116906,-0.01950585,-0.00021616,-0.00113931,0.020
 14996,-0.00116289,-0.00002223,0.00168506,-0.00532983,0.00007477,-0.001
 81118,-0.00526115,-0.00002577,0.00003877,0.00337955,-0.00019883,-0.000
 70996,0.00021022,0.00020991,0.00067057,0.00021072,0.00002211,0.0000860
 3,-0.00045876,-0.00013124,0.00087137,-0.03441403,0.00468512,-0.0162479
 6,-0.00992719,-0.00063113,0.00059012,0.00010407,0.00018842,0.00081178,
 0.00041111,-0.00478114,0.01630564,-0.01048217,0.00065654,-0.00061047,0
 .00009283,-0.00017503,-0.00074707,0.00043597,-0.00060591,-0.01490781,-
 0.05887254,0.00029910,0.01491625,-0.05884852,0.00564404,0.00232516,-0.
 00974925,-0.00083111,-0.00000012,0.00001587,-0.00114749,-0.00008768,0.
 00131030,-0.00080380,-0.00084371,-0.00025708,-0.01246288,-0.00063801,-
 0.01178466,0.00111039,0.00065062,0.00024193,0.00012681,-0.00020245,-0.
 00061355,0.00089690,0.00047129,-0.00114198,-0.00674974,-0.00452526,-0.
 01011915,0.00117193,0.00013657,0.00140175,0.00082605,-0.00003356,-0.00
 002581,0.00078576,0.00085887,-0.00027940,0.01217703,0.00096554,-0.0113
 9149,-0.00014375,0.00023089,-0.00063071,-0.00117462,-0.00066940,0.0003
 1166,-0.00089360,-0.00049854,-0.00114411,0.00188983,0.00032156,0.22399
 252,-0.00064722,0.00001542,-0.00010001,0.00176106,-0.00002890,-0.00025
 939,-0.00053754,0.00007442,-0.00005151,0.00317898,-0.00053224,0.000105
 41,-0.00319277,-0.00107845,-0.00184100,-0.00016743,-0.00036088,0.00052
 839,-0.00059866,0.00002904,0.00006409,-0.00584020,-0.00222238,-0.00120
 637,0.00000974,0.00001290,0.00015140,0.00006652,-0.00002181,0.00002573
 ,-0.00000573,0.00000159,-0.00001450,0.00000826,-0.00001251,-0.00000187
 ,-0.00033129,0.00005031,0.00001942,-0.00000317,-0.00006943,-0.00006883
 ,0.00001401,0.00001502,0.00002822,-0.00001119,0.00001224,0.00000425,-0
 .00002603,-0.00002235,0.00003764,0.00000064,0.00000408,-0.00000223,-0.
 00000117,0.00000197,0.00000161,0.00000324,-0.00000124,-0.00000034,-0.0
 0000441,-0.00000420,-0.00000200,0.00002016,0.00000956,0.00000221,0.000
 00104,0.00000151,-0.00000644,-0.00000505,-0.00000380,-0.00000117,-0.00
 000201,0.00000502,0.00000455,-0.00000319,0.00000393,0.00000070,0.00000
 082,-0.00000060,-0.00000100,0.00000278,0.00000097,0.00000096,0.0000026
 3,-0.00000037,-0.00000072,0.00002369,0.00001458,0.00000612,-0.00000185
 ,0.00000042,-0.00000233,-0.00000199,-0.00000064,0.00000444,-0.00000012
 ,-0.00000152,-0.00000099,-0.00004055,0.00002777,-0.00001617,0.00632797
 ,-0.00001845,-0.00110990,-0.00069867,-0.00034965,0.00016088,-0.0022964
 0,0.00027426,0.00412856,-0.00175887,-0.00023922,-0.00556437,0.00296110
 ,-0.00076866,-0.03040694,-0.04624055,-0.00052048,0.00053540,0.00201018
 ,0.00006291,0.00010892,0.00011720,-0.00278224,-0.11483462,-0.14486606,
 0.00022297,-0.00008811,0.00115140,0.00003950,0.00011678,0.00022768,-0.
 00001806,0.00006569,-0.00003836,-0.00002075,0.00000515,0.00000830,0.00
 015303,-0.00026611,0.00022319,-0.00002578,0.00005334,0.00003452,-0.000
 00645,0.00002876,0.00003909,0.00005034,0.00013841,-0.00013132,-0.00004
 079,-0.00005848,-0.00003467,-0.00011464,0.00000164,0.00007117,0.000011
 74,0.00003573,-0.00001215,0.00000162,-0.00000964,-0.00003159,-0.000005
 94,-0.00000387,0.00000112,0.00008820,0.00002808,0.00004217,-0.00000382
 ,-0.00001354,-0.00002889,-0.00001292,0.00001191,-0.00000122,0.00001684
 ,-0.00001110,0.00000048,-0.00003074,-0.00006265,-0.00002229,0.00000186
 ,-0.00000068,0.00003056,-0.00000293,0.00000170,-0.00000867,-0.00000508
 ,0.00000057,-0.00000441,0.00003359,0.00000678,-0.00001656,-0.00000047,
 -0.00000053,-0.00000436,-0.00000221,-0.00000784,0.00002930,0.00001284,
 0.00000232,-0.00000527,-0.00008102,0.00075001,-0.00004704,0.00408060,0
 .14625774,-0.00000658,-0.00020854,-0.00071477,-0.00004357,-0.00067564,
 -0.00009226,0.00002915,0.00531215,0.00306317,0.00012867,0.00235260,0.0
 0236906,0.00007172,0.00190821,0.00295372,0.00049529,-0.00040791,-0.000
 69396,0.00005474,0.00016382,0.00031444,-0.00337982,-0.19818343,-0.4583
 3913,0.00027411,-0.00091145,-0.00007441,-0.00002295,0.00011828,0.00004
 760,-0.00001597,-0.00001580,0.00001385,-0.00001202,0.00001614,-0.00004
 482,-0.00001742,0.00006841,0.00001324,-0.00001730,-0.00002180,-0.00001
 602,-0.00000634,-0.00000504,0.00000339,0.00000939,0.00000937,-0.000024
 76,0.00001739,0.00001932,-0.00000508,-0.00002973,-0.00002004,0.0000142
 1,0.00000352,0.00000192,0.00000416,0.00000014,0.00000171,-0.00002948,-
 0.00000595,0.00000292,0.00000720,0.00003807,0.00000488,0.00000677,-0.0
 0000441,-0.00000541,-0.00003161,0.00000282,-0.00000877,0.00000396,0.00
 000231,0.00000946,0.00000927,-0.00003498,-0.00002209,-0.00001981,-0.00
 000041,-0.00000072,0.00002337,0.00000375,0.00000598,-0.00000263,-0.000
 00441,0.00000203,-0.00000524,0.00003585,0.00000889,-0.00000301,0.00000
 252,-0.00000238,-0.00000444,-0.00000462,-0.00000866,0.00002359,0.00000
 390,0.00000330,-0.00000253,-0.00015860,0.00118842,-0.00000808,0.002591
 73,0.18929988,0.45124103\\0.00000059,0.00000556,-0.00000235,0.00000123
 ,-0.00000482,0.00001354,0.00000215,0.00000119,-0.00001118,0.00000282,0
 .00000522,0.00000123,0.00000941,0.00000124,-0.00000052,0.00000609,0.00
 000140,-0.00000043,0.00000589,-0.00000475,-0.00000222,0.00000606,-0.00
 000018,0.00001528,0.00000445,0.00000492,-0.00001280,0.00000073,0.00000
 375,0.00000333,0.00000197,0.00000334,-0.00000018,0.00000129,-0.0000002
 1,-0.00000147,0.00000228,-0.00000004,-0.00000338,0.00000181,-0.0000011
 3,0.00000092,0.00000236,-0.00000397,-0.00000027,-0.00001982,0.00000225
 ,0.00000047,-0.00001746,-0.00000609,-0.00000317,-0.00000147,0.00000804
 ,0.00000328,-0.00000665,0.00000449,0.00000156,-0.00000341,0.00000329,-
 0.00000033,-0.00000356,0.00000463,0.00000238,0.00000592,0.00000317,-0.
 00000353,-0.00000165,-0.00000057,0.00000040,-0.00000509,0.00000029,0.0
 0000311,-0.00000085,-0.00000369,0.00000162,0.00000155,0.00000608,-0.00
 000473,-0.00000216,-0.00000215,0.00000313,-0.00000553,0.00000042,0.000
 00267,-0.00000214,0.00000124,0.00000015,0.00000365,-0.00000336,0.00000
 371,-0.00000370,-0.00000326,0.00000198,-0.00000052,-0.00000491,0.00000
 223,0.00000043,-0.00000639,-0.00000033,0.00000719,-0.00000572,0.000005
 85,0.00000613,-0.00000929,-0.00001999\\\@
 The archive entry for this job was punched.


      TO SUSPECT YOUR OWN MORTALITY IS TO KNOW THE BEGINNING OF TERROR.
      TO LEARN IRREFUTABLY THAT YOU ARE MORTAL IS TO KNOW THE END
      OF TERROR.

                                                  -- JESSICA
                                                     CHILDREN OF DUNE
                                                     BY FRANK HERBERT
 Job cpu time:       1 days  0 hours  6 minutes 19.4 seconds.
 Elapsed time:       0 days  4 hours  2 minutes  5.6 seconds.
 File lengths (MBytes):  RWF=   1519 Int=      0 D2E=      0 Chk=     60 Scr=      1
 Normal termination of Gaussian 16 at Fri Mar 29 08:45:23 2024.
