 Entering Gaussian System, Link 0=/cm/shared/apps//g16/g16
 Input=HZIrMe.gjf
 Output=HZIrMe.log
 Initial command:
 /cm/shared/apps//g16/l1.exe "/local/mvanvleet/pbs.15218.josephine/Gau-4003062.inp" -scrdir="/local/mvanvleet/pbs.15218.josephine/"
 Entering Link 1 = /cm/shared/apps//g16/l1.exe PID=   4003065.
  
 Copyright (c) 1988-2019, Gaussian, Inc.  All Rights Reserved.
  
 This is part of the Gaussian(R) 16 program.  It is based on
 the Gaussian(R) 09 system (copyright 2009, Gaussian, Inc.),
 the Gaussian(R) 03 system (copyright 2003, Gaussian, Inc.),
 the Gaussian(R) 98 system (copyright 1998, Gaussian, Inc.),
 the Gaussian(R) 94 system (copyright 1995, Gaussian, Inc.),
 the Gaussian 92(TM) system (copyright 1992, Gaussian, Inc.),
 the Gaussian 90(TM) system (copyright 1990, Gaussian, Inc.),
 the Gaussian 88(TM) system (copyright 1988, Gaussian, Inc.),
 the Gaussian 86(TM) system (copyright 1986, Carnegie Mellon
 University), and the Gaussian 82(TM) system (copyright 1983,
 Carnegie Mellon University). Gaussian is a federally registered
 trademark of Gaussian, Inc.
  
 This software contains proprietary and confidential information,
 including trade secrets, belonging to Gaussian, Inc.
  
 This software is provided under written license and may be
 used, copied, transmitted, or stored only in accord with that
 written license.
  
 The following legend is applicable only to US Government
 contracts under FAR:
  
                    RESTRICTED RIGHTS LEGEND
  
 Use, reproduction and disclosure by the US Government is
 subject to restrictions as set forth in subparagraphs (a)
 and (c) of the Commercial Computer Software - Restricted
 Rights clause in FAR 52.227-19.
  
 Gaussian, Inc.
 340 Quinnipiac St., Bldg. 40, Wallingford CT 06492
  
  
 ---------------------------------------------------------------
 Warning -- This program may not be used in any manner that
 competes with the business of Gaussian, Inc. or will provide
 assistance to any competitor of Gaussian, Inc.  The licensee
 of this program is prohibited from giving any competitor of
 Gaussian, Inc. access to this program.  By using this program,
 the user acknowledges that Gaussian, Inc. is engaged in the
 business of creating and licensing software in the field of
 computational chemistry and represents and warrants to the
 licensee that it is not a competitor of Gaussian, Inc. and that
 it will not use this program in any manner prohibited above.
 ---------------------------------------------------------------
  

 Cite this work as:
 Gaussian 16, Revision C.01,
 M. J. Frisch, G. W. Trucks, H. B. Schlegel, G. E. Scuseria, 
 M. A. Robb, J. R. Cheeseman, G. Scalmani, V. Barone, 
 G. A. Petersson, H. Nakatsuji, X. Li, M. Caricato, A. V. Marenich, 
 J. Bloino, B. G. Janesko, R. Gomperts, B. Mennucci, H. P. Hratchian, 
 J. V. Ortiz, A. F. Izmaylov, J. L. Sonnenberg, D. Williams-Young, 
 F. Ding, F. Lipparini, F. Egidi, J. Goings, B. Peng, A. Petrone, 
 T. Henderson, D. Ranasinghe, V. G. Zakrzewski, J. Gao, N. Rega, 
 G. Zheng, W. Liang, M. Hada, M. Ehara, K. Toyota, R. Fukuda, 
 J. Hasegawa, M. Ishida, T. Nakajima, Y. Honda, O. Kitao, H. Nakai, 
 T. Vreven, K. Throssell, J. A. Montgomery, Jr., J. E. Peralta, 
 F. Ogliaro, M. J. Bearpark, J. J. Heyd, E. N. Brothers, K. N. Kudin, 
 V. N. Staroverov, T. A. Keith, R. Kobayashi, J. Normand, 
 K. Raghavachari, A. P. Rendell, J. C. Burant, S. S. Iyengar, 
 J. Tomasi, M. Cossi, J. M. Millam, M. Klene, C. Adamo, R. Cammi, 
 J. W. Ochterski, R. L. Martin, K. Morokuma, O. Farkas, 
 J. B. Foresman, and D. J. Fox, Gaussian, Inc., Wallingford CT, 2019.
 
 ******************************************
 Gaussian 16:  ES64L-G16RevC.01  3-Jul-2019
                20-May-2024 
 ******************************************
 %nprocshared=48
 Will use up to   48 processors via shared memory.
 %chk=HZIrMe.chk
 %mem=16GB
 ----------------------------------------------------------
 # wb97xd def2TZVPP SCRF=(solvent=dichloromethane) opt freq
 ----------------------------------------------------------
 1/18=20,19=15,26=3,38=1/1,3;
 2/9=110,12=2,17=6,18=5,40=1/2;
 3/5=44,7=202,11=2,25=1,30=1,70=2201,71=1,72=9,74=-58/1,2,3;
 4//1;
 5/5=2,38=5,53=9/2;
 6/7=2,8=2,9=2,10=2,28=1/1;
 7//1,2,3,16;
 1/18=20,19=15,26=3/3(2);
 2/9=110/2;
 99//99;
 2/9=110/2;
 3/5=44,7=202,11=2,25=1,30=1,70=2205,71=1,72=9,74=-58/1,2,3;
 4/5=5,16=3,69=1/1;
 5/5=2,38=5,53=9/2;
 7//1,2,3,16;
 1/18=20,19=15,26=3/3(-5);
 2/9=110/2;
 6/7=2,8=2,9=2,10=2,19=2,28=1/1;
 99/9=1/99;
 ------
 HZIrMe
 ------
 Symbolic Z-matrix:
 Charge =  0 Multiplicity = 1
 C                     1.67777   1.16934  -0.24472 
 C                     1.66431  -1.1947   -0.24121 
 C                     3.05277   1.19378  -0.03597 
 C                     3.03511  -1.24336  -0.03214 
 C                     3.73958  -0.02907   0.09117 
 H                     3.59441   2.14592   0.01704 
 H                     3.57521  -2.19245   0.02624 
 O                     5.08479  -0.10182   0.31134 
 N                     0.99855  -0.00722  -0.29701 
 C                     0.75191   2.32399  -0.55429 
 H                     0.61496   2.35805  -1.65264 
 H                     1.14698   3.30559  -0.21684 
 C                     0.72182  -2.3366   -0.54986 
 H                     0.58805  -2.37008  -1.64847 
 H                     1.10347  -3.3222   -0.2101 
 N                    -0.62202   2.08828   0.02184 
 N                    -0.65021  -2.08153   0.02253 
 C                    -1.60116   2.9253   -0.7068 
 H                    -2.5905    2.77414  -0.24967 
 H                    -1.32031   4.00063  -0.64812 
 H                    -1.63361   2.59482  -1.75591 
 C                    -0.61199   2.49627   1.44943 
 H                    -0.42526   3.591     1.52996 
 H                    -1.58424   2.24206   1.89602 
 H                     0.1806    1.93885   1.97262 
 C                    -1.63885  -2.90518  -0.70875 
 H                    -1.37231  -3.98401  -0.64965 
 H                    -2.6272   -2.74106  -0.25398 
 H                    -1.66428  -2.5742   -1.75788 
 C                    -0.64907  -2.4907    1.45005 
 H                    -1.61876  -2.22356   1.89462 
 H                    -0.47745  -3.58773   1.52993 
 H                     0.15026  -1.94514   1.97542 
 Ir                   -0.9414    0.00493  -0.08099 
 H                     5.4348    0.79857   0.37001 
 C                    -2.98482   0.01836   0.40109 
 H                    -3.33918   0.90306   0.98415 
 H                    -3.60283   0.02353  -0.52964 
 H                    -3.35191  -0.86188   0.98281 
 

 GradGradGradGradGradGradGradGradGradGradGradGradGradGradGradGradGradGrad
 Berny optimization.
 Initialization pass.
                           ----------------------------
                           !    Initial Parameters    !
                           ! (Angstroms and Degrees)  !
 --------------------------                            --------------------------
 ! Name  Definition              Value          Derivative Info.                !
 --------------------------------------------------------------------------------
 ! R1    R(1,3)                  1.391          estimate D2E/DX2                !
 ! R2    R(1,9)                  1.3595         estimate D2E/DX2                !
 ! R3    R(1,10)                 1.512          estimate D2E/DX2                !
 ! R4    R(2,4)                  1.3875         estimate D2E/DX2                !
 ! R5    R(2,9)                  1.3625         estimate D2E/DX2                !
 ! R6    R(2,13)                 1.5124         estimate D2E/DX2                !
 ! R7    R(3,5)                  1.4083         estimate D2E/DX2                !
 ! R8    R(3,6)                  1.0967         estimate D2E/DX2                !
 ! R9    R(4,5)                  1.4092         estimate D2E/DX2                !
 ! R10   R(4,7)                  1.0936         estimate D2E/DX2                !
 ! R11   R(5,8)                  1.365          estimate D2E/DX2                !
 ! R12   R(8,35)                 0.9678         estimate D2E/DX2                !
 ! R13   R(9,34)                 1.952          estimate D2E/DX2                !
 ! R14   R(10,11)                1.1074         estimate D2E/DX2                !
 ! R15   R(10,12)                1.1106         estimate D2E/DX2                !
 ! R16   R(10,16)                1.5084         estimate D2E/DX2                !
 ! R17   R(13,14)                1.1072         estimate D2E/DX2                !
 ! R18   R(13,15)                1.1102         estimate D2E/DX2                !
 ! R19   R(13,17)                1.5084         estimate D2E/DX2                !
 ! R20   R(16,18)                1.4799         estimate D2E/DX2                !
 ! R21   R(16,22)                1.4848         estimate D2E/DX2                !
 ! R22   R(16,34)                2.1102         estimate D2E/DX2                !
 ! R23   R(17,26)                1.4801         estimate D2E/DX2                !
 ! R24   R(17,30)                1.485          estimate D2E/DX2                !
 ! R25   R(17,34)                2.1092         estimate D2E/DX2                !
 ! R26   R(18,19)                1.1003         estimate D2E/DX2                !
 ! R27   R(18,20)                1.1129         estimate D2E/DX2                !
 ! R28   R(18,21)                1.1004         estimate D2E/DX2                !
 ! R29   R(22,23)                1.1135         estimate D2E/DX2                !
 ! R30   R(22,24)                1.0997         estimate D2E/DX2                !
 ! R31   R(22,25)                1.1012         estimate D2E/DX2                !
 ! R32   R(26,27)                1.1128         estimate D2E/DX2                !
 ! R33   R(26,28)                1.1003         estimate D2E/DX2                !
 ! R34   R(26,29)                1.1004         estimate D2E/DX2                !
 ! R35   R(30,31)                1.0997         estimate D2E/DX2                !
 ! R36   R(30,32)                1.1132         estimate D2E/DX2                !
 ! R37   R(30,33)                1.1012         estimate D2E/DX2                !
 ! R38   R(34,36)                2.0996         estimate D2E/DX2                !
 ! R39   R(36,37)                1.1172         estimate D2E/DX2                !
 ! R40   R(36,38)                1.1172         estimate D2E/DX2                !
 ! R41   R(36,39)                1.1171         estimate D2E/DX2                !
 ! A1    A(3,1,9)              120.9864         estimate D2E/DX2                !
 ! A2    A(3,1,10)             128.5065         estimate D2E/DX2                !
 ! A3    A(9,1,10)             110.3081         estimate D2E/DX2                !
 ! A4    A(4,2,9)              121.2972         estimate D2E/DX2                !
 ! A5    A(4,2,13)             128.3107         estimate D2E/DX2                !
 ! A6    A(9,2,13)             110.1917         estimate D2E/DX2                !
 ! A7    A(1,3,5)              118.7108         estimate D2E/DX2                !
 ! A8    A(1,3,6)              120.7117         estimate D2E/DX2                !
 ! A9    A(5,3,6)              120.5737         estimate D2E/DX2                !
 ! A10   A(2,4,5)              118.4791         estimate D2E/DX2                !
 ! A11   A(2,4,7)              121.7641         estimate D2E/DX2                !
 ! A12   A(5,4,7)              119.7527         estimate D2E/DX2                !
 ! A13   A(3,5,4)              119.7694         estimate D2E/DX2                !
 ! A14   A(3,5,8)              122.7822         estimate D2E/DX2                !
 ! A15   A(4,5,8)              117.4398         estimate D2E/DX2                !
 ! A16   A(5,8,35)             108.4569         estimate D2E/DX2                !
 ! A17   A(1,9,2)              120.5667         estimate D2E/DX2                !
 ! A18   A(1,9,34)             119.1352         estimate D2E/DX2                !
 ! A19   A(2,9,34)             119.1112         estimate D2E/DX2                !
 ! A20   A(1,10,11)            107.5947         estimate D2E/DX2                !
 ! A21   A(1,10,12)            113.2597         estimate D2E/DX2                !
 ! A22   A(1,10,16)            111.1135         estimate D2E/DX2                !
 ! A23   A(11,10,12)           108.5522         estimate D2E/DX2                !
 ! A24   A(11,10,16)           105.7238         estimate D2E/DX2                !
 ! A25   A(12,10,16)           110.2475         estimate D2E/DX2                !
 ! A26   A(2,13,14)            107.4937         estimate D2E/DX2                !
 ! A27   A(2,13,15)            113.1787         estimate D2E/DX2                !
 ! A28   A(2,13,17)            111.2057         estimate D2E/DX2                !
 ! A29   A(14,13,15)           108.5629         estimate D2E/DX2                !
 ! A30   A(14,13,17)           105.7679         estimate D2E/DX2                !
 ! A31   A(15,13,17)           110.2852         estimate D2E/DX2                !
 ! A32   A(10,16,18)           109.0385         estimate D2E/DX2                !
 ! A33   A(10,16,22)           108.5512         estimate D2E/DX2                !
 ! A34   A(10,16,34)           105.8744         estimate D2E/DX2                !
 ! A35   A(18,16,22)           108.8105         estimate D2E/DX2                !
 ! A36   A(18,16,34)           115.7378         estimate D2E/DX2                !
 ! A37   A(22,16,34)           108.6122         estimate D2E/DX2                !
 ! A38   A(13,17,26)           109.026          estimate D2E/DX2                !
 ! A39   A(13,17,30)           108.5116         estimate D2E/DX2                !
 ! A40   A(13,17,34)           105.9162         estimate D2E/DX2                !
 ! A41   A(26,17,30)           108.7924         estimate D2E/DX2                !
 ! A42   A(26,17,34)           115.7232         estimate D2E/DX2                !
 ! A43   A(30,17,34)           108.6537         estimate D2E/DX2                !
 ! A44   A(16,18,19)           108.2187         estimate D2E/DX2                !
 ! A45   A(16,18,20)           110.7043         estimate D2E/DX2                !
 ! A46   A(16,18,21)           108.6051         estimate D2E/DX2                !
 ! A47   A(19,18,20)           109.7392         estimate D2E/DX2                !
 ! A48   A(19,18,21)           109.1671         estimate D2E/DX2                !
 ! A49   A(20,18,21)           110.3578         estimate D2E/DX2                !
 ! A50   A(16,22,23)           109.9275         estimate D2E/DX2                !
 ! A51   A(16,22,24)           108.7215         estimate D2E/DX2                !
 ! A52   A(16,22,25)           108.8189         estimate D2E/DX2                !
 ! A53   A(23,22,24)           110.2533         estimate D2E/DX2                !
 ! A54   A(23,22,25)           110.0362         estimate D2E/DX2                !
 ! A55   A(24,22,25)           109.0492         estimate D2E/DX2                !
 ! A56   A(17,26,27)           110.687          estimate D2E/DX2                !
 ! A57   A(17,26,28)           108.228          estimate D2E/DX2                !
 ! A58   A(17,26,29)           108.6098         estimate D2E/DX2                !
 ! A59   A(27,26,28)           109.7432         estimate D2E/DX2                !
 ! A60   A(27,26,29)           110.3503         estimate D2E/DX2                !
 ! A61   A(28,26,29)           109.1745         estimate D2E/DX2                !
 ! A62   A(17,30,31)           108.7241         estimate D2E/DX2                !
 ! A63   A(17,30,32)           109.9145         estimate D2E/DX2                !
 ! A64   A(17,30,33)           108.8251         estimate D2E/DX2                !
 ! A65   A(31,30,32)           110.2622         estimate D2E/DX2                !
 ! A66   A(31,30,33)           109.0778         estimate D2E/DX2                !
 ! A67   A(32,30,33)           110.0038         estimate D2E/DX2                !
 ! A68   A(9,34,16)             82.0169         estimate D2E/DX2                !
 ! A69   A(9,34,17)             82.0719         estimate D2E/DX2                !
 ! A70   A(16,34,17)           162.4277         estimate D2E/DX2                !
 ! A71   A(16,34,36)            97.458          estimate D2E/DX2                !
 ! A72   A(17,34,36)            97.4362         estimate D2E/DX2                !
 ! A73   A(34,36,37)           115.6954         estimate D2E/DX2                !
 ! A74   A(34,36,38)           110.3111         estimate D2E/DX2                !
 ! A75   A(34,36,39)           115.7433         estimate D2E/DX2                !
 ! A76   A(37,36,38)           104.8117         estimate D2E/DX2                !
 ! A77   A(37,36,39)           104.3573         estimate D2E/DX2                !
 ! A78   A(38,36,39)           104.8137         estimate D2E/DX2                !
 ! A79   L(9,34,36,16,-1)      179.475          estimate D2E/DX2                !
 ! A80   L(9,34,36,16,-2)      186.9636         estimate D2E/DX2                !
 ! D1    D(9,1,3,5)              1.4222         estimate D2E/DX2                !
 ! D2    D(9,1,3,6)           -179.2847         estimate D2E/DX2                !
 ! D3    D(10,1,3,5)          -172.9306         estimate D2E/DX2                !
 ! D4    D(10,1,3,6)             6.3625         estimate D2E/DX2                !
 ! D5    D(3,1,9,2)             -4.7141         estimate D2E/DX2                !
 ! D6    D(3,1,9,34)           162.7277         estimate D2E/DX2                !
 ! D7    D(10,1,9,2)           170.5762         estimate D2E/DX2                !
 ! D8    D(10,1,9,34)          -21.9821         estimate D2E/DX2                !
 ! D9    D(3,1,10,11)           96.3391         estimate D2E/DX2                !
 ! D10   D(3,1,10,12)          -23.6357         estimate D2E/DX2                !
 ! D11   D(3,1,10,16)         -148.3702         estimate D2E/DX2                !
 ! D12   D(9,1,10,11)          -78.5001         estimate D2E/DX2                !
 ! D13   D(9,1,10,12)          161.5252         estimate D2E/DX2                !
 ! D14   D(9,1,10,16)           36.7906         estimate D2E/DX2                !
 ! D15   D(9,2,4,5)             -1.5003         estimate D2E/DX2                !
 ! D16   D(9,2,4,7)            179.2361         estimate D2E/DX2                !
 ! D17   D(13,2,4,5)           172.8301         estimate D2E/DX2                !
 ! D18   D(13,2,4,7)            -6.4336         estimate D2E/DX2                !
 ! D19   D(4,2,9,1)              4.7663         estimate D2E/DX2                !
 ! D20   D(4,2,9,34)          -162.6784         estimate D2E/DX2                !
 ! D21   D(13,2,9,1)          -170.4959         estimate D2E/DX2                !
 ! D22   D(13,2,9,34)           22.0594         estimate D2E/DX2                !
 ! D23   D(4,2,13,14)          -96.2488         estimate D2E/DX2                !
 ! D24   D(4,2,13,15)           23.6215         estimate D2E/DX2                !
 ! D25   D(4,2,13,17)          148.4169         estimate D2E/DX2                !
 ! D26   D(9,2,13,14)           78.5908         estimate D2E/DX2                !
 ! D27   D(9,2,13,15)         -161.5389         estimate D2E/DX2                !
 ! D28   D(9,2,13,17)          -36.7435         estimate D2E/DX2                !
 ! D29   D(1,3,5,4)              1.7879         estimate D2E/DX2                !
 ! D30   D(1,3,5,8)           -179.3016         estimate D2E/DX2                !
 ! D31   D(6,3,5,4)           -177.5062         estimate D2E/DX2                !
 ! D32   D(6,3,5,8)              1.4043         estimate D2E/DX2                !
 ! D33   D(2,4,5,3)             -1.7484         estimate D2E/DX2                !
 ! D34   D(2,4,5,8)            179.2837         estimate D2E/DX2                !
 ! D35   D(7,4,5,3)            177.5305         estimate D2E/DX2                !
 ! D36   D(7,4,5,8)             -1.4374         estimate D2E/DX2                !
 ! D37   D(3,5,8,35)             0.7887         estimate D2E/DX2                !
 ! D38   D(4,5,8,35)           179.7231         estimate D2E/DX2                !
 ! D39   D(1,9,34,16)            2.3721         estimate D2E/DX2                !
 ! D40   D(1,9,34,17)         -170.1459         estimate D2E/DX2                !
 ! D41   D(2,9,34,16)          169.9984         estimate D2E/DX2                !
 ! D42   D(2,9,34,17)           -2.5196         estimate D2E/DX2                !
 ! D43   D(1,10,16,18)        -158.4697         estimate D2E/DX2                !
 ! D44   D(1,10,16,22)          83.132          estimate D2E/DX2                !
 ! D45   D(1,10,16,34)         -33.3191         estimate D2E/DX2                !
 ! D46   D(11,10,16,18)        -42.0244         estimate D2E/DX2                !
 ! D47   D(11,10,16,22)       -160.4227         estimate D2E/DX2                !
 ! D48   D(11,10,16,34)         83.1262         estimate D2E/DX2                !
 ! D49   D(12,10,16,18)         75.115          estimate D2E/DX2                !
 ! D50   D(12,10,16,22)        -43.2833         estimate D2E/DX2                !
 ! D51   D(12,10,16,34)       -159.7344         estimate D2E/DX2                !
 ! D52   D(2,13,17,26)         158.3744         estimate D2E/DX2                !
 ! D53   D(2,13,17,30)         -83.2788         estimate D2E/DX2                !
 ! D54   D(2,13,17,34)          33.2228         estimate D2E/DX2                !
 ! D55   D(14,13,17,26)         41.9769         estimate D2E/DX2                !
 ! D56   D(14,13,17,30)        160.3236         estimate D2E/DX2                !
 ! D57   D(14,13,17,34)        -83.1747         estimate D2E/DX2                !
 ! D58   D(15,13,17,26)        -75.219          estimate D2E/DX2                !
 ! D59   D(15,13,17,30)         43.1277         estimate D2E/DX2                !
 ! D60   D(15,13,17,34)        159.6294         estimate D2E/DX2                !
 ! D61   D(10,16,18,19)       -177.7279         estimate D2E/DX2                !
 ! D62   D(10,16,18,20)        -57.4289         estimate D2E/DX2                !
 ! D63   D(10,16,18,21)         63.8793         estimate D2E/DX2                !
 ! D64   D(22,16,18,19)        -59.4924         estimate D2E/DX2                !
 ! D65   D(22,16,18,20)         60.8066         estimate D2E/DX2                !
 ! D66   D(22,16,18,21)       -177.8852         estimate D2E/DX2                !
 ! D67   D(34,16,18,19)         63.0903         estimate D2E/DX2                !
 ! D68   D(34,16,18,20)       -176.6107         estimate D2E/DX2                !
 ! D69   D(34,16,18,21)        -55.3025         estimate D2E/DX2                !
 ! D70   D(10,16,22,23)         64.2502         estimate D2E/DX2                !
 ! D71   D(10,16,22,24)       -174.9757         estimate D2E/DX2                !
 ! D72   D(10,16,22,25)        -56.3183         estimate D2E/DX2                !
 ! D73   D(18,16,22,23)        -54.2922         estimate D2E/DX2                !
 ! D74   D(18,16,22,24)         66.4819         estimate D2E/DX2                !
 ! D75   D(18,16,22,25)       -174.8607         estimate D2E/DX2                !
 ! D76   D(34,16,22,23)        178.9246         estimate D2E/DX2                !
 ! D77   D(34,16,22,24)        -60.3013         estimate D2E/DX2                !
 ! D78   D(34,16,22,25)         58.3561         estimate D2E/DX2                !
 ! D79   D(10,16,34,9)          17.4772         estimate D2E/DX2                !
 ! D80   D(10,16,34,17)         42.7662         estimate D2E/DX2                !
 ! D81   D(10,16,34,36)       -169.4864         estimate D2E/DX2                !
 ! D82   D(18,16,34,9)         138.3798         estimate D2E/DX2                !
 ! D83   D(18,16,34,17)        163.6688         estimate D2E/DX2                !
 ! D84   D(18,16,34,36)        -48.5838         estimate D2E/DX2                !
 ! D85   D(22,16,34,9)         -98.9327         estimate D2E/DX2                !
 ! D86   D(22,16,34,17)        -73.6437         estimate D2E/DX2                !
 ! D87   D(22,16,34,36)         74.1037         estimate D2E/DX2                !
 ! D88   D(13,17,26,27)         57.376          estimate D2E/DX2                !
 ! D89   D(13,17,26,28)        177.6754         estimate D2E/DX2                !
 ! D90   D(13,17,26,29)        -63.9151         estimate D2E/DX2                !
 ! D91   D(30,17,26,27)        -60.7944         estimate D2E/DX2                !
 ! D92   D(30,17,26,28)         59.505          estimate D2E/DX2                !
 ! D93   D(30,17,26,29)        177.9145         estimate D2E/DX2                !
 ! D94   D(34,17,26,27)        176.5929         estimate D2E/DX2                !
 ! D95   D(34,17,26,28)        -63.1077         estimate D2E/DX2                !
 ! D96   D(34,17,26,29)         55.3018         estimate D2E/DX2                !
 ! D97   D(13,17,30,31)        175.0037         estimate D2E/DX2                !
 ! D98   D(13,17,30,32)        -64.2177         estimate D2E/DX2                !
 ! D99   D(13,17,30,33)         56.3069         estimate D2E/DX2                !
 ! D100  D(26,17,30,31)        -66.5017         estimate D2E/DX2                !
 ! D101  D(26,17,30,32)         54.2769         estimate D2E/DX2                !
 ! D102  D(26,17,30,33)        174.8015         estimate D2E/DX2                !
 ! D103  D(34,17,30,31)         60.2791         estimate D2E/DX2                !
 ! D104  D(34,17,30,32)       -178.9423         estimate D2E/DX2                !
 ! D105  D(34,17,30,33)        -58.4177         estimate D2E/DX2                !
 ! D106  D(13,17,34,9)         -17.3301         estimate D2E/DX2                !
 ! D107  D(13,17,34,16)        -42.6155         estimate D2E/DX2                !
 ! D108  D(13,17,34,36)        169.6354         estimate D2E/DX2                !
 ! D109  D(26,17,34,9)        -138.2383         estimate D2E/DX2                !
 ! D110  D(26,17,34,16)       -163.5237         estimate D2E/DX2                !
 ! D111  D(26,17,34,36)         48.7271         estimate D2E/DX2                !
 ! D112  D(30,17,34,9)          99.0755         estimate D2E/DX2                !
 ! D113  D(30,17,34,16)         73.7902         estimate D2E/DX2                !
 ! D114  D(30,17,34,36)        -73.959          estimate D2E/DX2                !
 ! D115  D(16,34,36,37)        -24.1176         estimate D2E/DX2                !
 ! D116  D(16,34,36,38)         94.6072         estimate D2E/DX2                !
 ! D117  D(16,34,36,39)       -146.6326         estimate D2E/DX2                !
 ! D118  D(17,34,36,37)        146.5314         estimate D2E/DX2                !
 ! D119  D(17,34,36,38)        -94.7438         estimate D2E/DX2                !
 ! D120  D(17,34,36,39)         24.0164         estimate D2E/DX2                !
 --------------------------------------------------------------------------------
 Trust Radius=3.00D-01 FncErr=1.00D-07 GrdErr=1.00D-06 EigMax=2.50D+02 EigMin=1.00D-04
 Number of steps in this run=    234 maximum allowed number of steps=    234.
 GradGradGradGradGradGradGradGradGradGradGradGradGradGradGradGradGradGrad

                          Input orientation:                          
 ---------------------------------------------------------------------
 Center     Atomic      Atomic             Coordinates (Angstroms)
 Number     Number       Type             X           Y           Z
 ---------------------------------------------------------------------
      1          6           0        1.677770    1.169340   -0.244720
      2          6           0        1.664310   -1.194700   -0.241210
      3          6           0        3.052770    1.193780   -0.035970
      4          6           0        3.035110   -1.243360   -0.032140
      5          6           0        3.739580   -0.029070    0.091170
      6          1           0        3.594410    2.145920    0.017040
      7          1           0        3.575210   -2.192450    0.026240
      8          8           0        5.084790   -0.101820    0.311340
      9          7           0        0.998550   -0.007220   -0.297010
     10          6           0        0.751910    2.323990   -0.554290
     11          1           0        0.614960    2.358050   -1.652640
     12          1           0        1.146980    3.305590   -0.216840
     13          6           0        0.721820   -2.336600   -0.549860
     14          1           0        0.588050   -2.370080   -1.648470
     15          1           0        1.103470   -3.322200   -0.210100
     16          7           0       -0.622020    2.088280    0.021840
     17          7           0       -0.650210   -2.081530    0.022530
     18          6           0       -1.601160    2.925300   -0.706800
     19          1           0       -2.590500    2.774140   -0.249670
     20          1           0       -1.320310    4.000630   -0.648120
     21          1           0       -1.633610    2.594820   -1.755910
     22          6           0       -0.611990    2.496270    1.449430
     23          1           0       -0.425260    3.591000    1.529960
     24          1           0       -1.584240    2.242060    1.896020
     25          1           0        0.180600    1.938850    1.972620
     26          6           0       -1.638850   -2.905180   -0.708750
     27          1           0       -1.372310   -3.984010   -0.649650
     28          1           0       -2.627200   -2.741060   -0.253980
     29          1           0       -1.664280   -2.574200   -1.757880
     30          6           0       -0.649070   -2.490700    1.450050
     31          1           0       -1.618760   -2.223560    1.894620
     32          1           0       -0.477450   -3.587730    1.529930
     33          1           0        0.150260   -1.945140    1.975420
     34         77           0       -0.941400    0.004930   -0.080990
     35          1           0        5.434800    0.798570    0.370010
     36          6           0       -2.984820    0.018360    0.401090
     37          1           0       -3.339180    0.903060    0.984150
     38          1           0       -3.602830    0.023530   -0.529640
     39          1           0       -3.351910   -0.861880    0.982810
 ---------------------------------------------------------------------
                    Distance matrix (angstroms):
                    1          2          3          4          5
     1  C    0.000000
     2  C    2.364081   0.000000
     3  C    1.390970   2.770340   0.000000
     4  C    2.776452   1.387505   2.437207   0.000000
     5  C    2.408333   2.403313   1.408274   1.409249   0.000000
     6  H    2.166965   3.866746   1.096702   3.435470   2.181089
     7  H    3.869797   2.172228   3.426860   1.093567   2.170587
     8  O    3.678700   3.633095   2.434812   2.371135   1.365048
     9  N    1.359547   1.362519   2.393818   2.397035   2.768466
    10  C    1.512041   3.648516   2.615337   4.267509   3.857419
    11  H    2.127166   3.964253   3.148343   4.631771   4.301449
    12  H    2.201381   4.529993   2.850349   4.928701   4.235139
    13  C    3.646720   1.512444   4.261572   2.610463   3.852595
    14  H    3.960492   2.126084   4.623429   3.141675   4.294044
    15  H    4.528239   2.200401   4.921805   2.843322   4.229012
    16  N    2.490891   4.009296   3.782533   4.947458   4.848869
    17  N    4.007377   2.492595   4.944000   3.779828   4.846397
    18  C    3.748106   5.277733   5.010712   6.271195   6.155369
    19  H    4.559993   5.818520   5.864273   6.916293   6.931383
    20  H    4.143358   6.005413   5.232300   6.844600   6.510570
    21  H    3.909082   5.247004   5.184907   6.284899   6.258408
    22  C    3.142274   4.654360   4.163335   5.429661   5.211370
    23  H    3.665605   5.514188   4.505052   6.146979   5.702711
    24  H    4.046505   5.189619   5.131602   6.099537   6.062885
    25  H    2.783929   4.113584   3.583144   4.721626   4.480949
    26  C    5.274183   3.749027   6.266211   5.006531   6.151373
    27  H    6.001997   4.143445   6.838673   5.226646   6.505520
    28  H    5.815847   4.561628   6.913216   5.861235   6.928918
    29  H    5.241473   3.909325   6.277994   5.180114   6.252869
    30  C    4.656428   3.145108   5.430218   4.162442   5.212142
    31  H    5.191884   4.049552   6.101523   5.131442   6.064654
    32  H    5.515802   3.667515   6.146327   4.502689   5.702406
    33  H    4.118531   2.787285   4.724730   3.584013   4.483853
    34  Ir   2.871012   2.873066   4.167587   4.168123   4.684268
    35  H    3.825002   4.308516   2.448485   3.176431   1.906964
    36  C    4.845779   4.847522   6.166452   6.165970   6.731705
    37  H    5.172119   5.562105   6.479366   6.802319   7.195493
    38  H    5.410988   5.413875   6.775707   6.776043   7.368796
    39  H    5.561507   5.174114   6.803203   6.478401   7.195681
                    6          7          8          9         10
     6  H    0.000000
     7  H    4.338422   0.000000
     8  O    2.712965   2.594388   0.000000
     9  N    3.387201   3.393950   4.132360   0.000000
    10  C    2.904812   5.357823   5.040607   2.358297   0.000000
    11  H    3.421981   5.682321   5.466951   2.753067   1.107379
    12  H    2.718354   6.015300   5.234096   3.317102   1.110627
    13  C    5.354076   2.914533   4.977089   2.359348   4.660689
    14  H    5.675067   3.429188   5.404307   2.752828   4.822694
    15  H    6.013045   2.727946   5.147199   3.317778   5.667585
    16  N    4.216827   5.995115   6.119479   2.668152   1.508366
    17  N    5.990673   4.226877   6.073952   2.668947   4.659106
    18  C    5.303332   7.315977   7.409588   3.940316   2.433469
    19  H    6.222452   7.922066   8.215592   4.540868   3.386316
    20  H    5.294984   7.923075   7.666548   4.643625   2.667212
    21  H    5.538687   7.295603   7.528764   3.978350   2.684762
    22  C    4.457386   6.445325   6.363853   3.451283   2.429979
    23  H    4.531548   7.191191   6.744079   4.279280   2.708347
    24  H    5.509830   7.055557   7.244373   4.066872   3.386492
    25  H    3.939704   5.690291   5.565543   3.099589   2.619161
    26  C    7.309404   5.313626   7.355729   3.939998   5.751853
    27  H    7.917627   5.305136   7.595330   4.643295   6.656746
    28  H    7.916088   6.232928   8.170677   4.541123   6.096171
    29  H    7.285856   5.548069   7.479591   3.976706   5.592751
    30  C    6.446618   4.467743   6.315106   3.454641   5.400126
    31  H    7.056543   5.519886   7.207367   4.070100   5.683084
    32  H    7.193304   4.542240   6.676454   4.282095   6.387780
    33  H    5.695103   3.948512   5.524181   3.104685   4.998688
    34  Ir   5.016674   5.023917   6.039891   1.951978   2.910215
    35  H    2.308024   3.538708   0.967807   4.557908   5.011057
    36  C    6.925336   6.932690   8.071004   4.044161   4.493532
    37  H    7.110181   7.636004   8.510331   4.613663   4.595961
    38  H    7.523541   7.532850   8.729129   4.607359   4.925087
    39  H    7.630920   7.118317   8.497439   4.614638   5.417913
                   11         12         13         14         15
    11  H    0.000000
    12  H    1.800666   0.000000
    13  C    4.823617   5.667978   0.000000
    14  H    4.728208   5.880068   1.107230   0.000000
    15  H    5.880885   6.627936   1.110181   1.800305   0.000000
    16  N    2.099233   2.160595   4.659647   4.912350   5.683696
    17  N    4.910878   5.684035   1.508362   2.099712   2.160734
    18  C    2.475394   2.817260   5.753995   5.806930   6.825906
    19  H    3.523695   3.775218   6.097642   6.206676   7.128278
    20  H    2.729908   2.599347   6.658861   6.725213   7.725957
    21  H    2.263359   3.256626   5.596562   5.440363   6.700169
    22  C    3.338765   2.554492   5.397485   5.892236   6.288993
    23  H    3.568076   2.367426   6.385756   6.831083   7.290896
    24  H    4.176472   3.613148   5.680173   6.209194   6.528439
    25  H    3.675174   2.756012   4.993526   5.643154   5.770148
    26  C    5.802773   6.824697   2.433371   2.475579   2.818311
    27  H    6.721381   7.724792   2.666327   2.728630   2.600131
    28  H    6.202320   7.127958   3.386306   3.524211   3.775917
    29  H    5.434437   6.697008   2.685003   2.264205   3.258154
    30  C    5.893627   6.292956   2.429553   3.338539   2.553211
    31  H    6.209968   6.532923   3.386233   4.176717   3.612117
    32  H    6.831867   7.294370   2.707231   3.566537   2.365908
    33  H    5.647673   5.776644   2.618580   3.674889   2.753434
    34  Ir   3.229476   3.908215   2.910138   3.230617   3.907423
    35  H    5.454718   5.001494   5.734774   6.132340   6.006471
    36  C    4.759241   5.315966   4.493253   4.761380   5.314792
    37  H    4.970400   5.228782   5.416669   5.750415   6.246294
    38  H    4.949835   5.781908   4.926786   4.954253   5.783189
    39  H    5.748878   6.248758   4.595558   4.972081   5.227487
                   16         17         18         19         20
    16  N    0.000000
    17  N    4.169905   0.000000
    18  C    1.479944   5.148259   0.000000
    19  H    2.102150   5.236062   1.100278   0.000000
    20  H    2.143254   6.155605   1.112949   1.810089   0.000000
    21  H    2.107200   5.098840   1.100410   1.793475   1.817046
    22  C    1.484779   4.795181   2.410778   2.622719   2.676664
    23  H    2.138062   5.873716   2.613234   2.919351   2.390177
    24  H    2.112360   4.803728   2.691055   2.428920   3.104010
    25  H    2.114727   4.544948   3.365567   3.649010   3.656767
    26  C    5.148043   1.480060   5.830602   5.776770   6.913419
    27  H    6.155204   2.143055   6.913335   6.878704   7.984809
    28  H    5.236349   2.102362   5.776283   5.515324   6.878495
    29  H    5.098277   2.107349   5.599398   5.633589   6.676696
    30  C    4.796621   1.485003   5.906906   5.863168   6.854943
    31  H    4.805493   2.112577   5.768748   5.524424   6.730166
    32  H    5.874719   2.137929   6.977481   6.935802   7.939617
    33  H    4.547677   2.114978   5.829491   5.893589   6.663161
    34  Ir   2.110195   2.109223   3.058673   3.227462   4.053496
    35  H    6.202390   6.741147   7.428811   8.288083   7.544620
    36  C    3.164052   3.162791   3.404737   2.858898   4.441836
    37  H    3.116688   4.130745   3.157448   2.363001   4.041668
    38  H    3.667772   3.667988   3.529637   2.944325   4.587075
    39  H    4.132700   3.115905   4.501404   3.914000   5.516460
                   21         22         23         24         25
    21  H    0.000000
    22  C    3.365654   0.000000
    23  H    3.639976   1.113457   0.000000
    24  H    3.669260   1.099698   1.815730   0.000000
    25  H    4.198046   1.101201   1.814556   1.792335   0.000000
    26  C    5.598801   5.906593   6.977462   5.769046   5.827930
    27  H    6.676308   6.854068   7.939042   6.729732   6.660938
    28  H    5.631574   5.864495   6.937288   5.526459   5.894323
    29  H    5.169111   6.091290   7.096108   6.045970   6.139042
    30  C    6.091799   4.987108   6.086341   4.844837   4.536777
    31  H    6.045112   4.846501   5.946976   4.465754   4.535354
    32  H    7.096293   6.086020   7.178920   5.945205   5.583197
    33  H    6.141356   4.536939   5.583771   4.532928   3.884110
    34  Ir   3.161019   2.942358   3.965029   3.053942   3.035827
    35  H    7.596609   6.372676   6.594198   7.326615   5.610278
    36  C    3.621680   3.587391   4.537560   3.023455   4.022173
    37  H    3.644029   3.192549   4.001732   2.388356   3.799840
    38  H    3.463105   4.356178   5.202475   3.857513   4.923830
    39  H    4.733066   4.359136   5.356565   3.686876   4.615457
                   26         27         28         29         30
    26  C    0.000000
    27  H    1.112839   0.000000
    28  H    1.100267   1.810035   0.000000
    29  H    1.100395   1.816861   1.793536   0.000000
    30  C    2.410783   2.676152   2.622860   3.365775   0.000000
    31  H    2.691198   3.103745   2.429247   3.669574   1.099684
    32  H    2.612740   2.389222   2.919008   3.639437   1.113243
    33  H    3.365614   3.655982   3.649383   4.198309   1.101171
    34  Ir   3.057656   4.052246   3.226811   3.160131   2.942399
    35  H    8.057171   8.381499   8.826901   8.142508   6.999947
    36  C    3.404477   4.441082   2.858567   3.623030   3.584889
    37  H    4.501080   5.515554   3.914012   4.734486   4.355613
    38  H    3.530813   4.588028   2.944622   3.466230   4.354908
    39  H    3.157693   4.041217   2.363508   3.645753   3.190096
                   31         32         33         34         35
    31  H    0.000000
    32  H    1.815640   0.000000
    33  H    1.792618   1.813996   0.000000
    34  Ir   3.054181   3.964533   3.036991   0.000000
    35  H    7.823708   7.452499   6.166981   6.441210   0.000000
    36  C    3.020423   4.534873   4.020270   2.099559   8.455749
    37  H    3.683009   5.352996   4.612055   2.773177   8.796068
    38  H    3.855254   5.201060   4.923075   2.699045   9.115307
    39  H    2.385242   3.999015   3.797884   2.773732   8.963196
                   36         37         38         39
    36  C    0.000000
    37  H    1.117239   0.000000
    38  H    1.117238   1.770493   0.000000
    39  H    1.117128   1.764986   1.770428   0.000000
 Stoichiometry    C12H22IrN3O
 Framework group  C1[X(C12H22IrN3O)]
 Deg. of freedom   111
 Full point group                 C1      NOp   1
 Largest Abelian subgroup         C1      NOp   1
 Largest concise Abelian subgroup C1      NOp   1
                         Standard orientation:                         
 ---------------------------------------------------------------------
 Center     Atomic      Atomic             Coordinates (Angstroms)
 Number     Number       Type             X           Y           Z
 ---------------------------------------------------------------------
      1          6           0        1.677769    1.169340   -0.244720
      2          6           0        1.664311   -1.194700   -0.241210
      3          6           0        3.052769    1.193781   -0.035970
      4          6           0        3.035111   -1.243359   -0.032140
      5          6           0        3.739580   -0.029068    0.091170
      6          1           0        3.594408    2.145922    0.017040
      7          1           0        3.575212   -2.192448    0.026240
      8          8           0        5.084790   -0.101817    0.311340
      9          7           0        0.998550   -0.007220   -0.297010
     10          6           0        0.751908    2.323989   -0.554290
     11          1           0        0.614958    2.358049   -1.652640
     12          1           0        1.146977    3.305590   -0.216840
     13          6           0        0.721822   -2.336601   -0.549860
     14          1           0        0.588052   -2.370081   -1.648470
     15          1           0        1.103473   -3.322200   -0.210100
     16          7           0       -0.622022    2.088278    0.021840
     17          7           0       -0.650208   -2.081532    0.022530
     18          6           0       -1.601162    2.925297   -0.706800
     19          1           0       -2.590502    2.774136   -0.249670
     20          1           0       -1.320313    4.000628   -0.648120
     21          1           0       -1.633612    2.594817   -1.755910
     22          6           0       -0.611992    2.496268    1.449430
     23          1           0       -0.425263    3.590998    1.529960
     24          1           0       -1.584242    2.242057    1.896020
     25          1           0        0.180599    1.938849    1.972620
     26          6           0       -1.638847   -2.905183   -0.708750
     27          1           0       -1.372306   -3.984012   -0.649650
     28          1           0       -2.627197   -2.741064   -0.253980
     29          1           0       -1.664277   -2.574203   -1.757880
     30          6           0       -0.649067   -2.490702    1.450050
     31          1           0       -1.618758   -2.223563    1.894620
     32          1           0       -0.477447   -3.587732    1.529930
     33          1           0        0.150262   -1.945141    1.975420
     34         77           0       -0.941400    0.004928   -0.080990
     35          1           0        5.434800    0.798574    0.370010
     36          6           0       -2.984820    0.018356    0.401090
     37          1           0       -3.339180    0.903056    0.984150
     38          1           0       -3.602830    0.023526   -0.529640
     39          1           0       -3.351909   -0.861884    0.982810
 ---------------------------------------------------------------------
 Rotational constants (GHZ):           0.5397173           0.3384881           0.2291846
 Standard basis: def2TZVPP (5D, 7F)
 There are   977 symmetry adapted cartesian basis functions of A   symmetry.
 There are   860 symmetry adapted basis functions of A   symmetry.
   860 basis functions,  1290 primitive gaussians,   977 cartesian basis functions
    70 alpha electrons       70 beta electrons
       nuclear repulsion energy      1528.6955761979 Hartrees.
 NAtoms=   39 NActive=   39 NUniq=   39 SFac= 1.00D+00 NAtFMM=   60 NAOKFM=F Big=F
 Integral buffers will be    131072 words long.
 Raffenetti 2 integral format.
 Two-electron integral symmetry is turned on.
 Nuclear repulsion after empirical dispersion term =     1528.6528667927 Hartrees.
 ------------------------------------------------------------------------------
 Polarizable Continuum Model (PCM)
 =================================
 Model                : PCM.
 Atomic radii         : UFF (Universal Force Field).
 Polarization charges : Total charges.
 Charge compensation  : None.
 Solution method      : On-the-fly selection.
 Cavity type          : Scaled VdW (van der Waals Surface) (Alpha=1.100).
 Cavity algorithm     : GePol (No added spheres)
                        Default sphere list used, NSphG=   39.
                        Lebedev-Laikov grids with approx.  5.0 points / Ang**2.
                        Smoothing algorithm: York/Karplus (Gamma=1.0000).
                        Polarization charges: spherical gaussians, with
                                              point-specific exponents (IZeta= 3).
                        Self-potential: point-specific (ISelfS= 7).
                        Self-field    : sphere-specific E.n sum rule (ISelfD= 2).
 1st derivatives      : Analytical E(r).r(x)/FMM algorithm (CHGder, D1EAlg=3).
                        Cavity 1st derivative terms included.
 Solvent              : Dichloromethane, Eps=   8.930000 Eps(inf)=   2.028346
 ------------------------------------------------------------------------------
 One-electron integrals computed using PRISM.
   1 Symmetry operations used in ECPInt.
 ECPInt:  NShTT=   52650 NPrTT=  135893 LenC2=   47416 LenP2D=   93376.
 LDataN:  DoStor=T MaxTD1= 9 Len=  602
 Number of processors reduced to  40 by ecpmxn.
 NBasis=   860 RedAO= T EigKep=  1.83D-05  NBF=   860
 NBsUse=   860 1.00D-06 EigRej= -1.00D+00 NBFU=   860
 Defaulting to unpruned grid for atomic number  77.
 ExpMin= 5.00D-02 ExpMax= 2.70D+04 ExpMxC= 9.22D+02 IAcc=3 IRadAn=         5 AccDes= 0.00D+00
 Harris functional with IExCor= 4639 and IRadAn=       5 diagonalized for initial guess.
 HarFok:  IExCor= 4639 AccDes= 0.00D+00 IRadAn=         5 IDoV= 1 UseB2=F ITyADJ=14
 ICtDFT=  3500011 ScaDFX=  1.000000  1.000000  1.000000  1.000000
 Defaulting to unpruned grid for atomic number  77.
 FoFCou: FMM=F IPFlag=           0 FMFlag=      100000 FMFlg1=           0
         NFxFlg=           0 DoJE=T BraDBF=F KetDBF=T FulRan=T
         wScrn=  0.000000 ICntrl=       500 IOpCl=  0 I1Cent=   200000004 NGrid=           0
         NMat0=    1 NMatS0=      1 NMatT0=    0 NMatD0=    1 NMtDS0=    0 NMtDT0=    0
 Petite list used in FoFCou.
 Requested convergence on RMS density matrix=1.00D-08 within 128 cycles.
 Requested convergence on MAX density matrix=1.00D-06.
 Requested convergence on             energy=1.00D-06.
 No special actions if energy rises.
 Defaulting to unpruned grid for atomic number  77.
 Defaulting to unpruned grid for atomic number  77.
 Defaulting to unpruned grid for atomic number  77.
 Defaulting to unpruned grid for atomic number  77.
 Defaulting to unpruned grid for atomic number  77.
 Defaulting to unpruned grid for atomic number  77.
 Defaulting to unpruned grid for atomic number  77.
 Defaulting to unpruned grid for atomic number  77.
 Defaulting to unpruned grid for atomic number  77.
 Defaulting to unpruned grid for atomic number  77.
 Defaulting to unpruned grid for atomic number  77.
 Defaulting to unpruned grid for atomic number  77.
 Defaulting to unpruned grid for atomic number  77.
 Defaulting to unpruned grid for atomic number  77.
 Defaulting to unpruned grid for atomic number  77.
 Defaulting to unpruned grid for atomic number  77.
 Defaulting to unpruned grid for atomic number  77.
 Defaulting to unpruned grid for atomic number  77.
 Defaulting to unpruned grid for atomic number  77.
 Defaulting to unpruned grid for atomic number  77.
 Defaulting to unpruned grid for atomic number  77.
 Defaulting to unpruned grid for atomic number  77.
 Defaulting to unpruned grid for atomic number  77.
 Defaulting to unpruned grid for atomic number  77.
 Defaulting to unpruned grid for atomic number  77.
 Defaulting to unpruned grid for atomic number  77.
 Defaulting to unpruned grid for atomic number  77.
 Defaulting to unpruned grid for atomic number  77.
 Defaulting to unpruned grid for atomic number  77.
 Defaulting to unpruned grid for atomic number  77.
 Defaulting to unpruned grid for atomic number  77.
 Defaulting to unpruned grid for atomic number  77.
 Defaulting to unpruned grid for atomic number  77.
 Defaulting to unpruned grid for atomic number  77.
 Defaulting to unpruned grid for atomic number  77.
 Defaulting to unpruned grid for atomic number  77.
 Defaulting to unpruned grid for atomic number  77.
 Defaulting to unpruned grid for atomic number  77.
 Defaulting to unpruned grid for atomic number  77.
 Defaulting to unpruned grid for atomic number  77.
 Defaulting to unpruned grid for atomic number  77.
 Defaulting to unpruned grid for atomic number  77.
 Defaulting to unpruned grid for atomic number  77.
 Defaulting to unpruned grid for atomic number  77.
 Defaulting to unpruned grid for atomic number  77.
 Defaulting to unpruned grid for atomic number  77.
 Defaulting to unpruned grid for atomic number  77.
 Defaulting to unpruned grid for atomic number  77.
 Inv3:  Mode=1 IEnd=    19799283.
 Iteration    1 A*A^-1 deviation from unit magnitude is 3.55D-15 for    597.
 Iteration    1 A*A^-1 deviation from orthogonality  is 2.21D-15 for   2115   1321.
 Iteration    1 A^-1*A deviation from unit magnitude is 2.89D-15 for    243.
 Iteration    1 A^-1*A deviation from orthogonality  is 2.44D-15 for   2222   1089.
 Error on total polarization charges =  0.01755
 SCF Done:  E(RwB97XD) =  -814.461238790     A.U. after   19 cycles
            NFock= 19  Conv=0.22D-08     -V/T= 2.0987

 **********************************************************************

            Population analysis using the SCF Density.

 **********************************************************************

 Orbital symmetries:
       Occupied  (A) (A) (A) (A) (A) (A) (A) (A) (A) (A) (A) (A)
                 (A) (A) (A) (A) (A) (A) (A) (A) (A) (A) (A) (A)
                 (A) (A) (A) (A) (A) (A) (A) (A) (A) (A) (A) (A)
                 (A) (A) (A) (A) (A) (A) (A) (A) (A) (A) (A) (A)
                 (A) (A) (A) (A) (A) (A) (A) (A) (A) (A) (A) (A)
                 (A) (A) (A) (A) (A) (A) (A) (A) (A) (A)
       Virtual   (A) (A) (A) (A) (A) (A) (A) (A) (A) (A) (A) (A)
                 (A) (A) (A) (A) (A) (A) (A) (A) (A) (A) (A) (A)
                 (A) (A) (A) (A) (A) (A) (A) (A) (A) (A) (A) (A)
                 (A) (A) (A) (A) (A) (A) (A) (A) (A) (A) (A) (A)
                 (A) (A) (A) (A) (A) (A) (A) (A) (A) (A) (A) (A)
                 (A) (A) (A) (A) (A) (A) (A) (A) (A) (A) (A) (A)
                 (A) (A) (A) (A) (A) (A) (A) (A) (A) (A) (A) (A)
                 (A) (A) (A) (A) (A) (A) (A) (A) (A) (A) (A) (A)
                 (A) (A) (A) (A) (A) (A) (A) (A) (A) (A) (A) (A)
                 (A) (A) (A) (A) (A) (A) (A) (A) (A) (A) (A) (A)
                 (A) (A) (A) (A) (A) (A) (A) (A) (A) (A) (A) (A)
                 (A) (A) (A) (A) (A) (A) (A) (A) (A) (A) (A) (A)
                 (A) (A) (A) (A) (A) (A) (A) (A) (A) (A) (A) (A)
                 (A) (A) (A) (A) (A) (A) (A) (A) (A) (A) (A) (A)
                 (A) (A) (A) (A) (A) (A) (A) (A) (A) (A) (A) (A)
                 (A) (A) (A) (A) (A) (A) (A) (A) (A) (A) (A) (A)
                 (A) (A) (A) (A) (A) (A) (A) (A) (A) (A) (A) (A)
                 (A) (A) (A) (A) (A) (A) (A) (A) (A) (A) (A) (A)
                 (A) (A) (A) (A) (A) (A) (A) (A) (A) (A) (A) (A)
                 (A) (A) (A) (A) (A) (A) (A) (A) (A) (A) (A) (A)
                 (A) (A) (A) (A) (A) (A) (A) (A) (A) (A) (A) (A)
                 (A) (A) (A) (A) (A) (A) (A) (A) (A) (A) (A) (A)
                 (A) (A) (A) (A) (A) (A) (A) (A) (A) (A) (A) (A)
                 (A) (A) (A) (A) (A) (A) (A) (A) (A) (A) (A) (A)
                 (A) (A) (A) (A) (A) (A) (A) (A) (A) (A) (A) (A)
                 (A) (A) (A) (A) (A) (A) (A) (A) (A) (A) (A) (A)
                 (A) (A) (A) (A) (A) (A) (A) (A) (A) (A) (A) (A)
                 (A) (A) (A) (A) (A) (A) (A) (A) (A) (A) (A) (A)
                 (A) (A) (A) (A) (A) (A) (A) (A) (A) (A) (A) (A)
                 (A) (A) (A) (A) (A) (A) (A) (A) (A) (A) (A) (A)
                 (A) (A) (A) (A) (A) (A) (A) (A) (A) (A) (A) (A)
                 (A) (A) (A) (A) (A) (A) (A) (A) (A) (A) (A) (A)
                 (A) (A) (A) (A) (A) (A) (A) (A) (A) (A) (A) (A)
                 (A) (A) (A) (A) (A) (A) (A) (A) (A) (A) (A) (A)
                 (A) (A) (A) (A) (A) (A) (A) (A) (A) (A) (A) (A)
                 (A) (A) (A) (A) (A) (A) (A) (A) (A) (A) (A) (A)
                 (A) (A) (A) (A) (A) (A) (A) (A) (A) (A) (A) (A)
                 (A) (A) (A) (A) (A) (A) (A) (A) (A) (A) (A) (A)
                 (A) (A) (A) (A) (A) (A) (A) (A) (A) (A) (A) (A)
                 (A) (A) (A) (A) (A) (A) (A) (A) (A) (A) (A) (A)
                 (A) (A) (A) (A) (A) (A) (A) (A) (A) (A) (A) (A)
                 (A) (A) (A) (A) (A) (A) (A) (A) (A) (A) (A) (A)
                 (A) (A) (A) (A) (A) (A) (A) (A) (A) (A) (A) (A)
                 (A) (A) (A) (A) (A) (A) (A) (A) (A) (A) (A) (A)
                 (A) (A) (A) (A) (A) (A) (A) (A) (A) (A) (A) (A)
                 (A) (A) (A) (A) (A) (A) (A) (A) (A) (A) (A) (A)
                 (A) (A) (A) (A) (A) (A) (A) (A) (A) (A) (A) (A)
                 (A) (A) (A) (A) (A) (A) (A) (A) (A) (A) (A) (A)
                 (A) (A) (A) (A) (A) (A) (A) (A) (A) (A) (A) (A)
                 (A) (A) (A) (A) (A) (A) (A) (A) (A) (A) (A) (A)
                 (A) (A) (A) (A) (A) (A) (A) (A) (A) (A) (A) (A)
                 (A) (A) (A) (A) (A) (A) (A) (A) (A) (A) (A) (A)
                 (A) (A) (A) (A) (A) (A) (A) (A) (A) (A) (A) (A)
                 (A) (A) (A) (A) (A) (A) (A) (A) (A) (A) (A) (A)
                 (A) (A) (A) (A) (A) (A) (A) (A) (A) (A) (A) (A)
                 (A) (A) (A) (A) (A) (A) (A) (A) (A) (A) (A) (A)
                 (A) (A) (A) (A) (A) (A) (A) (A) (A) (A) (A) (A)
                 (A) (A) (A) (A) (A) (A) (A) (A) (A) (A) (A) (A)
                 (A) (A) (A) (A) (A) (A) (A) (A) (A) (A) (A) (A)
                 (A) (A) (A) (A) (A) (A) (A) (A) (A) (A) (A) (A)
                 (A) (A) (A) (A) (A) (A) (A) (A) (A) (A) (A) (A)
                 (A) (A) (A) (A) (A) (A) (A) (A) (A) (A) (A) (A)
                 (A) (A) (A) (A) (A) (A) (A) (A) (A) (A) (A) (A)
                 (A) (A) (A) (A) (A) (A) (A) (A) (A) (A) (A) (A)
                 (A) (A) (A) (A) (A) (A) (A) (A) (A) (A) (A) (A)
                 (A) (A) (A) (A) (A) (A) (A) (A) (A) (A)
 The electronic state is 1-A.
 Alpha  occ. eigenvalues --  -19.29368 -14.48974 -14.48945 -14.46978 -10.36989
 Alpha  occ. eigenvalues --  -10.34013 -10.33940 -10.33330 -10.33240 -10.30975
 Alpha  occ. eigenvalues --  -10.30935 -10.30935 -10.30903 -10.30657 -10.30300
 Alpha  occ. eigenvalues --  -10.21265  -3.69709  -2.03621  -2.03524  -2.01079
 Alpha  occ. eigenvalues --   -1.17621  -1.07633  -1.04756  -1.03769  -0.90520
 Alpha  occ. eigenvalues --   -0.90230  -0.82854  -0.81069  -0.80920  -0.80879
 Alpha  occ. eigenvalues --   -0.74151  -0.72840  -0.71467  -0.70103  -0.69622
 Alpha  occ. eigenvalues --   -0.64067  -0.61720  -0.59108  -0.58834  -0.57509
 Alpha  occ. eigenvalues --   -0.57419  -0.56439  -0.55973  -0.55301  -0.52674
 Alpha  occ. eigenvalues --   -0.51413  -0.51039  -0.49884  -0.49721  -0.48757
 Alpha  occ. eigenvalues --   -0.48156  -0.47389  -0.46655  -0.46397  -0.45623
 Alpha  occ. eigenvalues --   -0.45381  -0.44705  -0.43989  -0.43655  -0.41874
 Alpha  occ. eigenvalues --   -0.41703  -0.41537  -0.36373  -0.35502  -0.34394
 Alpha  occ. eigenvalues --   -0.30254  -0.24000  -0.23404  -0.22491  -0.21066
 Alpha virt. eigenvalues --    0.03106   0.03765   0.09574   0.10267   0.11533
 Alpha virt. eigenvalues --    0.11930   0.12630   0.13174   0.14660   0.15640
 Alpha virt. eigenvalues --    0.15663   0.15749   0.16452   0.16507   0.17279
 Alpha virt. eigenvalues --    0.17482   0.17999   0.18341   0.18701   0.19126
 Alpha virt. eigenvalues --    0.19318   0.20353   0.20856   0.21630   0.22070
 Alpha virt. eigenvalues --    0.22485   0.22703   0.22752   0.23392   0.23561
 Alpha virt. eigenvalues --    0.24188   0.24786   0.25128   0.26168   0.26789
 Alpha virt. eigenvalues --    0.27620   0.28648   0.29495   0.30120   0.30415
 Alpha virt. eigenvalues --    0.31013   0.31283   0.31646   0.32292   0.32632
 Alpha virt. eigenvalues --    0.32775   0.33904   0.34430   0.35112   0.35746
 Alpha virt. eigenvalues --    0.36547   0.37230   0.37780   0.38481   0.39109
 Alpha virt. eigenvalues --    0.39290   0.39571   0.40151   0.40365   0.40648
 Alpha virt. eigenvalues --    0.41437   0.41654   0.42765   0.42952   0.43523
 Alpha virt. eigenvalues --    0.44034   0.44133   0.44635   0.45365   0.46417
 Alpha virt. eigenvalues --    0.46917   0.46989   0.47430   0.48036   0.48438
 Alpha virt. eigenvalues --    0.48934   0.49511   0.49983   0.50251   0.50612
 Alpha virt. eigenvalues --    0.50871   0.51131   0.51675   0.51785   0.51909
 Alpha virt. eigenvalues --    0.52194   0.52491   0.53201   0.53355   0.53892
 Alpha virt. eigenvalues --    0.54734   0.55312   0.55577   0.55587   0.55904
 Alpha virt. eigenvalues --    0.56953   0.57662   0.58208   0.58524   0.59125
 Alpha virt. eigenvalues --    0.59718   0.60203   0.60256   0.61607   0.62471
 Alpha virt. eigenvalues --    0.62588   0.63344   0.64047   0.64417   0.65260
 Alpha virt. eigenvalues --    0.66213   0.67093   0.67707   0.68212   0.68626
 Alpha virt. eigenvalues --    0.69192   0.69676   0.70571   0.71380   0.72019
 Alpha virt. eigenvalues --    0.72650   0.73886   0.73979   0.74895   0.75620
 Alpha virt. eigenvalues --    0.75754   0.76109   0.76742   0.77714   0.78203
 Alpha virt. eigenvalues --    0.81097   0.81996   0.82266   0.82400   0.84281
 Alpha virt. eigenvalues --    0.84903   0.85438   0.85736   0.86367   0.87141
 Alpha virt. eigenvalues --    0.88484   0.88656   0.89038   0.89228   0.90075
 Alpha virt. eigenvalues --    0.90887   0.91859   0.92286   0.92771   0.94114
 Alpha virt. eigenvalues --    0.94681   0.95219   0.96630   0.97274   0.98191
 Alpha virt. eigenvalues --    0.98338   0.98991   0.99108   1.00992   1.01400
 Alpha virt. eigenvalues --    1.02106   1.02539   1.03621   1.03717   1.04743
 Alpha virt. eigenvalues --    1.04967   1.05534   1.05804   1.06203   1.06441
 Alpha virt. eigenvalues --    1.07154   1.08226   1.08472   1.09060   1.09309
 Alpha virt. eigenvalues --    1.10529   1.11116   1.11390   1.11945   1.12205
 Alpha virt. eigenvalues --    1.13732   1.13862   1.14151   1.15626   1.16138
 Alpha virt. eigenvalues --    1.16313   1.17082   1.17963   1.18713   1.18919
 Alpha virt. eigenvalues --    1.20337   1.20735   1.21623   1.22575   1.23713
 Alpha virt. eigenvalues --    1.24063   1.24316   1.24355   1.24676   1.25472
 Alpha virt. eigenvalues --    1.26177   1.27000   1.28046   1.28539   1.28593
 Alpha virt. eigenvalues --    1.29165   1.30228   1.30299   1.32284   1.33240
 Alpha virt. eigenvalues --    1.34051   1.34386   1.34839   1.35388   1.36158
 Alpha virt. eigenvalues --    1.36815   1.37475   1.37730   1.38717   1.39370
 Alpha virt. eigenvalues --    1.39807   1.40498   1.41173   1.41450   1.41858
 Alpha virt. eigenvalues --    1.42213   1.42986   1.43262   1.44147   1.44841
 Alpha virt. eigenvalues --    1.45669   1.46807   1.47333   1.48073   1.48390
 Alpha virt. eigenvalues --    1.48899   1.49555   1.49866   1.50196   1.51115
 Alpha virt. eigenvalues --    1.51496   1.52820   1.53438   1.53793   1.54506
 Alpha virt. eigenvalues --    1.55034   1.55296   1.56235   1.56305   1.57578
 Alpha virt. eigenvalues --    1.58732   1.59150   1.59501   1.60190   1.60470
 Alpha virt. eigenvalues --    1.61956   1.62013   1.62820   1.62999   1.63939
 Alpha virt. eigenvalues --    1.64375   1.65311   1.66145   1.67803   1.68718
 Alpha virt. eigenvalues --    1.69367   1.69873   1.70187   1.71397   1.71890
 Alpha virt. eigenvalues --    1.72569   1.73618   1.74788   1.75438   1.75601
 Alpha virt. eigenvalues --    1.78237   1.78394   1.78919   1.79768   1.81040
 Alpha virt. eigenvalues --    1.81762   1.82430   1.83799   1.83964   1.84375
 Alpha virt. eigenvalues --    1.85164   1.85514   1.85764   1.87478   1.88576
 Alpha virt. eigenvalues --    1.89600   1.90889   1.92322   1.92783   1.93419
 Alpha virt. eigenvalues --    1.94319   1.95011   1.96168   1.96537   1.98731
 Alpha virt. eigenvalues --    1.99380   1.99963   2.00215   2.01501   2.03619
 Alpha virt. eigenvalues --    2.05125   2.05997   2.09177   2.11206   2.11573
 Alpha virt. eigenvalues --    2.15281   2.15772   2.16664   2.17426   2.18238
 Alpha virt. eigenvalues --    2.18929   2.20504   2.22609   2.22967   2.23440
 Alpha virt. eigenvalues --    2.23936   2.25250   2.27474   2.27825   2.29099
 Alpha virt. eigenvalues --    2.29972   2.31553   2.33352   2.33613   2.35538
 Alpha virt. eigenvalues --    2.36283   2.36787   2.38900   2.40471   2.41048
 Alpha virt. eigenvalues --    2.43200   2.45991   2.47815   2.49261   2.52483
 Alpha virt. eigenvalues --    2.52812   2.55565   2.59831   2.60843   2.60923
 Alpha virt. eigenvalues --    2.61994   2.62223   2.64387   2.65995   2.66185
 Alpha virt. eigenvalues --    2.67161   2.67557   2.68246   2.69440   2.70666
 Alpha virt. eigenvalues --    2.71700   2.72552   2.73196   2.74118   2.74574
 Alpha virt. eigenvalues --    2.75693   2.76319   2.77337   2.77797   2.79068
 Alpha virt. eigenvalues --    2.79738   2.80031   2.80394   2.82804   2.83384
 Alpha virt. eigenvalues --    2.84269   2.85428   2.86137   2.86815   2.88268
 Alpha virt. eigenvalues --    2.88785   2.89496   2.90002   2.90239   2.90428
 Alpha virt. eigenvalues --    2.91650   2.91772   2.92546   2.92683   2.93780
 Alpha virt. eigenvalues --    2.94238   2.95132   2.95412   2.96254   2.96620
 Alpha virt. eigenvalues --    2.97760   2.98085   2.98782   2.99344   2.99921
 Alpha virt. eigenvalues --    3.01070   3.01415   3.02133   3.02686   3.03042
 Alpha virt. eigenvalues --    3.03349   3.04379   3.05113   3.05276   3.06309
 Alpha virt. eigenvalues --    3.06510   3.07486   3.07960   3.08676   3.09085
 Alpha virt. eigenvalues --    3.09345   3.09732   3.10579   3.11658   3.12251
 Alpha virt. eigenvalues --    3.12368   3.13515   3.13621   3.14635   3.14959
 Alpha virt. eigenvalues --    3.15621   3.16429   3.17083   3.17656   3.18470
 Alpha virt. eigenvalues --    3.19026   3.19485   3.20927   3.21475   3.23112
 Alpha virt. eigenvalues --    3.24312   3.24930   3.25465   3.26274   3.26733
 Alpha virt. eigenvalues --    3.27364   3.27669   3.28075   3.28298   3.29296
 Alpha virt. eigenvalues --    3.29459   3.30074   3.30757   3.31363   3.32124
 Alpha virt. eigenvalues --    3.32347   3.33644   3.34797   3.35835   3.36473
 Alpha virt. eigenvalues --    3.36671   3.36857   3.37726   3.38622   3.39282
 Alpha virt. eigenvalues --    3.40216   3.40488   3.41158   3.41595   3.42012
 Alpha virt. eigenvalues --    3.42372   3.43332   3.44506   3.44849   3.45200
 Alpha virt. eigenvalues --    3.46039   3.46718   3.46981   3.47662   3.48097
 Alpha virt. eigenvalues --    3.48211   3.48296   3.48863   3.50116   3.50621
 Alpha virt. eigenvalues --    3.51536   3.52983   3.53218   3.53800   3.54911
 Alpha virt. eigenvalues --    3.55072   3.55979   3.56820   3.57893   3.58573
 Alpha virt. eigenvalues --    3.58949   3.59342   3.59653   3.60884   3.61218
 Alpha virt. eigenvalues --    3.62215   3.62566   3.63125   3.63849   3.64254
 Alpha virt. eigenvalues --    3.65066   3.65895   3.66836   3.67157   3.67700
 Alpha virt. eigenvalues --    3.67874   3.68442   3.68908   3.69310   3.69600
 Alpha virt. eigenvalues --    3.70467   3.70755   3.71265   3.71841   3.72976
 Alpha virt. eigenvalues --    3.73161   3.74261   3.75760   3.75784   3.77046
 Alpha virt. eigenvalues --    3.77853   3.78840   3.79267   3.79779   3.80716
 Alpha virt. eigenvalues --    3.81006   3.82069   3.82547   3.83276   3.83345
 Alpha virt. eigenvalues --    3.84120   3.85422   3.85857   3.86012   3.86361
 Alpha virt. eigenvalues --    3.87005   3.87780   3.89346   3.89816   3.90952
 Alpha virt. eigenvalues --    3.92526   3.93277   3.93470   3.93600   3.95139
 Alpha virt. eigenvalues --    3.95727   3.97523   3.97634   3.98272   3.99084
 Alpha virt. eigenvalues --    4.00080   4.00456   4.00920   4.03134   4.04134
 Alpha virt. eigenvalues --    4.05147   4.05841   4.06123   4.06528   4.06740
 Alpha virt. eigenvalues --    4.07917   4.08927   4.10166   4.10315   4.11997
 Alpha virt. eigenvalues --    4.12804   4.13702   4.14239   4.15686   4.15756
 Alpha virt. eigenvalues --    4.16318   4.17213   4.18232   4.18399   4.18873
 Alpha virt. eigenvalues --    4.19369   4.20167   4.20944   4.21222   4.22112
 Alpha virt. eigenvalues --    4.22188   4.22638   4.23131   4.23841   4.24148
 Alpha virt. eigenvalues --    4.25031   4.25692   4.26690   4.27061   4.27432
 Alpha virt. eigenvalues --    4.27988   4.28971   4.29804   4.30352   4.30677
 Alpha virt. eigenvalues --    4.31363   4.32632   4.32990   4.33578   4.34071
 Alpha virt. eigenvalues --    4.34391   4.35030   4.35419   4.36511   4.36948
 Alpha virt. eigenvalues --    4.37727   4.38019   4.38503   4.39540   4.39891
 Alpha virt. eigenvalues --    4.40486   4.40922   4.41135   4.43145   4.44928
 Alpha virt. eigenvalues --    4.45336   4.46407   4.46667   4.47389   4.48190
 Alpha virt. eigenvalues --    4.50505   4.51287   4.52071   4.53118   4.53619
 Alpha virt. eigenvalues --    4.55773   4.56606   4.57055   4.60018   4.61253
 Alpha virt. eigenvalues --    4.62404   4.65216   4.66477   4.67612   4.69138
 Alpha virt. eigenvalues --    4.70626   4.71655   4.72608   4.74125   4.74886
 Alpha virt. eigenvalues --    4.75048   4.76132   4.76933   4.78133   4.79337
 Alpha virt. eigenvalues --    4.80127   4.81593   4.81967   4.83931   4.85135
 Alpha virt. eigenvalues --    4.85339   4.88100   4.89423   4.90235   4.91799
 Alpha virt. eigenvalues --    4.92137   4.92749   4.93557   4.94908   4.97789
 Alpha virt. eigenvalues --    4.98695   4.99426   5.01300   5.03010   5.04272
 Alpha virt. eigenvalues --    5.05344   5.05743   5.07162   5.07808   5.09006
 Alpha virt. eigenvalues --    5.09474   5.11320   5.11736   5.13318   5.13802
 Alpha virt. eigenvalues --    5.14495   5.17120   5.17884   5.18910   5.19204
 Alpha virt. eigenvalues --    5.20228   5.20757   5.21480   5.22744   5.23946
 Alpha virt. eigenvalues --    5.24226   5.24970   5.25874   5.26333   5.26523
 Alpha virt. eigenvalues --    5.27157   5.28580   5.29470   5.29880   5.30751
 Alpha virt. eigenvalues --    5.31476   5.31757   5.31944   5.32601   5.35163
 Alpha virt. eigenvalues --    5.37005   5.37781   5.37916   5.38569   5.38802
 Alpha virt. eigenvalues --    5.39607   5.40824   5.41498   5.42925   5.42936
 Alpha virt. eigenvalues --    5.43234   5.44519   5.46772   5.49059   5.49257
 Alpha virt. eigenvalues --    5.49772   5.50216   5.52202   5.52783   5.53645
 Alpha virt. eigenvalues --    5.54411   5.54535   5.56051   5.56155   5.58296
 Alpha virt. eigenvalues --    5.59686   5.61886   5.64143   5.64824   5.65423
 Alpha virt. eigenvalues --    5.66821   5.67094   5.68206   5.68871   5.70645
 Alpha virt. eigenvalues --    5.72761   5.73676   5.75100   5.75578   5.77707
 Alpha virt. eigenvalues --    5.78107   5.78525   5.79085   5.80320   5.80429
 Alpha virt. eigenvalues --    5.80779   5.81016   5.82123   5.83035   5.85799
 Alpha virt. eigenvalues --    5.91742   5.93863   5.94875   6.05074   6.07513
 Alpha virt. eigenvalues --    6.08001   6.10846   6.12226   6.17595   6.19113
 Alpha virt. eigenvalues --    6.22753   6.27731   6.31775   6.33108   6.36539
 Alpha virt. eigenvalues --    6.50781   6.58326   6.68798   6.83576   6.89127
 Alpha virt. eigenvalues --    6.93691   7.16347   7.53744   7.58676  22.90946
 Alpha virt. eigenvalues --   23.10805  23.20597  23.39943  23.41038  23.45862
 Alpha virt. eigenvalues --   23.50962  23.64902  23.71518  23.78099  23.81066
 Alpha virt. eigenvalues --   23.83924  32.91554  32.92163  33.07636  34.16891
 Alpha virt. eigenvalues --   41.04677  42.63419  44.19143  59.78545 363.49627
          Condensed to atoms (all electrons):
               1          2          3          4          5          6
     1  C    5.323294  -0.073326   0.323019  -0.029822  -0.019359  -0.000060
     2  C   -0.073326   5.186325  -0.016005   0.493976  -0.077187   0.000482
     3  C    0.323019  -0.016005   5.237645  -0.034242   0.447354   0.401376
     4  C   -0.029822   0.493976  -0.034242   4.996175   0.507639   0.002332
     5  C   -0.019359  -0.077187   0.447354   0.507639   4.650421  -0.025769
     6  H   -0.000060   0.000482   0.401376   0.002332  -0.025769   0.509194
     7  H   -0.002308  -0.013219   0.009748   0.410586  -0.033940  -0.000156
     8  O    0.010831   0.002566  -0.072653  -0.048482   0.337761  -0.003467
     9  N    0.383750   0.363859  -0.062847  -0.049663  -0.004085   0.002728
    10  C    0.252975  -0.001926  -0.037385   0.002614   0.001239  -0.002817
    11  H   -0.037005   0.000408  -0.001392   0.000302  -0.000366   0.000052
    12  H   -0.056674  -0.000310  -0.003247  -0.000210   0.001339   0.000822
    13  C   -0.003255   0.280424   0.003798  -0.059641   0.005651   0.000042
    14  H    0.000449  -0.037544   0.000247  -0.001463  -0.000389   0.000001
    15  H   -0.000325  -0.057248  -0.000180  -0.001792   0.001117  -0.000003
    16  N   -0.032286   0.003362   0.000732   0.000118   0.000152   0.000120
    17  N    0.003108  -0.034606   0.000234   0.002978  -0.000361  -0.000001
    18  C    0.013905   0.000298  -0.000095   0.000070  -0.000049  -0.000020
    19  H   -0.000636  -0.000022   0.000048   0.000004  -0.000002  -0.000001
    20  H    0.001641  -0.000003  -0.000007  -0.000006   0.000004   0.000015
    21  H   -0.002461   0.000044  -0.000151   0.000002   0.000003  -0.000005
    22  C    0.004816   0.000051   0.004792   0.000135  -0.000600   0.000012
    23  H   -0.004840  -0.000066  -0.000566   0.000009   0.000017   0.000000
    24  H    0.000267   0.000054  -0.000124  -0.000001   0.000012  -0.000004
    25  H    0.013754  -0.000275   0.004499   0.000051  -0.000349   0.000139
    26  C    0.000342   0.014602   0.000040  -0.000528   0.000033   0.000000
    27  H   -0.000003   0.001556  -0.000005  -0.000002   0.000002  -0.000000
    28  H   -0.000023  -0.000653   0.000004   0.000049  -0.000003   0.000000
    29  H    0.000049  -0.002367  -0.000000  -0.000173   0.000007   0.000000
    30  C    0.000075   0.004289   0.000088   0.005192  -0.000608   0.000002
    31  H    0.000056   0.000256  -0.000003  -0.000131   0.000013  -0.000000
    32  H   -0.000066  -0.004701   0.000010  -0.000550   0.000017  -0.000000
    33  H   -0.000275   0.013298   0.000082   0.004454  -0.000347   0.000003
    34  Ir  -0.129018  -0.126501   0.002714   0.001677   0.002563  -0.000441
    35  H    0.008464  -0.002040  -0.015973   0.003322  -0.035250   0.001969
    36  C    0.000618   0.000864  -0.000350  -0.000309   0.000037   0.000003
    37  H    0.000018   0.000018   0.000021   0.000005  -0.000000  -0.000000
    38  H   -0.000062  -0.000084   0.000009   0.000007  -0.000001  -0.000000
    39  H    0.000021   0.000019   0.000004   0.000018   0.000000   0.000000
               7          8          9         10         11         12
     1  C   -0.002308   0.010831   0.383750   0.252975  -0.037005  -0.056674
     2  C   -0.013219   0.002566   0.363859  -0.001926   0.000408  -0.000310
     3  C    0.009748  -0.072653  -0.062847  -0.037385  -0.001392  -0.003247
     4  C    0.410586  -0.048482  -0.049663   0.002614   0.000302  -0.000210
     5  C   -0.033940   0.337761  -0.004085   0.001239  -0.000366   0.001339
     6  H   -0.000156  -0.003467   0.002728  -0.002817   0.000052   0.000822
     7  H    0.499889   0.004692   0.002778   0.000111   0.000001  -0.000004
     8  O    0.004692   7.748733   0.000600  -0.000408  -0.000004   0.000012
     9  N    0.002778   0.000600   6.360054  -0.034961  -0.005977   0.004730
    10  C    0.000111  -0.000408  -0.034961   4.951100   0.436209   0.437054
    11  H    0.000001  -0.000004  -0.005977   0.436209   0.545549  -0.018053
    12  H   -0.000004   0.000012   0.004730   0.437054  -0.018053   0.545912
    13  C   -0.002726  -0.000033  -0.032548  -0.000849   0.000085   0.000059
    14  H    0.000103  -0.000003  -0.005849   0.000102  -0.000009  -0.000001
    15  H    0.000573  -0.000004   0.004616   0.000062  -0.000001  -0.000001
    16  N   -0.000003   0.000003  -0.012324   0.255899  -0.040117  -0.024763
    17  N    0.000144   0.000001  -0.012629  -0.000302   0.000088  -0.000052
    18  C    0.000001  -0.000000  -0.000425  -0.044488  -0.005505  -0.007415
    19  H    0.000000   0.000000   0.000063   0.008898   0.000629  -0.000525
    20  H   -0.000000   0.000000   0.000076  -0.011693  -0.003083   0.005737
    21  H    0.000000  -0.000000  -0.000014  -0.005254   0.003196  -0.000271
    22  C    0.000001   0.000002  -0.004605  -0.029556   0.007271  -0.013778
    23  H   -0.000000  -0.000000   0.000415  -0.010048  -0.000353   0.007503
    24  H   -0.000000  -0.000000  -0.000029   0.007083  -0.000170  -0.000263
    25  H    0.000003  -0.000001  -0.003681  -0.013676   0.000312  -0.003519
    26  C   -0.000031  -0.000000  -0.000392  -0.000157  -0.000013   0.000002
    27  H    0.000015  -0.000000   0.000077  -0.000000  -0.000000  -0.000000
    28  H   -0.000000   0.000000   0.000068   0.000000   0.000001   0.000000
    29  H   -0.000006  -0.000000  -0.000022  -0.000048   0.000000   0.000000
    30  C    0.000006   0.000000  -0.004678   0.000148   0.000011   0.000001
    31  H   -0.000004  -0.000000  -0.000024  -0.000005  -0.000000   0.000001
    32  H    0.000000   0.000000   0.000410  -0.000000   0.000000   0.000000
    33  H    0.000140  -0.000002  -0.003688   0.000105  -0.000004  -0.000002
    34  Ir  -0.000453   0.000116   0.288257  -0.057554  -0.003936   0.015681
    35  H   -0.000591   0.335707   0.000079  -0.000174  -0.000001   0.000011
    36  C    0.000003  -0.000000  -0.020925   0.001844  -0.000088  -0.000022
    37  H    0.000000  -0.000000   0.000603  -0.000854  -0.000016   0.000002
    38  H   -0.000000   0.000000   0.000760   0.000221   0.000069   0.000005
    39  H   -0.000000  -0.000000   0.000606   0.000010  -0.000008  -0.000002
              13         14         15         16         17         18
     1  C   -0.003255   0.000449  -0.000325  -0.032286   0.003108   0.013905
     2  C    0.280424  -0.037544  -0.057248   0.003362  -0.034606   0.000298
     3  C    0.003798   0.000247  -0.000180   0.000732   0.000234  -0.000095
     4  C   -0.059641  -0.001463  -0.001792   0.000118   0.002978   0.000070
     5  C    0.005651  -0.000389   0.001117   0.000152  -0.000361  -0.000049
     6  H    0.000042   0.000001  -0.000003   0.000120  -0.000001  -0.000020
     7  H   -0.002726   0.000103   0.000573  -0.000003   0.000144   0.000001
     8  O   -0.000033  -0.000003  -0.000004   0.000003   0.000001  -0.000000
     9  N   -0.032548  -0.005849   0.004616  -0.012324  -0.012629  -0.000425
    10  C   -0.000849   0.000102   0.000062   0.255899  -0.000302  -0.044488
    11  H    0.000085  -0.000009  -0.000001  -0.040117   0.000088  -0.005505
    12  H    0.000059  -0.000001  -0.000001  -0.024763  -0.000052  -0.007415
    13  C    4.933067   0.437264   0.437447  -0.000374   0.258455  -0.000137
    14  H    0.437264   0.545122  -0.017660   0.000085  -0.040112  -0.000013
    15  H    0.437447  -0.017660   0.544196  -0.000052  -0.025063   0.000002
    16  N   -0.000374   0.000085  -0.000052   6.359441  -0.006159   0.259815
    17  N    0.258455  -0.040112  -0.025063  -0.006159   6.356562   0.000663
    18  C   -0.000137  -0.000013   0.000002   0.259815   0.000663   4.859690
    19  H   -0.000000   0.000001   0.000000  -0.033244   0.000085   0.424611
    20  H   -0.000000  -0.000000  -0.000000  -0.019775  -0.000016   0.404586
    21  H   -0.000046  -0.000000   0.000000  -0.039461   0.000085   0.424617
    22  C    0.000151   0.000010   0.000002   0.258960   0.000425  -0.051143
    23  H   -0.000001   0.000000   0.000000  -0.024225  -0.000040  -0.009655
    24  H   -0.000004  -0.000000   0.000001  -0.033359   0.000204  -0.004184
    25  H    0.000109  -0.000004  -0.000002  -0.033960   0.000284   0.008569
    26  C   -0.045060  -0.005490  -0.007317   0.000667   0.260581  -0.000160
    27  H   -0.011506  -0.003072   0.005677  -0.000016  -0.019870   0.000005
    28  H    0.008907   0.000635  -0.000522   0.000086  -0.033232  -0.000018
    29  H   -0.005334   0.003119  -0.000247   0.000086  -0.039383  -0.000014
    30  C   -0.028978   0.007181  -0.013649   0.000427   0.258938  -0.000014
    31  H    0.007112  -0.000172  -0.000255   0.000205  -0.033341  -0.000011
    32  H   -0.010233  -0.000346   0.007443  -0.000040  -0.024120  -0.000002
    33  H   -0.013304   0.000299  -0.003512   0.000282  -0.033885  -0.000006
    34  Ir  -0.057751  -0.004115   0.015577   0.171792   0.172254  -0.080148
    35  H    0.000008  -0.000000  -0.000000   0.000002  -0.000000  -0.000000
    36  C    0.001764  -0.000077  -0.000026  -0.010226  -0.010253  -0.008738
    37  H    0.000012  -0.000007  -0.000002  -0.001157   0.001037  -0.001846
    38  H    0.000237   0.000064   0.000005   0.000191   0.000183  -0.001731
    39  H   -0.000858  -0.000015   0.000002   0.001039  -0.001141   0.000663
              19         20         21         22         23         24
     1  C   -0.000636   0.001641  -0.002461   0.004816  -0.004840   0.000267
     2  C   -0.000022  -0.000003   0.000044   0.000051  -0.000066   0.000054
     3  C    0.000048  -0.000007  -0.000151   0.004792  -0.000566  -0.000124
     4  C    0.000004  -0.000006   0.000002   0.000135   0.000009  -0.000001
     5  C   -0.000002   0.000004   0.000003  -0.000600   0.000017   0.000012
     6  H   -0.000001   0.000015  -0.000005   0.000012   0.000000  -0.000004
     7  H    0.000000  -0.000000   0.000000   0.000001  -0.000000  -0.000000
     8  O    0.000000   0.000000  -0.000000   0.000002  -0.000000  -0.000000
     9  N    0.000063   0.000076  -0.000014  -0.004605   0.000415  -0.000029
    10  C    0.008898  -0.011693  -0.005254  -0.029556  -0.010048   0.007083
    11  H    0.000629  -0.003083   0.003196   0.007271  -0.000353  -0.000170
[...]
 0016100,0.00003919,-0.00005191,-0.00003609,0.00001492,-0.00001435,0.00
 000327,-0.00005213,-0.00001398,0.00010527,0.00005515,-0.00005155,-0.00
 004408,-0.00002100,-0.00001828,-0.00001469,0.00000588,-0.00000785,-0.0
 0000511,-0.00001751,0.00002997,-0.00000425,-0.00001037,0.00003205,-0.0
 0002805,0.00000949,-0.00002946,-0.00000005,0.00000696,0.00000085,0.000
 00128,-0.00003535,0.00000097,0.00000048,0.00000855,-0.00000348,-0.0000
 0281,0.00001338,0.00004685,-0.00000329,-0.00003662,-0.00000747,-0.0000
 0397,0.00000361,0.00000514,0.00001136,0.00000581,0.00000497,-0.0000313
 3,-0.00000728,-0.00002841,-0.00000023,0.00003024,0.00000141,0.00000101
 ,-0.00000810,-0.00000039,0.00000015,-0.00000775,-0.00000158,0.00000005
 ,-0.00000926,0.00004350,0.00000008,-0.00000385,0.00000619,-0.00000661,
 0.00002843,-0.00000742,0.00000646,0.00000016,0.00000449,0.00105048,-0.
 00003928,-0.00034832,0.18342059,0.46090046,-0.00002480,-0.00011241,-0.
 00065061,-0.00005373,-0.00038311,0.00165882,0.00053803,-0.00016876,-0.
 00037246,-0.00100021,0.00026028,0.00247519,-0.00257665,-0.00465365,-0.
 00337424,-0.00029690,0.00034467,0.00002111,0.00006963,0.00005514,-0.00
 059421,-0.00943112,-0.01172639,-0.00511065,-0.00001945,0.00021963,0.00
 006373,-0.00000674,0.00004394,0.00002190,-0.00000188,-0.00000944,-0.00
 001072,-0.00001130,-0.00000662,0.00000542,0.00003924,0.00003512,-0.000
 23966,-0.00005515,-0.00004941,-0.00000365,0.00001368,0.00002587,0.0000
 1088,0.00002777,-0.00001435,-0.00001190,-0.00004153,0.00001733,-0.0000
 0477,0.00000059,0.00000500,-0.00000998,0.00000461,0.00000162,-0.000000
 43,-0.00000179,-0.00000320,0.00000338,-0.00000382,-0.00000095,-0.00000
 354,0.00001119,0.00000294,0.00003256,0.00000109,-0.00001051,0.00000010
 ,-0.00000098,-0.00000096,-0.00000571,0.00000313,0.00000398,0.00000121,
 0.00000793,-0.00000114,-0.00000331,-0.00000105,0.00000153,0.00000120,0
 .00000099,0.00000236,0.00000397,-0.00000086,-0.00000108,0.00000058,0.0
 0001086,0.00000542,0.00002511,0.00000005,-0.00000162,-0.00000132,-0.00
 000074,0.00000702,-0.00000173,-0.00000201,-0.00000014,0.00000158,0.000
 05101,-0.00001541,-0.00012717,0.01271914,0.01612742,0.00617630,-0.0007
 6552,0.00270458,0.00004005,-0.00083999,-0.00267924,0.00003537,-0.00031
 867,-0.00071050,-0.00041819,-0.00030427,0.00073043,-0.00039859,0.00047
 469,-0.00000347,0.00009751,-0.00022167,-0.00001362,-0.00003703,-0.0002
 0668,0.00000781,-0.00003300,-0.00033398,-0.00000246,-0.00002374,-0.020
 32153,0.00020164,0.00540844,-0.00008949,0.00010342,0.00044387,0.000009
 96,-0.00013947,-0.00003928,0.00024633,-0.00002739,-0.00008382,-0.00009
 842,-0.00011148,0.00043366,0.00001244,0.00013307,-0.00003701,0.0002494
 2,0.00002394,-0.00008341,-0.00124312,-0.00113965,-0.00018589,-0.001207
 03,0.00118369,-0.00020959,0.00011404,-0.00012078,0.00011797,0.00020473
 ,-0.00003708,-0.00017132,0.00012807,0.00032889,-0.00016847,-0.00013543
 ,-0.00009984,-0.00003734,0.00005814,-0.00044037,-0.00054804,-0.0000050
 6,0.00004542,0.00011353,0.00011819,0.00018459,0.00013435,-0.00002366,0
 .00002806,0.00008172,0.00027521,-0.00007718,0.00018232,0.00012171,-0.0
 0032564,-0.00016646,0.00027069,-0.00005545,-0.00016862,-0.00014114,0.0
 0010532,-0.00003654,0.00000204,0.00079351,-0.00073256,0.00022863,-0.00
 028850,0.00022497,-0.00000917,-0.00004222,0.00011776,-0.00002270,-0.00
 002947,0.00008224,-0.08088949,0.00009412,0.00779413,0.00004620,0.00000
 734,0.00000663,0.31403719,0.00280694,-0.00053918,-0.00001537,-0.002811
 61,-0.00046125,0.00000394,0.00012421,0.00068572,0.00004613,-0.00012318
 ,0.00068437,-0.00004636,0.00002537,0.00004685,0.00000654,0.00025294,0.
 00001730,0.00008228,-0.00023607,0.00001397,-0.00008389,-0.00002636,-0.
 00006082,-0.00000807,0.00026102,0.01642786,-0.00001714,0.00021147,-0.0
 0008520,-0.00022860,0.00005013,0.00001040,-0.00002275,-0.00009430,0.00
 003947,0.00005897,-0.00021893,-0.00011146,0.00022480,-0.00004370,0.000
 00577,0.00002824,0.00008924,0.00004136,-0.00006101,-0.00368537,0.00187
 323,0.00030114,0.00376397,0.00185418,-0.00028466,0.00060323,-0.0005620
 5,-0.00029273,-0.00095352,-0.00094279,0.00101462,-0.00049994,0.0003542
 8,-0.00009156,0.00027227,0.00007386,-0.00009411,0.00014990,-0.00040329
 ,-0.00034760,0.00012464,0.00012370,0.00004698,-0.00053771,-0.00025227,
 -0.00001791,0.00004079,-0.00006612,0.00000985,-0.00084111,-0.00073623,
 0.00025669,0.00052082,0.00035954,0.00007986,0.00088936,-0.00076211,-0.
 00100225,-0.00025604,0.00004338,0.00008411,-0.00011561,-0.00035548,0.0
 0045940,0.00051853,-0.00024500,-0.00004679,-0.00012430,0.00013014,-0.0
 0004951,-0.00003990,-0.00006857,-0.00000809,0.00015843,-0.05996584,-0.
 00059134,-0.00002113,0.00001849,0.00000255,0.00128843,0.47054206,-0.00
 047788,-0.00190600,-0.00142948,-0.00046901,0.00186330,-0.00141421,0.00
 047387,0.00078436,-0.00172117,0.00054414,-0.00073048,-0.00162952,0.000
 81573,-0.00015515,0.00047199,0.00006349,-0.00005917,0.00002657,0.00006
 651,0.00005868,0.00005229,-0.00180213,-0.00005605,-0.00020425,0.010411
 22,-0.00004724,0.01822113,-0.00047434,0.00031546,0.00127492,0.00023322
 ,-0.00015115,0.00017988,0.00007782,0.00003584,-0.00006261,-0.00046507,
 -0.00027906,0.00121397,0.00021905,0.00013453,0.00017104,0.00007769,-0.
 00003547,-0.00006020,-0.00038953,0.00029837,-0.00051515,-0.00037134,-0
 .00031325,-0.00048566,-0.00024652,0.00058943,0.00035757,0.00034554,-0.
 00024744,-0.00002830,0.00027993,0.00000644,-0.00000795,0.00006790,-0.0
 0002547,0.00000183,-0.00002273,-0.00056712,-0.00029212,-0.00016418,-0.
 00000616,0.00005263,-0.00045539,0.00027474,-0.00012596,0.00006430,-0.0
 0001612,0.00007889,-0.00031727,-0.00069511,0.00041876,0.00029262,-0.00
 001020,-0.00000911,0.00036894,0.00030558,-0.00000771,0.00007220,0.0000
 2941,0.00000858,-0.00002596,0.00043676,-0.00038004,-0.00032862,-0.0004
 1729,-0.00005942,-0.00016921,0.00000999,0.00005997,0.00007365,0.000014
 66,0.00007732,0.00723511,-0.00020871,-0.04138698,0.00007989,0.00015874
 ,0.00002970,0.01541264,0.00026025,0.44340637,-0.00101309,0.00046529,0.
 00011828,0.00034346,-0.00003414,0.00016465,-0.00007771,-0.00029648,0.0
 0018774,-0.00012117,-0.00013338,0.00014083,0.00040981,0.00004685,-0.00
 000046,-0.00014733,-0.00003176,-0.00003015,-0.00002277,0.00002172,0.00
 000184,-0.00058955,-0.00002045,-0.00005827,-0.00201554,-0.00385187,-0.
 00237531,-0.00010105,0.00014489,-0.00002225,0.00008137,-0.00000249,-0.
 00000560,0.00003491,-0.00007077,-0.00003387,0.00009840,-0.00007009,-0.
 00016704,0.00003677,-0.00000212,0.00000263,-0.00005184,0.00006610,0.00
 001322,0.00084776,-0.00058136,0.00002778,-0.00015709,-0.00023158,-0.00
 000626,-0.00079439,-0.00001994,0.00004414,0.00030933,-0.00074827,0.000
 31559,0.00040228,-0.00010176,-0.00005875,0.00004416,0.00003203,-0.0001
 1205,-0.00052816,0.00000332,0.00058886,0.00027298,-0.00000490,-0.00019
 929,-0.00032791,-0.00059694,-0.00075211,0.00015876,0.00004133,0.000016
 81,0.00011144,-0.00007595,-0.00016656,-0.00006327,0.00006608,-0.000001
 65,-0.00015355,0.00007214,0.00008778,0.00001827,-0.00002331,-0.0000139
 8,0.00003505,-0.00003300,0.00015337,-0.00002214,-0.00001443,0.00001678
 ,-0.00002480,0.00006947,-0.00001802,-0.00002104,0.00000344,0.00000110,
 -0.00653633,0.01820078,0.00993960,0.00004742,0.00003664,0.00000646,-0.
 05600734,0.07481164,0.04810527,0.06172880,0.00011841,0.00030829,0.0001
 4354,0.00023428,-0.00020152,0.00004489,0.00009578,-0.00007750,0.000054
 35,0.00001991,0.00006774,0.00006812,-0.00032925,0.00003617,-0.00006479
 ,0.00002452,0.00001622,-0.00000147,0.00002987,-0.00002209,0.00000699,0
 .00050470,0.00002343,0.00006747,-0.00091832,-0.00040112,-0.00043271,0.
 00006341,0.00009654,0.00006789,-0.00005935,0.00001547,-0.00003516,0.00
 007606,0.00005232,-0.00003686,-0.00012100,0.00016707,0.00005474,-0.000
 03942,-0.00001414,-0.00003293,0.00002891,-0.00004313,-0.00000709,-0.00
 026349,-0.00087140,0.00020426,-0.00033907,-0.00066891,0.00006115,-0.00
 027873,-0.00013236,0.00026966,-0.00002320,-0.00057765,0.00015868,0.000
 14131,0.00018897,-0.00011665,-0.00015580,-0.00004329,0.00003953,-0.000
 11286,-0.00016153,-0.00001316,0.00004666,0.00010711,0.00005992,0.00011
 253,-0.00007256,-0.00008068,-0.00004206,0.00005727,-0.00002416,-0.0002
 8887,-0.00010288,0.00029043,0.00013647,-0.00006037,-0.00006583,0.00020
 626,0.00033091,0.00003011,0.00008500,0.00001561,-0.00008509,-0.0001192
 6,0.00003915,-0.00010509,-0.00008205,0.00009034,-0.00021509,0.00004241
 ,-0.00007960,0.00001173,0.00010382,-0.00001217,-0.00001901,0.00328429,
 0.00412661,0.00012184,-0.00003446,-0.00003828,-0.00000703,0.05652324,-
 0.19363921,-0.09385501,-0.06620998,0.21591444,0.00040088,0.00025018,-0
 .00008847,0.00020269,-0.00023586,-0.00004140,-0.00006559,-0.00002727,-
 0.00005873,0.00001011,0.00011715,-0.00000263,-0.00033188,-0.00003772,-
 0.00001271,0.00003007,0.00001911,0.00000719,0.00002053,-0.00001956,0.0
 0000400,0.00057359,0.00002768,0.00005412,-0.00078538,0.00025070,0.0008
 4936,0.00011774,-0.00001178,-0.00003643,-0.00005616,-0.00000561,-0.000
 01324,0.00000685,0.00003332,-0.00000555,0.00004181,0.00012196,-0.00000
 597,-0.00005084,-0.00000834,-0.00002331,0.00000062,-0.00003268,0.00000
 521,-0.00023952,-0.00038834,-0.00011208,-0.00019840,-0.00024035,0.0000
 3116,0.00050521,-0.00020719,-0.00010185,0.00000526,0.00077281,-0.00031
 462,-0.00022971,0.00004335,0.00006252,-0.00007430,-0.00000694,0.000082
 42,-0.00003137,0.00002760,0.00004192,0.00004010,0.00007073,0.00001271,
 0.00007031,-0.00010572,0.00001713,-0.00009964,0.00000821,-0.00004215,0
 .00011578,0.00013656,0.00016812,-0.00004862,-0.00001526,0.00000886,-0.
 00004115,-0.00007176,-0.00011372,-0.00005764,0.00002233,0.00003694,0.0
 0002262,-0.00000274,-0.00014396,0.00005946,-0.00004638,0.00008185,-0.0
 0000656,-0.00004701,0.00003645,-0.00003347,-0.00000272,-0.00000923,0.0
 0270456,-0.00078296,-0.00122265,-0.00003529,-0.00004520,-0.00000369,0.
 03653898,-0.09675149,-0.10318966,-0.04273204,0.10770095,0.11229930,-0.
 00055489,-0.00049233,-0.00043310,-0.00056025,0.00046637,-0.00042638,-0
 .00001658,0.00032252,-0.00052876,0.00004236,-0.00027831,-0.00049601,0.
 00092439,-0.00010621,0.00019366,-0.00007752,-0.00006036,-0.00000980,-0
 .00006076,0.00005626,-0.00000089,-0.00155576,-0.00004595,-0.00014635,0
 .00085846,-0.00001370,0.00516052,-0.00027690,0.00029771,0.00041133,0.0
 0017715,-0.00004225,0.00009599,0.00002003,-0.00005988,-0.00001640,-0.0
 0026987,-0.00027721,0.00038548,0.00016851,0.00003476,0.00009105,0.0000
 2195,0.00005867,-0.00001585,0.00001429,-0.00001519,-0.00026547,0.00001
 057,0.00001569,-0.00025843,-0.00005783,0.00033292,-0.00017166,0.000089
 71,-0.00009472,-0.00012862,0.00009950,-0.00001722,0.00004546,-0.000105
 01,-0.00005678,0.00011964,0.00011631,-0.00013980,0.00005318,-0.0000775
 2,-0.00006280,-0.00000981,-0.00007386,0.00004858,0.00007854,-0.0000171
 3,0.00002072,0.00004504,-0.00006546,-0.00031192,-0.00018032,0.00009679
 ,0.00001635,0.00004548,0.00008876,0.00008389,-0.00012143,-0.00010157,0
 .00005358,0.00012035,0.00011625,0.00012472,0.00005366,-0.00007800,-0.0
 0004410,0.00007609,-0.00007491,0.00006393,-0.00000987,-0.00001438,-0.0
 0002034,0.00004247,-0.00906344,0.00012701,-0.01259151,0.00009591,0.000
 12080,0.00001373,-0.09541872,0.00068507,-0.12799068,0.00299653,0.00001
 302,0.00848207,0.09941760,0.00006482,0.00000332,0.00013721,-0.00005831
 ,0.00000291,-0.00013252,-0.00004222,0.00003287,0.00002623,0.00004281,0
 .00003535,-0.00002008,-0.00000579,-0.00006243,-0.00000127,0.00000273,0
 .00000167,-0.00000206,-0.00000166,0.00000100,0.00000318,0.00000794,0.0
 0000513,0.00000057,0.00000468,0.00019901,-0.00003043,-0.00006713,-0.00
 004754,0.00005177,-0.00002798,-0.00001864,-0.00001780,0.00000086,0.000
 00168,0.00000342,0.00006550,-0.00004636,-0.00005549,0.00002649,-0.0000
 1869,0.00001545,-0.00000096,0.00000124,-0.00000366,0.00004246,0.000104
 60,0.00006139,-0.00004146,0.00010384,-0.00006148,0.00001728,0.00017918
 ,0.00014412,0.00011254,0.00004338,-0.00021489,0.00007818,0.00000628,-0
 .00000205,-0.00004140,-0.00004714,0.00000274,0.00010948,-0.00007296,-0
 .00012657,-0.00011701,-0.00000012,0.00008411,0.00000305,0.00013172,0.0
 0016366,-0.00001705,0.00001710,-0.00000816,0.00000336,0.00020795,-0.00
 008697,-0.00008045,0.00000669,-0.00000023,-0.00012095,0.00005565,0.000
 22229,0.00004738,-0.00005476,-0.00001124,-0.00011546,-0.00006806,0.000
 12938,0.00000735,0.00013181,-0.00016365,0.00011973,-0.00000253,-0.0000
 8443,0.00001911,0.00001762,0.00000730,0.00006276,-0.00036861,0.0000667
 3,-0.00000014,-0.00000024,-0.00000016,0.00057245,-0.04099365,0.0015592
 1,-0.01310503,-0.00084185,-0.02401971,-0.00066261,0.04255802,-0.000006
 27,-0.00011446,-0.00003640,-0.00000502,0.00010707,-0.00003083,-0.00009
 924,-0.00000365,0.00010453,-0.00009747,0.00000472,0.00009822,0.0001395
 3,-0.00000020,-0.00001101,-0.00002053,-0.00000555,-0.00000691,-0.00001
 715,0.00000430,-0.00000903,-0.00015077,-0.00000494,0.00000634,0.000192
 25,0.00000767,-0.00089855,-0.00000872,0.00006283,-0.00009236,-0.000005
 74,0.00005175,0.00000111,-0.00003632,-0.00003119,-0.00000428,-0.000007
 11,-0.00006151,-0.00008890,-0.00000617,-0.00004943,0.00000112,-0.00003
 549,0.00003097,-0.00000474,0.00014391,-0.00005412,0.00022230,0.0001438
 2,0.00005961,0.00021568,-0.00006378,0.00000139,-0.00011394,-0.00009856
 ,0.00001316,-0.00009810,-0.00003509,-0.00008529,0.00000061,-0.00004403
 ,0.00002634,0.00002066,0.00016972,0.00018288,0.00008174,-0.00003872,0.
 00001555,-0.00001007,0.00009393,0.00009197,0.00010479,-0.00007266,0.00
 000505,-0.00001899,-0.00006028,0.00004668,-0.00008444,-0.00003662,0.00
 008627,-0.00000078,-0.00010002,-0.00001999,-0.00009715,-0.00004034,-0.
 00003073,0.00001772,0.00016772,-0.00018558,0.00008344,0.00008675,-0.00
 009232,0.00010196,-0.00003912,-0.00001505,-0.00001106,-0.00007495,-0.0
 0000401,-0.00001829,-0.00221063,-0.00001875,0.00344873,0.00001558,0.00
 000855,0.00000138,-0.10110094,0.00139245,-0.21114782,-0.00811384,-0.00
 058976,-0.01621044,0.11947814,-0.00163623,0.24051262,0.00035156,0.0000
 1592,0.00016133,-0.00102839,-0.00046817,0.00011618,-0.00014392,0.00014
 977,0.00014103,-0.00005337,0.00031962,0.00017861,0.00041345,-0.0001103
 7,0.00000161,-0.00003099,-0.00002406,0.00000266,-0.00013209,0.00002769
 ,-0.00003197,-0.00059710,-0.00001108,-0.00005790,-0.00195180,0.0038985
 0,-0.00233218,0.00009478,0.00007568,-0.00016867,0.00003891,0.00000079,
 0.00000376,-0.00005404,-0.00006752,0.00001347,-0.00010455,-0.00014629,
 -0.00001498,0.00007986,0.00000178,-0.00000584,0.00003548,0.00007108,-0
 .00003397,-0.00014559,0.00022102,-0.00000330,0.00082813,0.00060958,0.0
 0002313,0.00012313,0.00008066,-0.00017040,-0.00016587,-0.00008025,0.00
 009201,-0.00006556,-0.00006561,-0.00000034,0.00001684,0.00002153,-0.00
 001264,0.00003996,0.00003596,0.00015688,-0.00002654,-0.00007025,-0.000
 01804,-0.00002247,0.00001520,0.00001883,-0.00002305,-0.00000417,0.0000
 0226,-0.00078193,0.00003864,0.00003384,0.00040056,0.00009927,-0.000054
 62,0.00034665,0.00065590,0.00031286,0.00004578,-0.00003447,-0.00011033
 ,-0.00052994,0.00001980,0.00058928,-0.00029935,0.00060043,-0.00076556,
 0.00027320,0.00000361,-0.00020101,0.00015967,-0.00004282,0.00001542,-0
 .00677826,-0.01818058,0.00983305,0.00004469,0.00004241,0.00000494,-0.0
 5799460,-0.07701960,0.04878911,0.00079858,0.00752631,-0.00483167,0.003
 16528,0.01309462,-0.00800575,0.06367290,-0.00024200,-0.00021301,-0.000
 04962,-0.00010942,0.00030541,-0.00013806,-0.00003294,0.00007877,-0.000
 07525,-0.00007529,-0.00006992,-0.00005073,0.00032575,-0.00001580,0.000
 06267,-0.00003697,-0.00002441,-0.00000887,-0.00001717,0.00001397,0.000
 00410,-0.00050387,-0.00000723,-0.00006360,0.00095060,-0.00044888,0.000
 45513,0.00011947,0.00016716,-0.00004754,0.00004097,-0.00001577,0.00003
 424,-0.00003018,-0.00004369,0.00000641,-0.00005742,0.00010168,-0.00007
 022,0.00005523,0.00001269,0.00003269,-0.00007517,0.00005273,0.00003671
 ,0.00033296,-0.00067886,-0.00006183,0.00025389,-0.00089520,-0.00020693
 ,0.00028577,-0.00009841,-0.00029302,-0.00020094,0.00031517,-0.00002711
 ,-0.00013330,-0.00005797,0.00006528,-0.00008446,0.00001546,0.00008444,
 0.00012031,0.00003135,0.00010696,-0.00004304,-0.00007823,-0.00001251,0
 .00008614,0.00009275,0.00021289,-0.00010437,-0.00001121,0.00002038,0.0
 0029068,-0.00013409,-0.00027281,-0.00014310,0.00019027,0.00011868,-0.0
 0003183,-0.00042877,-0.00014425,0.00015572,-0.00004535,-0.00003908,0.0
 0011649,-0.00016262,0.00001209,-0.00007486,-0.00011463,0.00013455,-0.0
 0004858,0.00010817,-0.00005764,0.00004364,0.00005766,0.00002175,-0.003
 19220,0.00442789,-0.00021479,0.00003873,0.00003438,0.00000451,-0.05871
 614,-0.19309541,0.09264590,-0.00782172,-0.02359211,0.01350993,-0.00014
 086,-0.00120443,0.00080355,0.06869947,0.21543050,0.00019187,0.00024434
 ,-0.00003974,0.00040156,-0.00023395,-0.00009147,0.00003605,-0.00013442
 ,0.00000053,-0.00009224,0.00000566,-0.00006140,-0.00032280,0.00011839,
 -0.00001346,0.00002629,0.00002068,0.00000481,0.00002357,-0.00001726,0.
 00000787,0.00056347,0.00000581,0.00005388,-0.00077470,-0.00026095,0.00
 084439,0.00004368,-0.00012490,-0.00000574,-0.00005253,0.00001005,-0.00
 002471,0.00000131,0.00003310,0.00000530,0.00011420,0.00000593,-0.00003
 697,-0.00005196,0.00000744,-0.00001131,0.00000547,-0.00003262,-0.00000
 488,-0.00019688,0.00024003,0.00002880,-0.00022208,0.00037239,-0.000116
 09,0.00011611,-0.00012431,0.00016293,-0.00004630,0.00005807,-0.0001124
 5,-0.00004731,0.00001490,0.00000891,-0.00005876,-0.00002086,0.00003740
 ,0.00002405,0.00000470,-0.00014319,-0.00000617,0.00004605,0.00003709,0
 .00006053,0.00004755,0.00008355,-0.00003216,0.00000349,-0.00001033,0.0
 0050888,0.00020585,-0.00009594,-0.00023333,-0.00003941,0.00006266,0.00
 000495,-0.00075147,-0.00031274,-0.00007431,0.00000877,0.00008107,-0.00
 003265,-0.00002873,0.00004069,0.00004957,0.00015055,0.00001103,0.00003
 981,-0.00007018,0.00001236,-0.00010086,-0.00000712,-0.00003890,0.00268
 429,0.00079029,-0.00120333,-0.00003751,-0.00004294,-0.00000437,0.03741
 368,0.09570243,-0.10194608,-0.00506522,-0.01366868,0.00795321,0.008809
 49,0.02400031,-0.01602886,-0.04367105,-0.10653899,0.11086547\\0.000006
 91,0.00000544,0.00000525,0.00000194,0.00000698,0.00000981,-0.00001619,
 -0.00000057,-0.00001571,-0.00001206,-0.00001232,-0.00001692,0.00000448
 ,0.00000648,-0.00002024,0.00001206,0.00000213,-0.00000488,0.00000843,-
 0.00000564,-0.00000850,0.00000698,-0.00002542,-0.00001094,0.00000450,0
 .00000726,0.00000504,-0.00002834,-0.00000965,-0.00001407,0.00000944,0.
 00000025,-0.00001557,0.00000582,0.00000745,0.00000500,-0.00003382,0.00
 000433,-0.00001229,-0.00000036,-0.00000057,-0.00001709,0.00000258,-0.0
 0000937,0.00000007,0.00003204,0.00002766,-0.00003029,0.00002243,-0.000
 02477,-0.00003092,0.00000168,-0.00001309,0.00001840,0.00000147,-0.0000
 0333,0.00001411,0.00000364,0.00001446,0.00001056,0.00000174,0.00000201
 ,-0.00000306,-0.00001106,-0.00002497,0.00002567,0.00000948,0.00001353,
 0.00000462,-0.00000012,0.00000229,0.00001646,0.00000763,-0.00000513,0.
 00000336,-0.00000165,0.00001794,0.00000895,-0.00000096,-0.00001076,0.0
 0000535,-0.00000028,0.00000414,0.00000757,-0.00000080,0.00000379,-0.00
 000643,-0.00000714,0.00002277,0.00001849,-0.00000224,-0.00000358,0.000
 01100,0.00000390,-0.00001598,-0.00000084,0.00000578,0.00000090,0.00000
 112,-0.00005683,-0.00000464,0.00001187,-0.00000283,0.00001051,-0.00001
 353,-0.00000654,-0.00000063,0.00000209,0.00000993,0.00000691,0.0000186
 7,0.00000978,0.00000443,0.00000122,0.00000857,-0.00000124,0.00001660\\
 \@
 The archive entry for this job was punched.


       THE DEATH-KNELL OF THE ATOM

 SO THE ATOMS IN TURN, WE NOW CLEARLY DISCERN,
 FLY TO BITS WITH THE UTMOST FACILITY;
 THEY WEND ON THEIR WAY, AND, IN SPLITTING, DISPLAY
 AN ABSOLUTE LACK OF STABILITY.

          SIR WM. RAMSAY, 1905
 Job cpu time:       2 days 12 hours 54 minutes 27.3 seconds.
 Elapsed time:       0 days  1 hours 16 minutes 42.1 seconds.
 File lengths (MBytes):  RWF=   1938 Int=      0 D2E=      0 Chk=     70 Scr=      1
 Normal termination of Gaussian 16 at Mon May 20 23:36:46 2024.
