 Entering Gaussian System, Link 0=/cm/shared/apps//g16/g16
 Input=HZIrMeH.gjf
 Output=HZIrMeH.log
 Initial command:
 /cm/shared/apps//g16/l1.exe "/local/mvanvleet/pbs.14633.josephine/Gau-3884992.inp" -scrdir="/local/mvanvleet/pbs.14633.josephine/"
 Entering Link 1 = /cm/shared/apps//g16/l1.exe PID=   3884994.
  
 Copyright (c) 1988-2019, Gaussian, Inc.  All Rights Reserved.
  
 This is part of the Gaussian(R) 16 program.  It is based on
 the Gaussian(R) 09 system (copyright 2009, Gaussian, Inc.),
 the Gaussian(R) 03 system (copyright 2003, Gaussian, Inc.),
 the Gaussian(R) 98 system (copyright 1998, Gaussian, Inc.),
 the Gaussian(R) 94 system (copyright 1995, Gaussian, Inc.),
 the Gaussian 92(TM) system (copyright 1992, Gaussian, Inc.),
 the Gaussian 90(TM) system (copyright 1990, Gaussian, Inc.),
 the Gaussian 88(TM) system (copyright 1988, Gaussian, Inc.),
 the Gaussian 86(TM) system (copyright 1986, Carnegie Mellon
 University), and the Gaussian 82(TM) system (copyright 1983,
 Carnegie Mellon University). Gaussian is a federally registered
 trademark of Gaussian, Inc.
  
 This software contains proprietary and confidential information,
 including trade secrets, belonging to Gaussian, Inc.
  
 This software is provided under written license and may be
 used, copied, transmitted, or stored only in accord with that
 written license.
  
 The following legend is applicable only to US Government
 contracts under FAR:
  
                    RESTRICTED RIGHTS LEGEND
  
 Use, reproduction and disclosure by the US Government is
 subject to restrictions as set forth in subparagraphs (a)
 and (c) of the Commercial Computer Software - Restricted
 Rights clause in FAR 52.227-19.
  
 Gaussian, Inc.
 340 Quinnipiac St., Bldg. 40, Wallingford CT 06492
  
  
 ---------------------------------------------------------------
 Warning -- This program may not be used in any manner that
 competes with the business of Gaussian, Inc. or will provide
 assistance to any competitor of Gaussian, Inc.  The licensee
 of this program is prohibited from giving any competitor of
 Gaussian, Inc. access to this program.  By using this program,
 the user acknowledges that Gaussian, Inc. is engaged in the
 business of creating and licensing software in the field of
 computational chemistry and represents and warrants to the
 licensee that it is not a competitor of Gaussian, Inc. and that
 it will not use this program in any manner prohibited above.
 ---------------------------------------------------------------
  

 Cite this work as:
 Gaussian 16, Revision C.01,
 M. J. Frisch, G. W. Trucks, H. B. Schlegel, G. E. Scuseria, 
 M. A. Robb, J. R. Cheeseman, G. Scalmani, V. Barone, 
 G. A. Petersson, H. Nakatsuji, X. Li, M. Caricato, A. V. Marenich, 
 J. Bloino, B. G. Janesko, R. Gomperts, B. Mennucci, H. P. Hratchian, 
 J. V. Ortiz, A. F. Izmaylov, J. L. Sonnenberg, D. Williams-Young, 
 F. Ding, F. Lipparini, F. Egidi, J. Goings, B. Peng, A. Petrone, 
 T. Henderson, D. Ranasinghe, V. G. Zakrzewski, J. Gao, N. Rega, 
 G. Zheng, W. Liang, M. Hada, M. Ehara, K. Toyota, R. Fukuda, 
 J. Hasegawa, M. Ishida, T. Nakajima, Y. Honda, O. Kitao, H. Nakai, 
 T. Vreven, K. Throssell, J. A. Montgomery, Jr., J. E. Peralta, 
 F. Ogliaro, M. J. Bearpark, J. J. Heyd, E. N. Brothers, K. N. Kudin, 
 V. N. Staroverov, T. A. Keith, R. Kobayashi, J. Normand, 
 K. Raghavachari, A. P. Rendell, J. C. Burant, S. S. Iyengar, 
 J. Tomasi, M. Cossi, J. M. Millam, M. Klene, C. Adamo, R. Cammi, 
 J. W. Ochterski, R. L. Martin, K. Morokuma, O. Farkas, 
 J. B. Foresman, and D. J. Fox, Gaussian, Inc., Wallingford CT, 2019.
 
 ******************************************
 Gaussian 16:  ES64L-G16RevC.01  3-Jul-2019
                28-Mar-2024 
 ******************************************
 %nprocshared=6
 Will use up to    6 processors via shared memory.
 %chk=HZIrMeH.chk
 %mem=2GB
 ----------------------------------------------------------
 # wb97xd def2TZVPP SCRF=(solvent=dichloromethane) opt freq
 ----------------------------------------------------------
 1/18=20,19=15,26=3,38=1/1,3;
 2/9=110,12=2,17=6,18=5,40=1/2;
 3/5=44,7=202,11=2,25=1,30=1,70=2201,71=1,72=9,74=-58/1,2,3;
 4//1;
 5/5=2,38=5,53=9/2;
 6/7=2,8=2,9=2,10=2,28=1/1;
 7//1,2,3,16;
 1/18=20,19=15,26=3/3(2);
 2/9=110/2;
 99//99;
 2/9=110/2;
 3/5=44,7=202,11=2,25=1,30=1,70=2205,71=1,72=9,74=-58/1,2,3;
 4/5=5,16=3,69=1/1;
 5/5=2,38=5,53=9/2;
 7//1,2,3,16;
 1/18=20,19=15,26=3/3(-5);
 2/9=110/2;
 6/7=2,8=2,9=2,10=2,19=2,28=1/1;
 99/9=1/99;
 -------
 HZIrMeH
 -------
 Symbolic Z-matrix:
 Charge =  1 Multiplicity = 1
 C                    -1.69521  -1.18753  -0.34072 
 C                    -1.69523   1.18749  -0.34075 
 C                    -3.01337  -1.23938   0.02141 
 C                    -3.0134    1.23932   0.02138 
 C                    -3.78329  -0.00004   0.22779 
 H                    -3.53078  -2.19308   0.16459 
 H                    -3.53083   2.19301   0.16454 
 O                    -4.97556  -0.00005   0.55872 
 N                    -1.03862  -0.00002  -0.52645 
 C                    -0.75743  -2.3326   -0.66358 
 H                    -0.59363  -2.348    -1.75713 
 H                    -1.14759  -3.31887  -0.34449 
 C                    -0.75748   2.33257  -0.66363 
 H                    -0.59366   2.34794  -1.75718 
 H                    -1.14766   3.31883  -0.34457 
 N                     0.60223  -2.09651  -0.0395 
 N                     0.60217   2.09652  -0.0395 
 C                     2.60722   0.00004   1.12475 
 H                     2.23246   0.00009   2.17469 
 H                     3.27426  -0.88331   1.02802 
 H                     3.27428   0.88336   1.02795 
 C                     1.61092  -2.93285  -0.72674 
 H                     2.58294  -2.78364  -0.23259 
 H                     1.32501  -4.00415  -0.67487 
 H                     1.68239  -2.61101  -1.77616 
 C                     0.5286   -2.50433   1.38889 
 H                     0.28019  -3.58321   1.45804 
 H                     1.49721  -2.31215   1.87149 
 H                    -0.25794  -1.91548   1.8891 
 C                     1.61086   2.93289  -0.72669 
 H                     1.32491   4.00419  -0.67483 
 H                     2.58287   2.78371  -0.2325 
 H                     1.68238   2.61106  -1.77611 
 C                     0.52846   2.50433   1.38889 
 H                     1.49705   2.31217   1.87154 
 H                     0.28002   3.58321   1.45803 
 H                    -0.2581    1.91546   1.88906 
 H                     2.22469   0.00003  -0.97277 
 Ir                    0.92129   0.00001  -0.11625 
 H                    -4.97556   0.99995   0.55872 
 

 GradGradGradGradGradGradGradGradGradGradGradGradGradGradGradGradGradGrad
 Berny optimization.
 Initialization pass.
                           ----------------------------
                           !    Initial Parameters    !
                           ! (Angstroms and Degrees)  !
 --------------------------                            --------------------------
 ! Name  Definition              Value          Derivative Info.                !
 --------------------------------------------------------------------------------
 ! R1    R(1,3)                  1.368          estimate D2E/DX2                !
 ! R2    R(1,9)                  1.3696         estimate D2E/DX2                !
 ! R3    R(1,10)                 1.5149         estimate D2E/DX2                !
 ! R4    R(2,4)                  1.368          estimate D2E/DX2                !
 ! R5    R(2,9)                  1.3696         estimate D2E/DX2                !
 ! R6    R(2,13)                 1.5149         estimate D2E/DX2                !
 ! R7    R(3,5)                  1.4735         estimate D2E/DX2                !
 ! R8    R(3,6)                  1.0944         estimate D2E/DX2                !
 ! R9    R(4,5)                  1.4735         estimate D2E/DX2                !
 ! R10   R(4,7)                  1.0944         estimate D2E/DX2                !
 ! R11   R(5,8)                  1.2373         estimate D2E/DX2                !
 ! R12   R(8,40)                 1.0            estimate D2E/DX2                !
 ! R13   R(9,39)                 2.0024         estimate D2E/DX2                !
 ! R14   R(10,11)                1.1059         estimate D2E/DX2                !
 ! R15   R(10,12)                1.1076         estimate D2E/DX2                !
 ! R16   R(10,16)                1.5146         estimate D2E/DX2                !
 ! R17   R(13,14)                1.1059         estimate D2E/DX2                !
 ! R18   R(13,15)                1.1076         estimate D2E/DX2                !
 ! R19   R(13,17)                1.5146         estimate D2E/DX2                !
 ! R20   R(16,22)                1.4796         estimate D2E/DX2                !
 ! R21   R(16,26)                1.4873         estimate D2E/DX2                !
 ! R22   R(16,39)                2.122          estimate D2E/DX2                !
 ! R23   R(17,30)                1.4796         estimate D2E/DX2                !
 ! R24   R(17,34)                1.4873         estimate D2E/DX2                !
 ! R25   R(17,39)                2.122          estimate D2E/DX2                !
 ! R26   R(18,19)                1.1148         estimate D2E/DX2                !
 ! R27   R(18,20)                1.1111         estimate D2E/DX2                !
 ! R28   R(18,21)                1.1111         estimate D2E/DX2                !
 ! R29   R(18,39)                2.0934         estimate D2E/DX2                !
 ! R30   R(22,23)                1.1006         estimate D2E/DX2                !
 ! R31   R(22,24)                1.11           estimate D2E/DX2                !
 ! R32   R(22,25)                1.1            estimate D2E/DX2                !
 ! R33   R(26,27)                1.1093         estimate D2E/DX2                !
 ! R34   R(26,28)                1.0991         estimate D2E/DX2                !
 ! R35   R(26,29)                1.1025         estimate D2E/DX2                !
 ! R36   R(30,31)                1.11           estimate D2E/DX2                !
 ! R37   R(30,32)                1.1006         estimate D2E/DX2                !
 ! R38   R(30,33)                1.1            estimate D2E/DX2                !
 ! R39   R(34,35)                1.0991         estimate D2E/DX2                !
 ! R40   R(34,36)                1.1093         estimate D2E/DX2                !
 ! R41   R(34,37)                1.1025         estimate D2E/DX2                !
 ! R42   R(38,39)                1.5596         estimate D2E/DX2                !
 ! A1    A(3,1,9)              122.0533         estimate D2E/DX2                !
 ! A2    A(3,1,10)             128.6286         estimate D2E/DX2                !
 ! A3    A(9,1,10)             109.2514         estimate D2E/DX2                !
 ! A4    A(4,2,9)              122.0528         estimate D2E/DX2                !
 ! A5    A(4,2,13)             128.6285         estimate D2E/DX2                !
 ! A6    A(9,2,13)             109.252          estimate D2E/DX2                !
 ! A7    A(1,3,5)              120.5749         estimate D2E/DX2                !
 ! A8    A(1,3,6)              121.5481         estimate D2E/DX2                !
 ! A9    A(5,3,6)              117.8769         estimate D2E/DX2                !
 ! A10   A(2,4,5)              120.5746         estimate D2E/DX2                !
 ! A11   A(2,4,7)              121.5481         estimate D2E/DX2                !
 ! A12   A(5,4,7)              117.8771         estimate D2E/DX2                !
 ! A13   A(3,5,4)              114.5057         estimate D2E/DX2                !
 ! A14   A(3,5,8)              122.7458         estimate D2E/DX2                !
 ! A15   A(4,5,8)              122.7456         estimate D2E/DX2                !
 ! A16   A(5,8,40)              89.9995         estimate D2E/DX2                !
 ! A17   A(1,9,2)              120.2355         estimate D2E/DX2                !
 ! A18   A(1,9,39)             116.1977         estimate D2E/DX2                !
 ! A19   A(2,9,39)             116.1972         estimate D2E/DX2                !
 ! A20   A(1,10,11)            108.2386         estimate D2E/DX2                !
 ! A21   A(1,10,12)            113.1798         estimate D2E/DX2                !
 ! A22   A(1,10,16)            110.4927         estimate D2E/DX2                !
 ! A23   A(11,10,12)           108.9451         estimate D2E/DX2                !
 ! A24   A(11,10,16)           106.0614         estimate D2E/DX2                !
 ! A25   A(12,10,16)           109.6532         estimate D2E/DX2                !
 ! A26   A(2,13,14)            108.2386         estimate D2E/DX2                !
 ! A27   A(2,13,15)            113.18           estimate D2E/DX2                !
 ! A28   A(2,13,17)            110.4918         estimate D2E/DX2                !
 ! A29   A(14,13,15)           108.9456         estimate D2E/DX2                !
 ! A30   A(14,13,17)           106.0621         estimate D2E/DX2                !
 ! A31   A(15,13,17)           109.6528         estimate D2E/DX2                !
 ! A32   A(10,16,22)           109.4211         estimate D2E/DX2                !
 ! A33   A(10,16,26)           107.9718         estimate D2E/DX2                !
 ! A34   A(10,16,39)           105.9072         estimate D2E/DX2                !
 ! A35   A(22,16,26)           108.9558         estimate D2E/DX2                !
 ! A36   A(22,16,39)           116.0494         estimate D2E/DX2                !
 ! A37   A(26,16,39)           108.2452         estimate D2E/DX2                !
 ! A38   A(13,17,30)           109.4214         estimate D2E/DX2                !
 ! A39   A(13,17,34)           107.9713         estimate D2E/DX2                !
 ! A40   A(13,17,39)           105.9069         estimate D2E/DX2                !
 ! A41   A(30,17,34)           108.956          estimate D2E/DX2                !
 ! A42   A(30,17,39)           116.0495         estimate D2E/DX2                !
 ! A43   A(34,17,39)           108.2452         estimate D2E/DX2                !
 ! A44   A(19,18,20)           106.4891         estimate D2E/DX2                !
 ! A45   A(19,18,21)           106.4888         estimate D2E/DX2                !
 ! A46   A(19,18,39)           106.7133         estimate D2E/DX2                !
 ! A47   A(20,18,21)           105.3088         estimate D2E/DX2                !
 ! A48   A(20,18,39)           115.5851         estimate D2E/DX2                !
 ! A49   A(21,18,39)           115.5852         estimate D2E/DX2                !
 ! A50   A(16,22,23)           108.4767         estimate D2E/DX2                !
 ! A51   A(16,22,24)           110.3794         estimate D2E/DX2                !
 ! A52   A(16,22,25)           108.7861         estimate D2E/DX2                !
 ! A53   A(23,22,24)           109.7157         estimate D2E/DX2                !
 ! A54   A(23,22,25)           109.3477         estimate D2E/DX2                !
 ! A55   A(24,22,25)           110.1024         estimate D2E/DX2                !
 ! A56   A(16,26,27)           109.7336         estimate D2E/DX2                !
 ! A57   A(16,26,28)           109.2761         estimate D2E/DX2                !
 ! A58   A(16,26,29)           108.9407         estimate D2E/DX2                !
 ! A59   A(27,26,28)           109.8794         estimate D2E/DX2                !
 ! A60   A(27,26,29)           109.3547         estimate D2E/DX2                !
 ! A61   A(28,26,29)           109.6391         estimate D2E/DX2                !
 ! A62   A(17,30,31)           110.3793         estimate D2E/DX2                !
 ! A63   A(17,30,32)           108.477          estimate D2E/DX2                !
 ! A64   A(17,30,33)           108.786          estimate D2E/DX2                !
 ! A65   A(31,30,32)           109.7157         estimate D2E/DX2                !
 ! A66   A(31,30,33)           110.102          estimate D2E/DX2                !
 ! A67   A(32,30,33)           109.3479         estimate D2E/DX2                !
 ! A68   A(17,34,35)           109.2763         estimate D2E/DX2                !
 ! A69   A(17,34,36)           109.7334         estimate D2E/DX2                !
 ! A70   A(17,34,37)           108.9408         estimate D2E/DX2                !
 ! A71   A(35,34,36)           109.8794         estimate D2E/DX2                !
 ! A72   A(35,34,37)           109.6392         estimate D2E/DX2                !
 ! A73   A(36,34,37)           109.3545         estimate D2E/DX2                !
 ! A74   A(9,39,16)             81.9654         estimate D2E/DX2                !
 ! A75   A(9,39,17)             81.9655         estimate D2E/DX2                !
 ! A76   A(9,39,18)            155.4646         estimate D2E/DX2                !
 ! A77   A(9,39,38)            134.8683         estimate D2E/DX2                !
 ! A78   A(16,39,17)           162.2061         estimate D2E/DX2                !
 ! A79   A(16,39,18)            95.7196         estimate D2E/DX2                !
 ! A80   A(16,39,38)            98.3678         estimate D2E/DX2                !
 ! A81   A(17,39,18)            95.7193         estimate D2E/DX2                !
 ! A82   A(17,39,38)            98.3677         estimate D2E/DX2                !
 ! A83   A(18,39,38)            69.6671         estimate D2E/DX2                !
 ! D1    D(9,1,3,5)             -0.031          estimate D2E/DX2                !
 ! D2    D(9,1,3,6)            179.8067         estimate D2E/DX2                !
 ! D3    D(10,1,3,5)          -176.7297         estimate D2E/DX2                !
 ! D4    D(10,1,3,6)             3.108          estimate D2E/DX2                !
 ! D5    D(3,1,9,2)              0.509          estimate D2E/DX2                !
 ! D6    D(3,1,9,39)           149.4057         estimate D2E/DX2                !
 ! D7    D(10,1,9,2)           177.7777         estimate D2E/DX2                !
 ! D8    D(10,1,9,39)          -33.3256         estimate D2E/DX2                !
 ! D9    D(3,1,10,11)          106.3279         estimate D2E/DX2                !
 ! D10   D(3,1,10,12)          -14.5328         estimate D2E/DX2                !
 ! D11   D(3,1,10,16)         -137.9416         estimate D2E/DX2                !
 ! D12   D(9,1,10,11)          -70.7087         estimate D2E/DX2                !
 ! D13   D(9,1,10,12)          168.4306         estimate D2E/DX2                !
 ! D14   D(9,1,10,16)           45.0219         estimate D2E/DX2                !
 ! D15   D(9,2,4,5)              0.0311         estimate D2E/DX2                !
 ! D16   D(9,2,4,7)           -179.8069         estimate D2E/DX2                !
 ! D17   D(13,2,4,5)           176.73           estimate D2E/DX2                !
 ! D18   D(13,2,4,7)            -3.108          estimate D2E/DX2                !
 ! D19   D(4,2,9,1)             -0.509          estimate D2E/DX2                !
 ! D20   D(4,2,9,39)          -149.4059         estimate D2E/DX2                !
 ! D21   D(13,2,9,1)          -177.7779         estimate D2E/DX2                !
 ! D22   D(13,2,9,39)           33.3252         estimate D2E/DX2                !
 ! D23   D(4,2,13,14)         -106.3291         estimate D2E/DX2                !
 ! D24   D(4,2,13,15)           14.5324         estimate D2E/DX2                !
 ! D25   D(4,2,13,17)          137.94           estimate D2E/DX2                !
 ! D26   D(9,2,13,14)           70.7076         estimate D2E/DX2                !
 ! D27   D(9,2,13,15)         -168.4308         estimate D2E/DX2                !
 ! D28   D(9,2,13,17)          -45.0233         estimate D2E/DX2                !
 ! D29   D(1,3,5,4)             -0.4116         estimate D2E/DX2                !
 ! D30   D(1,3,5,8)           -179.8102         estimate D2E/DX2                !
 ! D31   D(6,3,5,4)            179.7449         estimate D2E/DX2                !
 ! D32   D(6,3,5,8)              0.3463         estimate D2E/DX2                !
 ! D33   D(2,4,5,3)              0.4115         estimate D2E/DX2                !
 ! D34   D(2,4,5,8)            179.8102         estimate D2E/DX2                !
 ! D35   D(7,4,5,3)           -179.7447         estimate D2E/DX2                !
 ! D36   D(7,4,5,8)             -0.346          estimate D2E/DX2                !
 ! D37   D(3,5,8,40)           179.6739         estimate D2E/DX2                !
 ! D38   D(4,5,8,40)             0.3244         estimate D2E/DX2                !
 ! D39   D(1,9,39,16)           11.0812         estimate D2E/DX2                !
 ! D40   D(1,9,39,17)         -161.2513         estimate D2E/DX2                !
 ! D41   D(1,9,39,18)          -75.0853         estimate D2E/DX2                !
 ! D42   D(1,9,39,38)          104.915          estimate D2E/DX2                !
 ! D43   D(2,9,39,16)          161.253          estimate D2E/DX2                !
 ! D44   D(2,9,39,17)          -11.0795         estimate D2E/DX2                !
 ! D45   D(2,9,39,18)           75.0865         estimate D2E/DX2                !
 ! D46   D(2,9,39,38)         -104.9133         estimate D2E/DX2                !
 ! D47   D(1,10,16,22)        -160.3302         estimate D2E/DX2                !
 ! D48   D(1,10,16,26)          81.2147         estimate D2E/DX2                !
 ! D49   D(1,10,16,39)         -34.5511         estimate D2E/DX2                !
 ! D50   D(11,10,16,22)        -43.2465         estimate D2E/DX2                !
 ! D51   D(11,10,16,26)       -161.7016         estimate D2E/DX2                !
 ! D52   D(11,10,16,39)         82.5326         estimate D2E/DX2                !
 ! D53   D(12,10,16,22)         74.2419         estimate D2E/DX2                !
 ! D54   D(12,10,16,26)        -44.2132         estimate D2E/DX2                !
 ! D55   D(12,10,16,39)       -159.979          estimate D2E/DX2                !
 ! D56   D(2,13,17,30)         160.3326         estimate D2E/DX2                !
 ! D57   D(2,13,17,34)         -81.2122         estimate D2E/DX2                !
 ! D58   D(2,13,17,39)          34.5533         estimate D2E/DX2                !
 ! D59   D(14,13,17,30)         43.2489         estimate D2E/DX2                !
 ! D60   D(14,13,17,34)        161.7041         estimate D2E/DX2                !
 ! D61   D(14,13,17,39)        -82.5304         estimate D2E/DX2                !
 ! D62   D(15,13,17,30)        -74.2403         estimate D2E/DX2                !
 ! D63   D(15,13,17,34)         44.215          estimate D2E/DX2                !
 ! D64   D(15,13,17,39)        159.9805         estimate D2E/DX2                !
 ! D65   D(10,16,22,23)       -177.49           estimate D2E/DX2                !
 ! D66   D(10,16,22,24)        -57.2537         estimate D2E/DX2                !
 ! D67   D(10,16,22,25)         63.6532         estimate D2E/DX2                !
 ! D68   D(26,16,22,23)        -59.649          estimate D2E/DX2                !
 ! D69   D(26,16,22,24)         60.5874         estimate D2E/DX2                !
 ! D70   D(26,16,22,25)       -178.5058         estimate D2E/DX2                !
 ! D71   D(39,16,22,23)         62.7867         estimate D2E/DX2                !
 ! D72   D(39,16,22,24)       -176.9769         estimate D2E/DX2                !
 ! D73   D(39,16,22,25)        -56.0701         estimate D2E/DX2                !
 ! D74   D(10,16,26,27)         61.2142         estimate D2E/DX2                !
 ! D75   D(10,16,26,28)       -178.2442         estimate D2E/DX2                !
 ! D76   D(10,16,26,29)        -58.4785         estimate D2E/DX2                !
 ! D77   D(22,16,26,27)        -57.5379         estimate D2E/DX2                !
 ! D78   D(22,16,26,28)         63.0038         estimate D2E/DX2                !
 ! D79   D(22,16,26,29)       -177.2306         estimate D2E/DX2                !
 ! D80   D(39,16,26,27)        175.4394         estimate D2E/DX2                !
 ! D81   D(39,16,26,28)        -64.019          estimate D2E/DX2                !
 ! D82   D(39,16,26,29)         55.7467         estimate D2E/DX2                !
 ! D83   D(10,16,39,9)          13.7964         estimate D2E/DX2                !
 ! D84   D(10,16,39,17)         39.4111         estimate D2E/DX2                !
 ! D85   D(10,16,39,18)        169.1889         estimate D2E/DX2                !
 ! D86   D(10,16,39,38)       -120.5806         estimate D2E/DX2                !
 ! D87   D(22,16,39,9)         135.4071         estimate D2E/DX2                !
 ! D88   D(22,16,39,17)        161.0219         estimate D2E/DX2                !
 ! D89   D(22,16,39,18)        -69.2003         estimate D2E/DX2                !
 ! D90   D(22,16,39,38)          1.0302         estimate D2E/DX2                !
 ! D91   D(26,16,39,9)        -101.7835         estimate D2E/DX2                !
 ! D92   D(26,16,39,17)        -76.1687         estimate D2E/DX2                !
 ! D93   D(26,16,39,18)         53.609          estimate D2E/DX2                !
 ! D94   D(26,16,39,38)        123.8395         estimate D2E/DX2                !
 ! D95   D(13,17,30,31)         57.2532         estimate D2E/DX2                !
 ! D96   D(13,17,30,32)        177.4898         estimate D2E/DX2                !
 ! D97   D(13,17,30,33)        -63.6531         estimate D2E/DX2                !
 ! D98   D(34,17,30,31)        -60.5875         estimate D2E/DX2                !
 ! D99   D(34,17,30,32)         59.6491         estimate D2E/DX2                !
 ! D100  D(34,17,30,33)        178.5063         estimate D2E/DX2                !
 ! D101  D(39,17,30,31)        176.9765         estimate D2E/DX2                !
 ! D102  D(39,17,30,32)        -62.787          estimate D2E/DX2                !
 ! D103  D(39,17,30,33)         56.0702         estimate D2E/DX2                !
 ! D104  D(13,17,34,35)        178.2434         estimate D2E/DX2                !
 ! D105  D(13,17,34,36)        -61.2149         estimate D2E/DX2                !
 ! D106  D(13,17,34,37)         58.4774         estimate D2E/DX2                !
 ! D107  D(30,17,34,35)        -63.0044         estimate D2E/DX2                !
 ! D108  D(30,17,34,36)         57.5373         estimate D2E/DX2                !
 ! D109  D(30,17,34,37)        177.2297         estimate D2E/DX2                !
 ! D110  D(39,17,34,35)         64.0187         estimate D2E/DX2                !
 ! D111  D(39,17,34,36)       -175.4396         estimate D2E/DX2                !
 ! D112  D(39,17,34,37)        -55.7472         estimate D2E/DX2                !
 ! D113  D(13,17,39,9)         -13.7984         estimate D2E/DX2                !
 ! D114  D(13,17,39,16)        -39.4132         estimate D2E/DX2                !
 ! D115  D(13,17,39,18)       -169.191          estimate D2E/DX2                !
 ! D116  D(13,17,39,38)        120.5786         estimate D2E/DX2                !
 ! D117  D(30,17,39,9)        -135.4095         estimate D2E/DX2                !
 ! D118  D(30,17,39,16)       -161.0243         estimate D2E/DX2                !
 ! D119  D(30,17,39,18)         69.1979         estimate D2E/DX2                !
 ! D120  D(30,17,39,38)         -1.0325         estimate D2E/DX2                !
 ! D121  D(34,17,39,9)         101.7807         estimate D2E/DX2                !
 ! D122  D(34,17,39,16)         76.1659         estimate D2E/DX2                !
 ! D123  D(34,17,39,18)        -53.6119         estimate D2E/DX2                !
 ! D124  D(34,17,39,38)       -123.8423         estimate D2E/DX2                !
 ! D125  D(19,18,39,9)          -0.0027         estimate D2E/DX2                !
 ! D126  D(19,18,39,16)        -83.1767         estimate D2E/DX2                !
 ! D127  D(19,18,39,17)         83.1708         estimate D2E/DX2                !
 ! D128  D(19,18,39,38)        179.9971         estimate D2E/DX2                !
 ! D129  D(20,18,39,9)         118.1834         estimate D2E/DX2                !
 ! D130  D(20,18,39,16)         35.0094         estimate D2E/DX2                !
 ! D131  D(20,18,39,17)       -158.6431         estimate D2E/DX2                !
 ! D132  D(20,18,39,38)        -61.8168         estimate D2E/DX2                !
 ! D133  D(21,18,39,9)        -118.1885         estimate D2E/DX2                !
 ! D134  D(21,18,39,16)        158.6375         estimate D2E/DX2                !
 ! D135  D(21,18,39,17)        -35.015          estimate D2E/DX2                !
 ! D136  D(21,18,39,38)         61.8113         estimate D2E/DX2                !
 --------------------------------------------------------------------------------
 Trust Radius=3.00D-01 FncErr=1.00D-07 GrdErr=1.00D-06 EigMax=2.50D+02 EigMin=1.00D-04
 Number of steps in this run=    240 maximum allowed number of steps=    240.
 GradGradGradGradGradGradGradGradGradGradGradGradGradGradGradGradGradGrad

                          Input orientation:                          
 ---------------------------------------------------------------------
 Center     Atomic      Atomic             Coordinates (Angstroms)
 Number     Number       Type             X           Y           Z
 ---------------------------------------------------------------------
      1          6           0       -1.695210   -1.187530   -0.340720
      2          6           0       -1.695230    1.187490   -0.340750
      3          6           0       -3.013370   -1.239380    0.021410
      4          6           0       -3.013400    1.239320    0.021380
      5          6           0       -3.783290   -0.000040    0.227790
      6          1           0       -3.530780   -2.193080    0.164590
      7          1           0       -3.530830    2.193010    0.164540
      8          8           0       -4.975560   -0.000050    0.558720
      9          7           0       -1.038620   -0.000020   -0.526450
     10          6           0       -0.757430   -2.332600   -0.663580
     11          1           0       -0.593630   -2.348000   -1.757130
     12          1           0       -1.147590   -3.318870   -0.344490
     13          6           0       -0.757480    2.332570   -0.663630
     14          1           0       -0.593660    2.347940   -1.757180
     15          1           0       -1.147660    3.318830   -0.344570
     16          7           0        0.602230   -2.096510   -0.039500
     17          7           0        0.602170    2.096520   -0.039500
     18          6           0        2.607220    0.000040    1.124750
     19          1           0        2.232460    0.000090    2.174690
     20          1           0        3.274260   -0.883310    1.028020
     21          1           0        3.274280    0.883360    1.027950
     22          6           0        1.610920   -2.932850   -0.726740
     23          1           0        2.582940   -2.783640   -0.232590
     24          1           0        1.325010   -4.004150   -0.674870
     25          1           0        1.682390   -2.611010   -1.776160
     26          6           0        0.528600   -2.504330    1.388890
     27          1           0        0.280190   -3.583210    1.458040
     28          1           0        1.497210   -2.312150    1.871490
     29          1           0       -0.257940   -1.915480    1.889100
     30          6           0        1.610860    2.932890   -0.726690
     31          1           0        1.324910    4.004190   -0.674830
     32          1           0        2.582870    2.783710   -0.232500
     33          1           0        1.682380    2.611060   -1.776110
     34          6           0        0.528460    2.504330    1.388890
     35          1           0        1.497050    2.312170    1.871540
     36          1           0        0.280020    3.583210    1.458030
     37          1           0       -0.258100    1.915460    1.889060
     38          1           0        2.224690    0.000030   -0.972770
     39         77           0        0.921290    0.000010   -0.116250
     40          1           0       -4.975560    0.999950    0.558720
 ---------------------------------------------------------------------
                    Distance matrix (angstroms):
                    1          2          3          4          5
     1  C    0.000000
     2  C    2.375020   0.000000
     3  C    1.367981   2.785382   0.000000
     4  C    2.785380   1.367990   2.478700   0.000000
     5  C    2.468484   2.468493   1.473544   1.473550   0.000000
     6  H    2.153088   3.879802   1.094421   3.474127   2.208434
     7  H    3.879799   2.153094   3.474126   1.094419   2.208439
     8  O    3.602749   3.602758   2.382190   2.382193   1.237345
     9  N    1.369593   1.369599   2.394953   2.394961   2.846417
    10  C    1.514878   3.657147   2.598770   4.279858   3.923163
    11  H    2.136910   3.964763   3.201154   4.678381   4.430209
    12  H    2.200571   4.539516   2.817676   4.938846   4.276570
    13  C    3.657145   1.514871   4.279854   2.598771   3.923165
    14  H    3.964760   2.136908   4.678380   3.201165   4.430221
    15  H    4.539505   2.200558   4.938835   2.817670   4.276569
    16  N    2.489018   4.019170   3.716308   4.919781   4.868205
    17  N    4.019163   2.489003   4.919763   3.716294   4.868189
    18  C    4.697747   4.697745   5.860423   5.860427   6.453151
    19  H    4.812933   4.812910   5.804449   5.804436   6.322948
    20  H    5.163490   5.554959   6.377644   6.712194   7.157482
    21  H    5.554968   5.163513   6.712205   6.377681   7.157510
    22  C    3.758410   5.296869   4.981127   6.273039   6.213695
    23  H    4.567475   5.838177   5.811019   6.896936   6.963423
    24  H    4.143276   6.015531   5.191368   6.841092   6.553047
    25  H    3.936364   5.281791   5.211793   6.332980   6.380175
    26  C    3.109798   4.643986   4.001956   5.332051   5.119767
    27  H    3.588457   5.467861   4.290103   6.014027   5.555582
    28  H    4.043537   5.228112   4.991890   6.031704   5.994271
    29  H    2.750955   4.082457   3.396730   4.586251   4.342459
    30  C    5.296880   3.758404   6.273037   4.981121   6.213692
    31  H    6.015539   4.143266   6.841085   5.191353   6.553037
    32  H    5.838187   4.567469   6.896929   5.811010   6.963413
    33  H    5.281832   3.936376   6.333011   5.211813   6.380204
    34  C    4.643930   3.109746   5.331972   4.001888   5.119689
    35  H    5.228051   4.043487   6.031615   4.991819   5.994182
    36  H    5.467814   3.588411   6.013956   4.290035   5.555507
    37  H    4.082371   2.750879   4.586136   3.396627   4.342341
    38  H    4.144322   4.144307   5.473738   5.473734   6.126758
    39  Ir   2.882136   2.882132   4.127540   4.127544   4.717143
    40  H    4.044102   3.406579   3.025474   2.048439   1.590912
                    6          7          8          9         10
     6  H    0.000000
     7  H    4.386090   0.000000
     8  O    2.655581   2.655586   0.000000
     9  N    3.390857   3.390864   4.083759   0.000000
    10  C    2.897724   5.372027   4.972668   2.353466   0.000000
    11  H    3.513383   5.739402   5.484281   2.688048   1.105857
    12  H    2.684429   6.026588   5.146232   3.325620   1.107597
    13  C    5.372025   2.897725   4.972671   2.353473   4.665170
    14  H    5.739402   3.513400   5.484296   2.688048   4.809390
    15  H    6.026579   2.684430   5.146233   3.325618   5.673862
    16  N    4.139173   5.960184   5.988719   2.706433   1.514559
    17  N    5.960167   4.139158   5.988701   2.706435   4.674943
    18  C    6.588378   6.588382   7.603877   4.002326   4.467684
    19  H    6.485787   6.485762   7.386942   4.242184   4.736735
    20  H    6.983522   7.517885   8.310230   4.668781   4.606135
    21  H    7.517893   6.983565   8.310262   4.668793   5.427555
    22  C    5.270560   7.314808   7.323622   3.957483   2.444048
    23  H    6.155005   7.893221   8.093545   4.577182   3.398126
    24  H    5.250082   7.917612   7.566488   4.652078   2.670349
    25  H    5.578379   7.350006   7.523103   3.972775   2.695935
    26  C    4.251394   6.327954   6.103800   3.520834   2.428168
    27  H    4.257812   7.040009   6.424229   4.303105   2.672443
    28  H    5.311155   6.963572   6.997566   4.186466   3.392698
    29  H    3.709781   5.528617   5.262577   3.180146   2.634322
    30  C    7.314808   5.270549   7.323616   3.957499   5.773921
    31  H    7.917607   5.250060   7.566472   4.652095   6.670170
    32  H    7.893215   6.154989   8.093529   4.577199   6.125362
    33  H    7.350042   5.578391   7.523130   3.972811   5.624071
    34  C    6.327875   4.251328   6.103715   3.520800   5.409440
    35  H    6.963478   5.311085   6.997467   4.186431   5.751817
    36  H    7.039937   4.257740   6.424144   4.303081   6.369799
    37  H    5.528502   3.709685   5.262453   3.180089   4.981096
    38  H    6.263286   6.263278   7.361322   3.293690   3.798658
    39  Ir   4.970859   4.970862   5.935354   2.002376   2.925532
    40  H    3.526779   1.914684   1.000000   4.204406   5.512942
                   11         12         13         14         15
    11  H    0.000000
    12  H    1.801392   0.000000
    13  C    4.809400   5.673871   0.000000
    14  H    4.695940   5.866453   1.105859   0.000000
    15  H    5.866450   6.637700   1.107587   1.801391   0.000000
    16  N    2.107980   2.156166   4.674944   4.912608   5.699218
    17  N    4.912632   5.699222   1.514565   2.107996   2.156157
    18  C    4.905504   5.222301   4.467685   4.905485   5.222298
    19  H    5.381405   5.365305   4.736693   5.381353   5.365251
    20  H    4.986276   5.231491   5.427568   5.758396   6.252628
    21  H    5.758393   6.252620   4.606163   4.986272   5.231527
    22  C    2.502757   2.811495   5.773902   5.814527   6.843926
    23  H    3.550296   3.770391   6.125341   6.224811   7.153325
    24  H    2.755957   2.586989   6.670151   6.723224   7.736228
    25  H    2.291245   3.249543   5.624026   5.456368   6.724703
    26  C    3.343842   2.545132   5.409477   5.890819   6.302692
    27  H    3.553396   2.314637   6.369827   6.802925   7.275047
    28  H    4.188052   3.594304   5.751859   6.265415   6.604104
    29  H    3.687107   2.783865   4.981154   5.620037   5.760112
    30  C    5.814584   6.843948   2.444053   2.502795   2.811476
    31  H    6.723279   7.736252   2.670353   2.756004   2.586966
    32  H    6.224877   7.153346   3.398138   3.550336   3.770380
    33  H    5.456451   6.724755   2.695939   2.291277   3.249519
    34  C    5.890809   6.302651   2.428164   3.343855   2.545127
    35  H    6.265411   6.604053   3.392699   4.188073   3.594301
    36  H    6.802924   7.275016   2.672442   3.553419   2.314635
    37  H    5.619998   5.760048   2.634310   3.687100   2.783858
    38  H    3.751186   4.773060   3.798638   3.751143   4.773030
    39  Ir   3.240466   3.917566   2.925531   3.240448   3.917557
    40  H    5.981074   5.841348   4.589359   5.136294   4.565737
                   16         17         18         19         20
    16  N    0.000000
    17  N    4.193030   0.000000
    18  C    3.125857   3.125849   0.000000
    19  H    3.457748   3.457673   1.114818   0.000000
    20  H    3.122691   4.142348   1.111128   1.783422   0.000000
    21  H    4.142333   3.122720   1.111123   1.783415   1.766670
    22  C    1.479601   5.175368   3.608666   4.172139   3.169621
    23  H    2.105384   5.270360   3.097069   3.696889   2.382922
    24  H    2.136632   6.176113   4.573427   4.997739   4.054510
    25  H    2.108896   5.132612   4.011006   4.767561   3.658199
    26  C    1.487292   4.818042   3.265318   3.129335   3.208829
    27  H    2.134622   5.882655   4.285537   4.143065   4.054483
    28  H    2.121172   4.887673   2.671323   2.445195   2.431241
    29  H    2.119472   4.533810   3.530239   3.154847   3.779321
    30  C    5.175368   1.479595   3.608625   4.172015   4.517664
    31  H    6.176119   2.136633   4.573404   4.997622   5.530580
    32  H    5.270363   2.105386   3.097021   3.696741   3.938777
    33  H    5.132617   2.108891   4.010953   4.767449   4.754771
    34  C    4.818036   1.487293   3.265346   3.129268   4.375586
    35  H    4.887662   2.121176   2.671351   2.445085   3.752478
    36  H    5.882655   2.134625   4.285562   4.142991   5.394459
    37  H    4.533808   2.119479   3.530306   3.154856   4.588254
    38  H    2.810489   2.810486   2.132116   3.147470   2.425912
    39  Ir   2.122048   2.122047   2.093428   2.639616   2.761535
    40  H    6.407626   5.715891   7.669339   7.454303   8.475048
                   21         22         23         24         25
    21  H    0.000000
    22  C    4.517650   0.000000
    23  H    3.938756   1.100577   0.000000
    24  H    5.530552   1.110008   1.807663   0.000000
    25  H    4.754763   1.099987   1.795383   1.811463   0.000000
    26  C    4.375555   2.414733   2.632019   2.672608   3.370483
    27  H    5.394423   2.639522   2.966513   2.412083   3.656691
    28  H    3.752442   2.673761   2.414180   3.062102   3.664554
    29  H    4.588209   3.371987   3.650462   3.666363   4.205089
    30  C    3.169590   5.865740   5.819604   6.943120   5.642812
    31  H    4.054514   6.943128   6.917576   8.008340   6.715772
    32  H    2.382879   5.819624   5.567350   6.917582   5.683023
    33  H    3.658120   5.642803   5.682979   6.715761   5.222070
    34  C    3.208948   5.933847   5.900230   6.874148   6.125014
    35  H    2.431396   5.854422   5.619057   6.812467   6.130071
    36  H    4.054596   7.000254   6.978425   7.950428   7.127060
    37  H    3.779477   5.817367   5.886803   6.642421   6.139077
    38  H    2.425859   3.006498   2.902590   4.114806   2.785149
    39  Ir   2.761533   3.074078   3.243967   4.063046   3.186220
    40  H    8.263996   7.778242   8.489561   8.140021   7.925843
                   26         27         28         29         30
    26  C    0.000000
    27  H    1.109266   0.000000
    28  H    1.099109   1.807670   0.000000
    29  H    1.102542   1.804638   1.799502   0.000000
    30  C    5.933829   7.000235   5.854392   5.817342   0.000000
    31  H    6.874146   7.950422   6.812458   6.642413   1.110018
    32  H    5.900195   6.978390   5.619005   5.886746   1.100583
    33  H    6.125002   7.127050   6.130030   6.139069   1.099987
    34  C    5.008660   6.092993   4.936584   4.517007   2.414732
    35  H    4.936549   6.033841   4.624320   4.577480   2.673770
    36  H    6.093005   7.166420   6.033885   5.541734   2.639518
    37  H    4.517036   5.541742   4.577566   3.830940   3.371991
    38  H    3.837444   4.746528   3.737007   4.245342   3.006495
    39  Ir   2.948113   3.965963   3.103043   3.013489   3.074074
    40  H    6.577609   7.031148   7.388513   5.703120   6.983514
                   31         32         33         34         35
    31  H    0.000000
    32  H    1.807675   0.000000
    33  H    1.811467   1.795389   0.000000
    34  C    2.672612   2.632026   3.370482   0.000000
    35  H    3.062118   2.414195   3.664564   1.099110   0.000000
    36  H    2.412076   2.966515   3.656686   1.109272   1.807677
    37  H    3.666367   3.650477   4.205091   1.102549   1.799510
    38  H    4.114811   2.902614   2.785127   3.837467   3.737051
    39  Ir   4.063050   3.243971   3.186216   2.948115   3.103046
    40  H    7.088232   7.806260   7.237076   5.765985   6.733506
                   36         37         38         39         40
    36  H    0.000000
    37  H    1.804647   0.000000
    38  H    4.746547   4.245373   0.000000
    39  Ir   3.965969   3.013499   1.559640   0.000000
    40  H    5.924788   4.986220   7.428923   6.018995   0.000000
 Stoichiometry    C12H23IrN3O(1+)
 Framework group  C1[X(C12H23IrN3O)]
 Deg. of freedom   114
 Full point group                 C1      NOp   1
 Largest Abelian subgroup         C1      NOp   1
 Largest concise Abelian subgroup C1      NOp   1
                         Standard orientation:                         
 ---------------------------------------------------------------------
 Center     Atomic      Atomic             Coordinates (Angstroms)
 Number     Number       Type             X           Y           Z
 ---------------------------------------------------------------------
      1          6           0       -1.640069   -1.232281   -0.349476
      2          6           0       -1.696512    1.142066   -0.352666
      3          6           0       -2.958263   -1.314997    0.006749
      4          6           0       -3.017179    1.163001    0.003422
      5          6           0       -3.758341   -0.094051    0.207991
      6          1           0       -3.453517   -2.280547    0.148853
      7          1           0       -3.557767    2.104300    0.142968
      8          8           0       -4.951771   -0.121988    0.533518
      9          7           0       -1.011036   -0.029732   -0.533810
     10          6           0       -0.673888   -2.355137   -0.666562
     11          1           0       -0.504785   -2.367977   -1.759337
     12          1           0       -1.041958   -3.350009   -0.347930
     13          6           0       -0.784768    2.308710   -0.672818
     14          1           0       -0.616375    2.326632   -1.765635
     15          1           0       -1.199719    3.285810   -0.356841
     16          7           0        0.676920   -2.086042   -0.036645
     17          7           0        0.577246    2.105799   -0.042223
     18          6           0        2.626207    0.058981    1.133883
     19          1           0        2.246769    0.051409    2.182114
     20          1           0        3.314479   -0.808386    1.041351
     21          1           0        3.272529    0.957784    1.038930
     22          6           0        1.708316   -2.899016   -0.718196
     23          1           0        2.674254   -2.726147   -0.219848
     24          1           0        1.447704   -3.976744   -0.666197
     25          1           0        1.776904   -2.576852   -1.767709
     26          6           0        0.606487   -2.493751    1.391938
     27          1           0        0.383465   -3.578143    1.461398
     28          1           0        1.568048   -2.278018    1.878664
     29          1           0       -0.196092   -1.923146    1.887797
     30          6           0        1.568905    2.965061   -0.725950
     31          1           0        1.257351    4.029327   -0.676811
     32          1           0        2.541921    2.839625   -0.227165
     33          1           0        1.652834    2.643739   -1.774606
     34          6           0        0.487357    2.513488    1.385274
     35          1           0        1.458028    2.344989    1.872561
     36          1           0        0.213044    3.586244    1.451853
     37          1           0       -0.287263    1.906705    1.882660
     38          1           0        2.253353    0.047317   -0.965346
     39         77           0        0.946429    0.017372   -0.114738
     40          1           0       -4.975528    0.877729    0.532187
 ---------------------------------------------------------------------
 Rotational constants (GHZ):           0.5196452           0.3461298           0.2347580
 Standard basis: def2TZVPP (5D, 7F)
 There are   992 symmetry adapted cartesian basis functions of A   symmetry.
 There are   874 symmetry adapted basis functions of A   symmetry.
   874 basis functions,  1307 primitive gaussians,   992 cartesian basis functions
    70 alpha electrons       70 beta electrons
       nuclear repulsion energy      1556.2393039581 Hartrees.
 NAtoms=   40 NActive=   40 NUniq=   40 SFac= 1.00D+00 NAtFMM=   60 NAOKFM=F Big=F
 Integral buffers will be    131072 words long.
 Raffenetti 2 integral format.
 Two-electron integral symmetry is turned on.
 Nuclear repulsion after empirical dispersion term =     1556.1939182510 Hartrees.
 ------------------------------------------------------------------------------
 Polarizable Continuum Model (PCM)
 =================================
 Model                : PCM.
 Atomic radii         : UFF (Universal Force Field).
 Polarization charges : Total charges.
 Charge compensation  : None.
 Solution method      : On-the-fly selection.
 Cavity type          : Scaled VdW (van der Waals Surface) (Alpha=1.100).
 Cavity algorithm     : GePol (No added spheres)
                        Default sphere list used, NSphG=   40.
                        Lebedev-Laikov grids with approx.  5.0 points / Ang**2.
                        Smoothing algorithm: York/Karplus (Gamma=1.0000).
                        Polarization charges: spherical gaussians, with
                                              point-specific exponents (IZeta= 3).
                        Self-potential: point-specific (ISelfS= 7).
                        Self-field    : sphere-specific E.n sum rule (ISelfD= 2).
 1st derivatives      : Analytical E(r).r(x)/FMM algorithm (CHGder, D1EAlg=3).
                        Cavity 1st derivative terms included.
 Solvent              : Dichloromethane, Eps=   8.930000 Eps(inf)=   2.028346
 ------------------------------------------------------------------------------
 One-electron integrals computed using PRISM.
   1 Symmetry operations used in ECPInt.
 ECPInt:  NShTT=   54615 NPrTT=  140092 LenC2=   49490 LenP2D=   97111.
 LDataN:  DoStor=T MaxTD1= 9 Len=  602
 NBasis=   874 RedAO= T EigKep=  1.92D-05  NBF=   874
 NBsUse=   874 1.00D-06 EigRej= -1.00D+00 NBFU=   874
 Defaulting to unpruned grid for atomic number  77.
 ExpMin= 5.00D-02 ExpMax= 2.70D+04 ExpMxC= 9.22D+02 IAcc=3 IRadAn=         5 AccDes= 0.00D+00
 Harris functional with IExCor= 4639 and IRadAn=       5 diagonalized for initial guess.
 HarFok:  IExCor= 4639 AccDes= 0.00D+00 IRadAn=         5 IDoV= 1 UseB2=F ITyADJ=14
 ICtDFT=  3500011 ScaDFX=  1.000000  1.000000  1.000000  1.000000
 Defaulting to unpruned grid for atomic number  77.
 FoFCou: FMM=F IPFlag=           0 FMFlag=      100000 FMFlg1=           0
         NFxFlg=           0 DoJE=T BraDBF=F KetDBF=T FulRan=T
         wScrn=  0.000000 ICntrl=       500 IOpCl=  0 I1Cent=   200000004 NGrid=           0
         NMat0=    1 NMatS0=      1 NMatT0=    0 NMatD0=    1 NMtDS0=    0 NMtDT0=    0
 Petite list used in FoFCou.
 Requested convergence on RMS density matrix=1.00D-08 within 128 cycles.
 Requested convergence on MAX density matrix=1.00D-06.
 Requested convergence on             energy=1.00D-06.
 No special actions if energy rises.
 Defaulting to unpruned grid for atomic number  77.
 Defaulting to unpruned grid for atomic number  77.
 Defaulting to unpruned grid for atomic number  77.
 Defaulting to unpruned grid for atomic number  77.
 Defaulting to unpruned grid for atomic number  77.
 Defaulting to unpruned grid for atomic number  77.
 Inv3:  Mode=1 IEnd=    18870192.
 Iteration    1 A*A^-1 deviation from unit magnitude is 3.00D-15 for    588.
 Iteration    1 A*A^-1 deviation from orthogonality  is 1.96D-15 for   1937   1277.
 Iteration    1 A^-1*A deviation from unit magnitude is 3.22D-15 for    588.
 Iteration    1 A^-1*A deviation from orthogonality  is 1.86D-15 for   2446   1657.
 Error on total polarization charges =  0.01835
 SCF Done:  E(RwB97XD) =  -814.918428550     A.U. after   17 cycles
            NFock= 17  Conv=0.47D-08     -V/T= 2.0987

 **********************************************************************

            Population analysis using the SCF Density.

 **********************************************************************

 Orbital symmetries:
       Occupied  (A) (A) (A) (A) (A) (A) (A) (A) (A) (A) (A) (A)
                 (A) (A) (A) (A) (A) (A) (A) (A) (A) (A) (A) (A)
                 (A) (A) (A) (A) (A) (A) (A) (A) (A) (A) (A) (A)
                 (A) (A) (A) (A) (A) (A) (A) (A) (A) (A) (A) (A)
                 (A) (A) (A) (A) (A) (A) (A) (A) (A) (A) (A) (A)
                 (A) (A) (A) (A) (A) (A) (A) (A) (A) (A)
       Virtual   (A) (A) (A) (A) (A) (A) (A) (A) (A) (A) (A) (A)
                 (A) (A) (A) (A) (A) (A) (A) (A) (A) (A) (A) (A)
                 (A) (A) (A) (A) (A) (A) (A) (A) (A) (A) (A) (A)
                 (A) (A) (A) (A) (A) (A) (A) (A) (A) (A) (A) (A)
                 (A) (A) (A) (A) (A) (A) (A) (A) (A) (A) (A) (A)
                 (A) (A) (A) (A) (A) (A) (A) (A) (A) (A) (A) (A)
                 (A) (A) (A) (A) (A) (A) (A) (A) (A) (A) (A) (A)
                 (A) (A) (A) (A) (A) (A) (A) (A) (A) (A) (A) (A)
                 (A) (A) (A) (A) (A) (A) (A) (A) (A) (A) (A) (A)
                 (A) (A) (A) (A) (A) (A) (A) (A) (A) (A) (A) (A)
                 (A) (A) (A) (A) (A) (A) (A) (A) (A) (A) (A) (A)
                 (A) (A) (A) (A) (A) (A) (A) (A) (A) (A) (A) (A)
                 (A) (A) (A) (A) (A) (A) (A) (A) (A) (A) (A) (A)
                 (A) (A) (A) (A) (A) (A) (A) (A) (A) (A) (A) (A)
                 (A) (A) (A) (A) (A) (A) (A) (A) (A) (A) (A) (A)
                 (A) (A) (A) (A) (A) (A) (A) (A) (A) (A) (A) (A)
                 (A) (A) (A) (A) (A) (A) (A) (A) (A) (A) (A) (A)
                 (A) (A) (A) (A) (A) (A) (A) (A) (A) (A) (A) (A)
                 (A) (A) (A) (A) (A) (A) (A) (A) (A) (A) (A) (A)
                 (A) (A) (A) (A) (A) (A) (A) (A) (A) (A) (A) (A)
                 (A) (A) (A) (A) (A) (A) (A) (A) (A) (A) (A) (A)
                 (A) (A) (A) (A) (A) (A) (A) (A) (A) (A) (A) (A)
                 (A) (A) (A) (A) (A) (A) (A) (A) (A) (A) (A) (A)
                 (A) (A) (A) (A) (A) (A) (A) (A) (A) (A) (A) (A)
                 (A) (A) (A) (A) (A) (A) (A) (A) (A) (A) (A) (A)
                 (A) (A) (A) (A) (A) (A) (A) (A) (A) (A) (A) (A)
                 (A) (A) (A) (A) (A) (A) (A) (A) (A) (A) (A) (A)
                 (A) (A) (A) (A) (A) (A) (A) (A) (A) (A) (A) (A)
                 (A) (A) (A) (A) (A) (A) (A) (A) (A) (A) (A) (A)
                 (A) (A) (A) (A) (A) (A) (A) (A) (A) (A) (A) (A)
                 (A) (A) (A) (A) (A) (A) (A) (A) (A) (A) (A) (A)
                 (A) (A) (A) (A) (A) (A) (A) (A) (A) (A) (A) (A)
                 (A) (A) (A) (A) (A) (A) (A) (A) (A) (A) (A) (A)
                 (A) (A) (A) (A) (A) (A) (A) (A) (A) (A) (A) (A)
                 (A) (A) (A) (A) (A) (A) (A) (A) (A) (A) (A) (A)
                 (A) (A) (A) (A) (A) (A) (A) (A) (A) (A) (A) (A)
                 (A) (A) (A) (A) (A) (A) (A) (A) (A) (A) (A) (A)
                 (A) (A) (A) (A) (A) (A) (A) (A) (A) (A) (A) (A)
                 (A) (A) (A) (A) (A) (A) (A) (A) (A) (A) (A) (A)
                 (A) (A) (A) (A) (A) (A) (A) (A) (A) (A) (A) (A)
                 (A) (A) (A) (A) (A) (A) (A) (A) (A) (A) (A) (A)
                 (A) (A) (A) (A) (A) (A) (A) (A) (A) (A) (A) (A)
                 (A) (A) (A) (A) (A) (A) (A) (A) (A) (A) (A) (A)
                 (A) (A) (A) (A) (A) (A) (A) (A) (A) (A) (A) (A)
                 (A) (A) (A) (A) (A) (A) (A) (A) (A) (A) (A) (A)
                 (A) (A) (A) (A) (A) (A) (A) (A) (A) (A) (A) (A)
                 (A) (A) (A) (A) (A) (A) (A) (A) (A) (A) (A) (A)
                 (A) (A) (A) (A) (A) (A) (A) (A) (A) (A) (A) (A)
                 (A) (A) (A) (A) (A) (A) (A) (A) (A) (A) (A) (A)
                 (A) (A) (A) (A) (A) (A) (A) (A) (A) (A) (A) (A)
                 (A) (A) (A) (A) (A) (A) (A) (A) (A) (A) (A) (A)
                 (A) (A) (A) (A) (A) (A) (A) (A) (A) (A) (A) (A)
                 (A) (A) (A) (A) (A) (A) (A) (A) (A) (A) (A) (A)
                 (A) (A) (A) (A) (A) (A) (A) (A) (A) (A) (A) (A)
                 (A) (A) (A) (A) (A) (A) (A) (A) (A) (A) (A) (A)
                 (A) (A) (A) (A) (A) (A) (A) (A) (A) (A) (A) (A)
                 (A) (A) (A) (A) (A) (A) (A) (A) (A) (A) (A) (A)
                 (A) (A) (A) (A) (A) (A) (A) (A) (A) (A) (A) (A)
                 (A) (A) (A) (A) (A) (A) (A) (A) (A) (A) (A) (A)
                 (A) (A) (A) (A) (A) (A) (A) (A) (A) (A) (A) (A)
                 (A) (A) (A) (A) (A) (A) (A) (A) (A) (A) (A) (A)
                 (A) (A) (A) (A) (A) (A) (A) (A) (A) (A) (A) (A)
                 (A) (A) (A) (A) (A) (A) (A) (A) (A) (A) (A) (A)
                 (A) (A) (A) (A) (A) (A) (A) (A) (A) (A) (A) (A)
                 (A) (A) (A) (A) (A) (A) (A) (A) (A) (A) (A) (A)
                 (A) (A) (A) (A) (A) (A) (A) (A) (A) (A) (A) (A)
                 (A) (A) (A) (A) (A) (A) (A) (A) (A) (A) (A) (A)
 The electronic state is 1-A.
 Alpha  occ. eigenvalues --  -19.35991 -14.52737 -14.52674 -14.49966 -10.43371
 Alpha  occ. eigenvalues --  -10.38766 -10.38442 -10.36440 -10.36292 -10.34256
 Alpha  occ. eigenvalues --  -10.33627 -10.33606 -10.33568 -10.33375 -10.33328
 Alpha  occ. eigenvalues --  -10.26749  -3.78780  -2.12605  -2.11944  -2.10541
 Alpha  occ. eigenvalues --   -1.29262  -1.11142  -1.08043  -1.07051  -0.94283
 Alpha  occ. eigenvalues --   -0.92491  -0.85927  -0.84549  -0.83735  -0.83684
 Alpha  occ. eigenvalues --   -0.77692  -0.76205  -0.76094  -0.73230  -0.72559
 Alpha  occ. eigenvalues --   -0.69755  -0.65529  -0.63087  -0.61916  -0.60904
 Alpha  occ. eigenvalues --   -0.60384  -0.60014  -0.59164  -0.58760  -0.58642
 Alpha  occ. eigenvalues --   -0.56275  -0.54635  -0.54279  -0.53064  -0.51527
 Alpha  occ. eigenvalues --   -0.51471  -0.50051  -0.49856  -0.49576  -0.49520
 Alpha  occ. eigenvalues --   -0.48208  -0.47983  -0.47513  -0.46574  -0.46263
 Alpha  occ. eigenvalues --   -0.45741  -0.45503  -0.42195  -0.40010  -0.38469
 Alpha  occ. eigenvalues --   -0.37740  -0.35841  -0.31728  -0.30857  -0.29034
 Alpha virt. eigenvalues --   -0.02015   0.00790   0.03620   0.07589   0.08110
 Alpha virt. eigenvalues --    0.09324   0.10390   0.10483   0.11898   0.13045
 Alpha virt. eigenvalues --    0.13583   0.13791   0.13962   0.14197   0.15200
 Alpha virt. eigenvalues --    0.15428   0.15684   0.15846   0.16209   0.16524
 Alpha virt. eigenvalues --    0.17220   0.17518   0.18841   0.19052   0.20246
 Alpha virt. eigenvalues --    0.20303   0.20510   0.20599   0.21031   0.21166
 Alpha virt. eigenvalues --    0.21962   0.22702   0.22827   0.23752   0.24234
 Alpha virt. eigenvalues --    0.24483   0.24547   0.25117   0.26376   0.26977
 Alpha virt. eigenvalues --    0.28200   0.28459   0.28972   0.29513   0.29689
 Alpha virt. eigenvalues --    0.30160   0.30772   0.31131   0.31938   0.32255
 Alpha virt. eigenvalues --    0.33474   0.34402   0.34808   0.35189   0.35861
 Alpha virt. eigenvalues --    0.36091   0.37045   0.37400   0.37681   0.37837
 Alpha virt. eigenvalues --    0.38072   0.39353   0.39901   0.40086   0.40770
 Alpha virt. eigenvalues --    0.41040   0.41411   0.42490   0.42901   0.43000
 Alpha virt. eigenvalues --    0.43754   0.43832   0.44467   0.45264   0.45631
 Alpha virt. eigenvalues --    0.45904   0.46045   0.46445   0.47622   0.48139
 Alpha virt. eigenvalues --    0.48245   0.48757   0.48976   0.49193   0.49827
 Alpha virt. eigenvalues --    0.50046   0.50294   0.50472   0.50874   0.51458
 Alpha virt. eigenvalues --    0.51716   0.51924   0.52750   0.53046   0.53394
 Alpha virt. eigenvalues --    0.53534   0.54080   0.54823   0.55256   0.55547
 Alpha virt. eigenvalues --    0.56372   0.56750   0.57504   0.58243   0.58571
 Alpha virt. eigenvalues --    0.59124   0.59802   0.60342   0.60930   0.61333
 Alpha virt. eigenvalues --    0.61791   0.62713   0.63146   0.63423   0.64210
 Alpha virt. eigenvalues --    0.64930   0.65152   0.66903   0.67096   0.67756
 Alpha virt. eigenvalues --    0.69146   0.69635   0.70247   0.70949   0.71526
 Alpha virt. eigenvalues --    0.71998   0.72403   0.73643   0.74125   0.74592
 Alpha virt. eigenvalues --    0.74830   0.75379   0.78141   0.78912   0.79649
 Alpha virt. eigenvalues --    0.80380   0.81148   0.82867   0.83175   0.84215
 Alpha virt. eigenvalues --    0.84604   0.84831   0.85166   0.86338   0.86515
 Alpha virt. eigenvalues --    0.86841   0.88140   0.88573   0.89162   0.89667
 Alpha virt. eigenvalues --    0.90076   0.90519   0.91637   0.92740   0.92954
 Alpha virt. eigenvalues --    0.93507   0.94367   0.94671   0.96171   0.96331
 Alpha virt. eigenvalues --    0.97154   0.98631   0.99018   1.00123   1.01174
 Alpha virt. eigenvalues --    1.01289   1.01373   1.01921   1.03467   1.03629
 Alpha virt. eigenvalues --    1.03790   1.04348   1.04681   1.05117   1.05347
 Alpha virt. eigenvalues --    1.06241   1.06697   1.07465   1.07755   1.08382
 Alpha virt. eigenvalues --    1.08604   1.08962   1.09736   1.10095   1.11651
 Alpha virt. eigenvalues --    1.12082   1.13687   1.13876   1.14388   1.15132
 Alpha virt. eigenvalues --    1.15244   1.16390   1.17152   1.17554   1.18093
 Alpha virt. eigenvalues --    1.18529   1.19026   1.19909   1.20766   1.22163
 Alpha virt. eigenvalues --    1.22432   1.22886   1.23031   1.24953   1.25538
 Alpha virt. eigenvalues --    1.25696   1.26307   1.26742   1.27419   1.27573
 Alpha virt. eigenvalues --    1.28358   1.28775   1.30174   1.30403   1.31363
 Alpha virt. eigenvalues --    1.32686   1.32968   1.33930   1.34345   1.35439
 Alpha virt. eigenvalues --    1.35800   1.36202   1.36373   1.36926   1.38172
 Alpha virt. eigenvalues --    1.38437   1.38819   1.39010   1.39427   1.40351
 Alpha virt. eigenvalues --    1.40989   1.41721   1.41959   1.42550   1.43326
 Alpha virt. eigenvalues --    1.43540   1.44605   1.44771   1.45402   1.45818
 Alpha virt. eigenvalues --    1.46743   1.48254   1.50313   1.50446   1.51103
 Alpha virt. eigenvalues --    1.51439   1.51737   1.52796   1.53336   1.53477
 Alpha virt. eigenvalues --    1.54415   1.55313   1.56150   1.56473   1.56792
 Alpha virt. eigenvalues --    1.57375   1.58058   1.59220   1.59438   1.60120
 Alpha virt. eigenvalues --    1.60875   1.61104   1.61661   1.61867   1.62338
 Alpha virt. eigenvalues --    1.63535   1.64137   1.64864   1.65376   1.66202
 Alpha virt. eigenvalues --    1.66602   1.67445   1.67599   1.68736   1.69254
 Alpha virt. eigenvalues --    1.70132   1.70749   1.72119   1.72263   1.73663
 Alpha virt. eigenvalues --    1.74848   1.75166   1.75839   1.76656   1.77746
 Alpha virt. eigenvalues --    1.78537   1.80781   1.81198   1.81965   1.82027
 Alpha virt. eigenvalues --    1.82691   1.83530   1.84009   1.85641   1.86448
 Alpha virt. eigenvalues --    1.87300   1.88795   1.88838   1.89873   1.91221
 Alpha virt. eigenvalues --    1.91984   1.92141   1.94207   1.95451   1.96135
 Alpha virt. eigenvalues --    1.96735   1.97339   1.99563   2.00115   2.01849
 Alpha virt. eigenvalues --    2.04696   2.05976   2.07698   2.08161   2.08610
 Alpha virt. eigenvalues --    2.09717   2.12458   2.12557   2.14633   2.16078
 Alpha virt. eigenvalues --    2.17076   2.17790   2.19299   2.20505   2.20640
 Alpha virt. eigenvalues --    2.22419   2.24270   2.25583   2.26238   2.26768
 Alpha virt. eigenvalues --    2.28358   2.29033   2.29189   2.31428   2.33351
 Alpha virt. eigenvalues --    2.33703   2.34136   2.36249   2.37627   2.39163
 Alpha virt. eigenvalues --    2.40540   2.42264   2.44980   2.46626   2.47472
 Alpha virt. eigenvalues --    2.49676   2.51376   2.54115   2.55641   2.56835
 Alpha virt. eigenvalues --    2.58077   2.58315   2.60871   2.61449   2.61890
 Alpha virt. eigenvalues --    2.62678   2.64768   2.65476   2.66361   2.66644
 Alpha virt. eigenvalues --    2.67767   2.68079   2.69347   2.71190   2.71554
 Alpha virt. eigenvalues --    2.71669   2.72220   2.73608   2.75290   2.75514
 Alpha virt. eigenvalues --    2.76644   2.76877   2.77666   2.78380   2.79058
 Alpha virt. eigenvalues --    2.81380   2.82900   2.83333   2.84406   2.84648
 Alpha virt. eigenvalues --    2.85805   2.86552   2.86777   2.87385   2.88232
 Alpha virt. eigenvalues --    2.88476   2.89031   2.89308   2.90027   2.91307
 Alpha virt. eigenvalues --    2.91753   2.92103   2.92620   2.92736   2.92976
 Alpha virt. eigenvalues --    2.93447   2.94731   2.94834   2.95510   2.96211
 Alpha virt. eigenvalues --    2.96779   2.97400   2.97860   2.98205   2.98916
 Alpha virt. eigenvalues --    2.99279   3.00155   3.00307   3.00832   3.01645
 Alpha virt. eigenvalues --    3.02315   3.03306   3.03780   3.04569   3.05618
 Alpha virt. eigenvalues --    3.06388   3.06792   3.07463   3.07967   3.08248
 Alpha virt. eigenvalues --    3.08536   3.09759   3.10703   3.11164   3.11467
 Alpha virt. eigenvalues --    3.11840   3.12172   3.13613   3.14228   3.14614
 Alpha virt. eigenvalues --    3.15586   3.16409   3.16907   3.17247   3.17468
 Alpha virt. eigenvalues --    3.18922   3.19086   3.19900   3.20187   3.20649
 Alpha virt. eigenvalues --    3.21987   3.22340   3.23552   3.24221   3.24377
 Alpha virt. eigenvalues --    3.25267   3.26103   3.26256   3.26864   3.27479
 Alpha virt. eigenvalues --    3.29101   3.29868   3.30148   3.30357   3.31834
 Alpha virt. eigenvalues --    3.32054   3.32353   3.32989   3.33811   3.34484
 Alpha virt. eigenvalues --    3.34902   3.35122   3.35811   3.36112   3.37844
 Alpha virt. eigenvalues --    3.38176   3.39241   3.39629   3.39948   3.41022
 Alpha virt. eigenvalues --    3.41238   3.42534   3.43009   3.43548   3.44121
 Alpha virt. eigenvalues --    3.44270   3.44937   3.45387   3.45730   3.46308
 Alpha virt. eigenvalues --    3.48268   3.48918   3.49038   3.49463   3.50273
 Alpha virt. eigenvalues --    3.50421   3.50992   3.51454   3.53008   3.53535
 Alpha virt. eigenvalues --    3.53852   3.55141   3.55630   3.56512   3.56841
 Alpha virt. eigenvalues --    3.57036   3.57577   3.58468   3.59067   3.59720
 Alpha virt. eigenvalues --    3.60298   3.61115   3.62301   3.62664   3.62784
 Alpha virt. eigenvalues --    3.63930   3.64395   3.65734   3.65847   3.66105
 Alpha virt. eigenvalues --    3.66535   3.66947   3.68663   3.69990   3.70479
 Alpha virt. eigenvalues --    3.71079   3.71690   3.71956   3.72494   3.72910
 Alpha virt. eigenvalues --    3.73156   3.73653   3.73968   3.74551   3.76013
 Alpha virt. eigenvalues --    3.76527   3.77688   3.78215   3.78385   3.79734
 Alpha virt. eigenvalues --    3.80222   3.80363   3.81496   3.82330   3.83452
 Alpha virt. eigenvalues --    3.83686   3.84398   3.84649   3.85800   3.86439
 Alpha virt. eigenvalues --    3.87106   3.87611   3.88330   3.89588   3.90161
 Alpha virt. eigenvalues --    3.91918   3.92479   3.92819   3.94223   3.94777
 Alpha virt. eigenvalues --    3.96070   3.96404   3.97574   3.97666   3.99134
 Alpha virt. eigenvalues --    3.99809   4.00025   4.00283   4.00843   4.01767
 Alpha virt. eigenvalues --    4.02460   4.03348   4.03728   4.04411   4.07563
 Alpha virt. eigenvalues --    4.07821   4.08027   4.08765   4.09955   4.10843
 Alpha virt. eigenvalues --    4.11243   4.12413   4.12710   4.13433   4.13896
 Alpha virt. eigenvalues --    4.14319   4.14775   4.15989   4.16357   4.17369
 Alpha virt. eigenvalues --    4.17887   4.19004   4.19342   4.19590   4.19897
 Alpha virt. eigenvalues --    4.20459   4.21121   4.21605   4.21829   4.22533
 Alpha virt. eigenvalues --    4.22829   4.23247   4.23646   4.25416   4.26078
 Alpha virt. eigenvalues --    4.26292   4.27670   4.28206   4.28892   4.29107
 Alpha virt. eigenvalues --    4.29830   4.30519   4.30729   4.30906   4.32530
 Alpha virt. eigenvalues --    4.32603   4.33750   4.33976   4.34788   4.35616
 Alpha virt. eigenvalues --    4.35769   4.36588   4.37023   4.38188   4.38626
 Alpha virt. eigenvalues --    4.39311   4.40291   4.40978   4.41961   4.42488
 Alpha virt. eigenvalues --    4.43198   4.44965   4.45294   4.46031   4.46147
 Alpha virt. eigenvalues --    4.46847   4.48803   4.50104   4.50271   4.51342
 Alpha virt. eigenvalues --    4.51900   4.53294   4.54705   4.55322   4.56803
 Alpha virt. eigenvalues --    4.57321   4.58930   4.61874   4.62268   4.64963
 Alpha virt. eigenvalues --    4.65980   4.68506   4.68890   4.69212   4.72037
 Alpha virt. eigenvalues --    4.72345   4.73190   4.74140   4.74991   4.75836
 Alpha virt. eigenvalues --    4.76440   4.77514   4.77791   4.79086   4.80319
 Alpha virt. eigenvalues --    4.80576   4.82443   4.82567   4.82902   4.83121
 Alpha virt. eigenvalues --    4.84885   4.87620   4.89362   4.89569   4.90509
 Alpha virt. eigenvalues --    4.91256   4.92591   4.93262   4.95442   4.97151
 Alpha virt. eigenvalues --    5.00013   5.00932   5.01800   5.03220   5.03806
 Alpha virt. eigenvalues --    5.04568   5.05126   5.05661   5.07665   5.09251
 Alpha virt. eigenvalues --    5.09845   5.11593   5.11715   5.14023   5.15181
 Alpha virt. eigenvalues --    5.15369   5.15954   5.17140   5.18355   5.19261
 Alpha virt. eigenvalues --    5.20162   5.21170   5.21580   5.22374   5.22459
 Alpha virt. eigenvalues --    5.23159   5.23589   5.24574   5.25324   5.26659
 Alpha virt. eigenvalues --    5.27859   5.28112   5.28771   5.29227   5.29732
 Alpha virt. eigenvalues --    5.31075   5.31350   5.33551   5.34178   5.35016
 Alpha virt. eigenvalues --    5.35255   5.35543   5.35701   5.38280   5.38400
 Alpha virt. eigenvalues --    5.39336   5.40690   5.41064   5.41946   5.43304
 Alpha virt. eigenvalues --    5.44310   5.46221   5.46905   5.47394   5.48247
 Alpha virt. eigenvalues --    5.49163   5.49475   5.50047   5.51598   5.52777
 Alpha virt. eigenvalues --    5.53195   5.53769   5.55303   5.58707   5.59056
 Alpha virt. eigenvalues --    5.59923   5.61543   5.62427   5.64268   5.65126
 Alpha virt. eigenvalues --    5.65498   5.66507   5.66608   5.67188   5.70229
 Alpha virt. eigenvalues --    5.72079   5.72340   5.73320   5.75031   5.75277
 Alpha virt. eigenvalues --    5.76521   5.76627   5.77794   5.79181   5.79644
 Alpha virt. eigenvalues --    5.79789   5.80117   5.81679   5.83333   5.90659
 Alpha virt. eigenvalues --    5.91149   6.03346   6.06643   6.07465   6.07718
 Alpha virt. eigenvalues --    6.09390   6.09741   6.12447   6.16484   6.17005
 Alpha virt. eigenvalues --    6.24346   6.28422   6.29112   6.31814   6.34076
 Alpha virt. eigenvalues --    6.63644   6.66277   6.81459   6.81537   6.95216
 Alpha virt. eigenvalues --    7.26606   7.34118   7.54977  22.87158  23.06503
 Alpha virt. eigenvalues --   23.28223  23.36619  23.40169  23.47463  23.54097
 Alpha virt. eigenvalues --   23.69934  23.73434  23.75600  23.78611  23.82766
 Alpha virt. eigenvalues --   32.87247  32.87436  33.04535  37.50096  40.86105
 Alpha virt. eigenvalues --   41.89804  44.11582  59.84695 363.50046
          Condensed to atoms (all electrons):
               1          2          3          4          5          6
     1  C    5.053660  -0.069127   0.561738  -0.028178  -0.050085  -0.017260
     2  C   -0.069127   5.154459  -0.023399   0.422250  -0.024767  -0.001822
     3  C    0.561738  -0.023399   4.909130  -0.007459   0.470262   0.417666
     4  C   -0.028178   0.422250  -0.007459   5.160639   0.439528   0.009574
     5  C   -0.050085  -0.024767   0.470262   0.439528   4.609033  -0.037303
     6  H   -0.017260  -0.001822   0.417666   0.009574  -0.037303   0.496546
     7  H    0.000545   0.005553   0.001796   0.404718  -0.037988  -0.000121
     8  O    0.000967   0.007010  -0.048978  -0.072551   0.376241   0.003737
     9  N    0.357183   0.373137  -0.075171  -0.084794  -0.003353   0.003027
    10  C    0.244481  -0.004994  -0.063207  -0.000049   0.008357  -0.005122
    11  H   -0.027831   0.000903  -0.001247   0.000325  -0.000368   0.000172
    12  H   -0.052179  -0.000274  -0.001158  -0.000287   0.000818   0.000359
    13  C   -0.006014   0.226079   0.001958  -0.050408   0.002849   0.000094
    14  H    0.000962  -0.026522   0.000209  -0.002016  -0.000184   0.000000
    15  H   -0.000246  -0.051612  -0.000303  -0.002165   0.000931  -0.000004
    16  N   -0.017394   0.000890   0.005529   0.000170  -0.000533   0.000178
    17  N    0.000989  -0.012878  -0.000108   0.005147  -0.000126  -0.000002
    18  C    0.000357   0.000004  -0.000136  -0.000253  -0.000020   0.000006
    19  H   -0.000099  -0.000106   0.000079   0.000092   0.000002  -0.000000
    20  H   -0.000115  -0.000073  -0.000001  -0.000006   0.000001  -0.000000
    21  H   -0.000075  -0.000106  -0.000005   0.000002   0.000001  -0.000000
    22  C    0.012268   0.000053  -0.000318   0.000061   0.000007  -0.000015
    23  H   -0.000762  -0.000011   0.000029   0.000002  -0.000001  -0.000000
    24  H    0.001692   0.000006  -0.000002  -0.000004  -0.000000   0.000012
    25  H   -0.002272   0.000008  -0.000193  -0.000006   0.000010  -0.000007
    26  C    0.003334  -0.000058   0.002563  -0.000223  -0.000175  -0.000101
    27  H   -0.004886  -0.000059  -0.000312   0.000009  -0.000013   0.000010
    28  H   -0.000153   0.000048  -0.000031   0.000005   0.000013  -0.000007
    29  H    0.012077  -0.000280   0.003924   0.000267  -0.000335   0.000186
    30  C    0.000024   0.011515   0.000093  -0.000128  -0.000051   0.000001
    31  H    0.000007   0.001750  -0.000005   0.000011   0.000001  -0.000000
    32  H   -0.000010  -0.000738   0.000002   0.000030  -0.000000   0.000000
    33  H    0.000004  -0.002439  -0.000003  -0.000195   0.000007   0.000000
    34  C   -0.000159   0.003274  -0.000052   0.002702  -0.000284   0.000000
    35  H    0.000049  -0.000105   0.000001   0.000031   0.000013  -0.000000
    36  H   -0.000061  -0.004923   0.000009  -0.000465  -0.000006  -0.000000
    37  H   -0.000290   0.012332   0.000290   0.003839  -0.000347   0.000003
    38  H   -0.000622  -0.001022   0.000045  -0.000033  -0.000038   0.000002
    39  Ir  -0.050987  -0.051569  -0.002177  -0.003148   0.000800  -0.000372
    40  H   -0.000963   0.011217   0.001916  -0.026928  -0.053099  -0.000906
               7          8          9         10         11         12
     1  C    0.000545   0.000967   0.357183   0.244481  -0.027831  -0.052179
     2  C    0.005553   0.007010   0.373137  -0.004994   0.000903  -0.000274
     3  C    0.001796  -0.048978  -0.075171  -0.063207  -0.001247  -0.001158
     4  C    0.404718  -0.072551  -0.084794  -0.000049   0.000325  -0.000287
     5  C   -0.037988   0.376241  -0.003353   0.008357  -0.000368   0.000818
     6  H   -0.000121   0.003737   0.003027  -0.005122   0.000172   0.000359
     7  H    0.511822  -0.001558   0.003102   0.000034   0.000000  -0.000003
     8  O   -0.001558   7.611546   0.000509  -0.000074   0.000004  -0.000005
     9  N    0.003102   0.000509   6.580530  -0.001516  -0.006821   0.004022
    10  C    0.000034  -0.000074  -0.001516   4.904098   0.433127   0.446285
    11  H    0.000000   0.000004  -0.006821   0.433127   0.511876  -0.012347
    12  H   -0.000003  -0.000005   0.004022   0.446285  -0.012347   0.516079
    13  C   -0.005334  -0.000321  -0.000946  -0.002619  -0.000181   0.000088
    14  H    0.000089   0.000003  -0.006968  -0.000191  -0.000026  -0.000002
    15  H    0.000621   0.000009   0.004133   0.000088  -0.000002  -0.000000
    16  N   -0.000000   0.000001  -0.019352   0.257337  -0.032704  -0.025830
    17  N    0.000127   0.000003  -0.020245   0.000736   0.000089  -0.000038
    18  C    0.000006  -0.000000  -0.020022   0.000849  -0.000147   0.000055
    19  H   -0.000000  -0.000000   0.000391  -0.000270   0.000007  -0.000004
    20  H   -0.000000   0.000000   0.000564   0.000009   0.000004   0.000008
    21  H   -0.000000   0.000000   0.000558   0.000098  -0.000006   0.000001
    22  C    0.000001  -0.000000  -0.003220  -0.041549  -0.004259  -0.005124
    23  H    0.000000   0.000000   0.000066   0.008233   0.000291  -0.000324
    24  H   -0.000000  -0.000000   0.000075  -0.010593  -0.002362   0.004032
    25  H   -0.000000  -0.000000   0.000199  -0.003386   0.002329  -0.000191
    26  C    0.000000  -0.000001  -0.000274  -0.033956   0.005184  -0.012850
    27  H   -0.000000   0.000000   0.000412  -0.006325  -0.000125   0.005306
    28  H   -0.000000  -0.000000   0.000171   0.006108  -0.000100  -0.000115
    29  H    0.000003  -0.000007  -0.003916  -0.015376   0.000145  -0.002510
    30  C   -0.000004  -0.000000  -0.003162  -0.000233  -0.000005   0.000001
    31  H    0.000011   0.000000   0.000073   0.000006  -0.000000  -0.000000
    32  H   -0.000001   0.000000   0.000062  -0.000015  -0.000000   0.000000
    33  H   -0.000007  -0.000000   0.000225  -0.000015  -0.000002   0.000000
    34  C   -0.000092   0.000001  -0.000199   0.000133  -0.000004   0.000006
    35  H   -0.000008  -0.000000   0.000150  -0.000009  -0.000000   0.000000
    36  H    0.000009   0.000000   0.000425   0.000001   0.000000  -0.000000
    37  H    0.000191  -0.000007  -0.003875   0.000016   0.000000  -0.000001
    38  H    0.000002  -0.000000  -0.002915  -0.001465  -0.000389   0.000029
    39  Ir  -0.000358   0.000138   0.195770  -0.027829  -0.005126   0.009866
    40  H    0.007929   0.328927   0.000155   0.000033  -0.000001  -0.000000
              13         14         15         16         17         18
     1  C   -0.006014   0.000962  -0.000246  -0.017394   0.000989   0.000357
     2  C    0.226079  -0.026522  -0.051612   0.000890  -0.012878   0.000004
     3  C    0.001958   0.000209  -0.000303   0.005529  -0.000108  -0.000136
     4  C   -0.050408  -0.002016  -0.002165   0.000170   0.005147  -0.000253
     5  C    0.002849  -0.000184   0.000931  -0.000533  -0.000126  -0.000020
     6  H    0.000094   0.000000  -0.000004   0.000178  -0.000002   0.000006
     7  H   -0.005334   0.000089   0.000621  -0.000000   0.000127   0.000006
     8  O   -0.000321   0.000003   0.000009   0.000001   0.000003  -0.000000
     9  N   -0.000946  -0.006968   0.004133  -0.019352  -0.020245  -0.020022
    10  C   -0.002619  -0.000191   0.000088   0.257337   0.000736   0.000849
    11  H   -0.000181  -0.000026  -0.000002  -0.032704   0.000089  -0.000147
    12  H    0.000088  -0.000002  -0.000000  -0.025830  -0.000038   0.000055
    13  C    4.921773   0.431990   0.446491   0.000737   0.253857   0.001041
    14  H    0.431990   0.511575  -0.012340   0.000097  -0.032401  -0.000157
    15  H    0.446491  -0.012340   0.516549  -0.000039  -0.025764   0.000058
    16  N    0.000737   0.000097  -0.000039   6.360882  -0.007286  -0.005625
    17  N    0.253857  -0.032401  -0.025764  -0.007286   6.360856  -0.005625
    18  C    0.001041  -0.000157   0.000058  -0.005625  -0.005625   5.194899
    19  H   -0.000288   0.000006  -0.000004  -0.002040  -0.002048   0.391272
    20  H    0.000100  -0.000006   0.000001  -0.001268   0.000851   0.398504
    21  H    0.000012   0.000005   0.000008   0.000848  -0.001270   0.398481
    22  C   -0.000240  -0.000005   0.000001   0.256025   0.000397  -0.005837
    23  H   -0.000015  -0.000000   0.000000  -0.029784   0.000068  -0.002290
    24  H    0.000006  -0.000000  -0.000000  -0.018247  -0.000015   0.000204
    25  H   -0.000016  -0.000002   0.000000  -0.037995   0.000081   0.000416
    26  C    0.000139  -0.000004   0.000006   0.252317   0.000844  -0.004965
    27  H    0.000002   0.000000  -0.000000  -0.021001  -0.000030   0.000185
    28  H   -0.000011  -0.000000   0.000000  -0.032452   0.000163  -0.004648
    29  H    0.000015   0.000000  -0.000001  -0.033214   0.000320  -0.001544
    30  C   -0.040825  -0.004235  -0.005148   0.000396   0.255573  -0.005803
    31  H   -0.010770  -0.002352   0.004023  -0.000015  -0.018117   0.000202
    32  H    0.008194   0.000278  -0.000321   0.000067  -0.029733  -0.002287
    33  H   -0.003114   0.002338  -0.000192   0.000081  -0.038100   0.000410
    34  C   -0.034463   0.005241  -0.013078   0.000838   0.252490  -0.005026
    35  H    0.005944  -0.000097  -0.000127   0.000163  -0.032523  -0.004629
    36  H   -0.006187  -0.000133   0.005371  -0.000030  -0.021008   0.000185
    37  H   -0.015466   0.000145  -0.002496   0.000316  -0.033214  -0.001529
    38  H   -0.001170  -0.000423   0.000034  -0.006618  -0.006664   0.039807
    39  Ir  -0.026155  -0.005282   0.009955   0.192009   0.191978   0.220389
    40  H   -0.000522   0.000004   0.000022  -0.000001   0.000006   0.000000
              19         20         21         22         23         24
     1  C   -0.000099  -0.000115  -0.000075   0.012268  -0.000762   0.001692
     2  C   -0.000106  -0.000073  -0.000106   0.000053  -0.000011   0.000006
[...]
 00011612,0.00001171,0.00000753,0.00000233,0.00001640,-0.00006797,-0.00
 001810,0.00000331,0.00001978,-0.00000872,-0.00006916,-0.00020936,-0.00
 016654,-0.00001149,-0.00008169,0.00008267,-0.00000564,0.00001670,-0.00
 000264,0.00001697,0.00001831,-0.00000618,-0.00078735,0.00161156,0.0010
 6063,0.00056623,0.00023140,-0.00037243,0.00005951,-0.00016002,-0.00004
 718,-0.00004860,0.00030806,0.00001881,0.05576927,-0.29888716,-0.014075
 62,-0.00019578,-0.00342947,0.00020895,-0.06130737,0.32219762,-0.000036
 64,-0.00006347,-0.00002411,-0.00027664,0.00020018,0.00000160,-0.000018
 63,0.00005085,0.00000184,-0.00006103,-0.00005324,0.00001340,0.00003842
 ,0.00000860,0.00000707,-0.00000506,-0.00000309,-0.00000126,-0.00001015
 ,-0.00000091,0.00000200,-0.00008832,0.00000488,0.00000013,0.00040072,0
 .00006122,0.00011994,0.00020860,0.00001751,0.00011364,-0.00000982,0.00
 000739,-0.00001256,-0.00005271,-0.00002194,-0.00001166,0.00292882,-0.0
 0208508,0.00095127,0.00014723,0.00019069,0.00022745,-0.00088374,0.0002
 1266,0.00022026,-0.00007318,-0.00084325,0.00079582,0.00752337,-0.03723
 660,-0.01411705,-0.00012066,0.00030819,-0.00002994,0.00012735,-0.00003
 676,0.00014003,0.00002029,-0.00003968,0.00005673,0.00013690,-0.0000334
 4,0.00001257,-0.00016919,0.00008040,0.00013441,0.00001619,-0.00000004,
 0.00000001,0.00002533,-0.00006645,-0.00002539,0.00000689,0.00001526,-0
 .00001853,-0.00004331,-0.00019379,-0.00022137,-0.00002403,-0.00008390,
 0.00012847,0.00000780,-0.00000889,-0.00000476,-0.00001779,-0.00000364,
 -0.00000342,-0.00104958,-0.00312975,0.00180200,-0.00013895,0.00114702,
 0.00002981,0.00007528,0.00025181,-0.00010632,-0.00020773,0.00037083,0.
 00022275,0.00145761,-0.00753012,-0.05017986,-0.00116815,0.01218339,0.0
 0165391,-0.00368954,0.02113399,0.05989328,0.00011620,0.00008700,-0.000
 02111,0.00021006,-0.00021873,0.00012540,-0.00008507,0.00007386,0.00000
 249,0.00008487,0.00018044,0.00003335,-0.00005842,-0.00017828,-0.000020
 61,-0.00000132,0.00000499,0.00000489,-0.00000747,-0.00000002,-0.000002
 20,0.00005850,0.00003119,0.00000357,-0.00041822,-0.00000852,-0.0001762
 2,0.00001564,0.00000727,0.00000890,-0.00000899,0.00000692,-0.00000266,
 0.00000181,0.00000591,0.00000529,0.00048060,0.00055101,-0.00047065,0.0
 0006937,0.00005022,0.00014967,0.00008274,0.00010874,-0.00002903,-0.000
 00615,0.00011005,0.00003084,0.00027860,0.00142824,-0.00159679,0.000059
 72,-0.00001300,0.00013222,-0.00000606,-0.00004366,-0.00005232,0.000006
 08,0.00007159,-0.00001602,0.00009086,0.00000757,-0.00005746,-0.0000007
 5,0.00001225,-0.00002157,-0.00000434,-0.00000250,0.00000279,-0.0000022
 6,0.00000425,0.00000879,-0.00000101,0.00000273,0.00000399,-0.00003560,
 -0.00007930,0.00004482,0.00000903,-0.00001409,-0.00001646,-0.00001835,
 0.00001932,0.00000605,0.00003079,0.00001813,0.00000396,0.00053310,0.00
 055875,-0.00004391,-0.00004439,-0.00014955,-0.00000951,0.00049690,0.00
 003558,-0.00007681,0.00040892,-0.00026675,0.00013102,-0.18257518,-0.10
 296277,0.09065541,-0.01643103,-0.01578811,0.01402201,0.00583254,0.0046
 8069,-0.00452869,0.19128514,-0.00004722,-0.00005155,0.00002517,-0.0000
 0348,0.00025514,-0.00019792,0.00005073,-0.00004167,-0.00000131,0.00003
 047,-0.00003781,-0.00002928,-0.00003138,0.00005555,-0.00000844,0.00000
 653,-0.00000104,-0.00000021,0.00002559,-0.00000467,0.00003353,0.000053
 82,-0.00001527,-0.00001048,-0.00124331,-0.00279125,-0.00124416,-0.0000
 5007,-0.00000796,-0.00001743,0.00000243,-0.00000231,0.00000287,0.00000
 943,0.00000434,0.00000087,0.00000170,0.00038140,0.00031207,0.00016777,
 -0.00012986,-0.00002961,-0.00011614,-0.00037999,-0.00000345,-0.0000561
 2,0.00014476,0.00003489,0.00971638,0.00625548,-0.00680933,-0.00006717,
 0.00001886,-0.00005480,-0.00000727,0.00001011,0.00003713,-0.00002011,0
 .00000827,0.00002286,-0.00004357,-0.00001081,-0.00000571,0.00003918,0.
 00001803,-0.00001363,-0.00000185,-0.00000519,-0.00000113,-0.00001024,0
 .00002095,0.00000440,-0.00000009,-0.00000032,-0.00000070,0.00002092,0.
 00004091,0.00005274,0.00000013,0.00001412,0.00000320,0.00000148,-0.000
 00818,-0.00000076,-0.00001840,-0.00001537,-0.00001133,-0.00015090,-0.0
 0003842,-0.00130574,0.00009358,0.00044772,-0.00039477,-0.00006038,-0.0
 0017682,-0.00006565,0.00013550,0.00062881,-0.00034647,-0.10387605,-0.1
 2909239,0.07134055,0.00508615,0.00367969,-0.00401420,-0.02211638,-0.01
 422703,0.01441923,0.11081195,0.13482518,0.00000707,-0.00011751,-0.0000
 3166,-0.00055301,-0.00031508,-0.00005014,0.00002483,0.00005843,-0.0000
 1210,-0.00006414,-0.00000426,0.00004653,-0.00016108,-0.00004099,-0.000
 01349,0.00000349,0.00000297,0.00000328,0.00000989,-0.00000069,0.000007
 16,0.00011214,0.00000288,-0.00000401,-0.00008450,-0.00098486,-0.000237
 67,0.00005132,-0.00002475,0.00004162,-0.00001415,0.00000592,-0.0000060
 4,-0.00001879,0.00000252,-0.00000539,0.00157019,0.00052952,0.00077739,
 0.00009947,-0.00000573,0.00019955,-0.00022057,0.00014727,-0.00008781,-
 0.00004016,-0.00029196,-0.00009920,0.02531687,0.01769558,-0.02128114,-
 0.00001165,0.00000786,-0.00007405,-0.00004098,-0.00003958,-0.00001427,
 -0.00000489,-0.00000481,0.00000889,-0.00004900,0.00001776,-0.00000073,
 -0.00002754,-0.00002081,0.00000862,0.00000062,-0.00000173,0.00000164,0
 .00001178,-0.00001134,-0.00001153,0.00000523,-0.00000487,-0.00001183,-
 0.00000941,0.00002169,-0.00002864,-0.00000049,0.00000438,-0.00000308,0
 .00000177,0.00000140,0.00000767,0.00000667,0.00001328,0.00001950,-0.00
 170403,-0.00326714,-0.00578773,-0.00015394,0.00006483,0.00006558,0.000
 04139,-0.00013706,0.00022154,0.00136342,0.00117649,-0.00093758,0.08292
 831,0.06486087,-0.10789505,-0.00836903,-0.00795176,0.00775499,-0.00187
 667,-0.00078625,0.00192435,-0.09898384,-0.07126515,0.12530333,0.000948
 85,0.00132205,-0.00063519,0.00097284,-0.00137572,-0.00065358,-0.000249
 98,0.00027771,-0.00021779,-0.00028839,-0.00028794,-0.00021970,0.000406
 77,0.00003354,0.00007282,0.00000928,-0.00001380,0.00000660,0.00000604,
 0.00001328,0.00000492,-0.00044727,0.00002448,0.00002190,-0.00188152,0.
 00006611,0.00610180,0.00016077,-0.00003068,0.00035176,-0.00001287,-0.0
 0017444,-0.00000717,0.00002555,0.00000470,-0.00001140,0.00018589,0.000
 02777,0.00032939,-0.00001052,0.00017812,-0.00000318,0.00002494,-0.0000
 0372,-0.00000797,0.00000096,-0.00012389,0.00069157,-0.00000126,0.00012
 288,0.00062936,0.00156134,-0.00009420,-0.00597780,-0.00062277,0.000019
 74,0.00074373,0.00033995,-0.00014470,0.00073153,0.00033540,0.00017451,
 0.00074109,0.00000293,0.00019253,0.00004443,0.00000906,-0.00005315,-0.
 00003211,0.00002416,-0.00001029,-0.00006589,0.00007720,-0.00005326,-0.
 00011048,-0.00072185,-0.00004344,-0.00009961,0.00023006,-0.00007387,0.
 00004107,0.00019365,-0.00000753,-0.00000383,0.00012559,0.00008387,-0.0
 0026211,-0.00001955,-0.00015916,0.00005917,0.00002485,0.00001233,-0.00
 006797,0.00000825,0.00005893,-0.00002927,0.00003598,0.00002621,-0.0001
 1328,-0.00061240,0.00002446,-0.00026492,0.00019291,0.00000504,-0.00000
 141,0.00023068,0.00007221,0.00003975,0.00009823,-0.00002887,-0.0002380
 3,0.02329648,0.00002632,-0.00013407,0.00008796,-0.00004263,-0.00012253
 ,-0.00007933,0.00014107,-0.00000150,-0.00005627,-0.00013183,0.00001191
 ,0.00005558,-0.00001166,0.00012295,-0.00000035,0.00000269,-0.00000123,
 0.00000013,-0.00000184,-0.00000194,0.00000180,0.00001572,-0.00000577,0
 .00000202,-0.00001086,0.00034996,-0.00008392,0.00011847,0.00041710,0.0
 0008865,-0.00011916,-0.00004000,-0.00014779,0.00012391,0.00007178,-0.0
 0006655,-0.00014544,0.00042826,-0.00005786,0.00009815,0.00000026,0.000
 15447,-0.00012343,0.00007442,0.00006331,-0.00081671,0.00196945,0.00644
 669,0.00086617,0.00201879,-0.00645379,-0.00000926,0.00021998,0.0000805
 7,0.00000155,0.00009031,-0.00000574,-0.00008297,0.00013179,0.00026329,
 0.00007519,0.00012718,-0.00027765,-0.00000696,-0.00000371,-0.00000598,
 0.00000649,0.00004857,-0.00003135,-0.00003501,0.00025526,0.00003216,0.
 00009619,-0.00059297,-0.00000497,-0.00018958,0.00001223,-0.00033375,0.
 00007256,-0.00053128,0.00006869,-0.00020214,0.00014509,-0.00019649,0.0
 0036287,0.00008890,-0.00047814,0.00002067,0.00000236,0.00001179,0.0000
 3947,0.00024967,-0.00003175,-0.00000720,0.00005012,0.00003154,-0.00009
 635,-0.00056226,-0.00000250,0.00019037,0.00005868,0.00046346,0.0001981
 5,0.00013999,0.00019912,-0.00007654,-0.00054013,-0.00007777,-0.0003631
 7,0.00002896,0.00045897,0.00001894,0.01800795,0.00036669,0.00017823,-0
 .00011933,0.00037317,-0.00019168,-0.00012139,0.,0.00011829,-0.00002621
 ,-0.00000781,-0.00012111,-0.00002548,-0.00000634,0.00000996,-0.0000089
 8,0.00002617,-0.00000137,-0.00001062,0.00002930,-0.00000063,-0.0000103
 6,-0.00000128,0.00000104,0.00001480,-0.00079008,0.00002074,0.00143634,
 -0.00013195,0.00031267,-0.00030562,0.00005672,0.00002447,0.00006712,0.
 00013356,0.00005408,0.00008067,-0.00014769,-0.00029825,-0.00028264,0.0
 0003243,-0.00000030,0.00006306,0.00013457,-0.00005516,0.00008166,0.000
 28146,0.00054729,0.00009281,0.00027333,-0.00052852,0.00008340,-0.00065
 030,-0.00001969,-0.00192132,-0.00096500,0.00000888,0.00068706,-0.00052
 824,0.00014550,-0.00001251,-0.00053150,-0.00014640,0.00001836,0.000305
 59,-0.00021200,-0.00053861,0.00000983,-0.00004601,-0.00000874,-0.00009
 430,0.00008992,0.00026036,-0.00001536,0.00003218,0.00025676,-0.0000608
 5,-0.00002725,-0.00004559,0.00005063,0.00010503,0.00000512,0.00010406,
 -0.00009171,0.00001852,-0.00011233,0.00003660,0.00000157,0.00032307,0.
 00019244,-0.00053290,-0.00009595,-0.00009198,0.00025519,0.00000834,0.0
 0004896,-0.00000406,-0.00000785,-0.00003655,0.00024478,-0.00003242,0.0
 0001377,-0.00006801,0.00010162,0.00009078,0.00002042,0.00004907,-0.000
 10548,0.00000346,-0.00011586,-0.00003661,0.00000030,-0.04974533,0.0000
 8855,0.22199444,-0.01849566,-0.02080487,-0.00328998,-0.01801466,0.0210
 9679,-0.00334910,0.00230254,0.00250445,-0.00048354,0.00209910,-0.00271
 044,-0.00048176,-0.00112672,0.00032363,0.00004621,0.00069733,0.0000893
 8,0.00008281,0.00077981,-0.00012722,0.00006880,-0.00079618,0.00003816,
 -0.00001230,-0.06800549,0.00047139,-0.00609032,-0.00670570,-0.01461572
 ,0.00116929,0.00009210,0.00019978,-0.00023403,-0.00306006,0.00020740,-
 0.00159512,-0.00667781,0.01445266,0.00122919,0.00012993,-0.00022053,-0
 .00023336,-0.00307452,-0.00017385,-0.00160280,-0.04399773,0.01171162,-
 0.00189397,-0.04421882,-0.01173445,-0.00178528,-0.10391030,0.00021122,
 0.00058674,0.00189450,-0.00007775,-0.00640320,-0.00967798,0.00136715,-
 0.00355235,-0.01001452,-0.00123782,-0.00372303,0.00520321,0.00961596,-
 0.00118222,-0.00068848,0.00111137,-0.00014793,-0.00179319,0.00251405,0
 .00121648,0.00013456,0.00038691,0.00002417,0.00413975,-0.00011587,-0.0
 0191185,0.00001749,0.00058889,-0.00054038,-0.00027516,0.00111642,-0.00
 075106,-0.00057782,-0.00186655,0.00110936,0.00515144,-0.00981434,-0.00
 115165,-0.00183720,-0.00250605,0.00119232,-0.00073046,-0.00111104,-0.0
 0017866,0.00013491,-0.00039203,0.00001263,0.00240017,0.00258643,-0.000
 71839,-0.00027176,-0.00111513,-0.00074910,0.00001339,-0.00055664,-0.00
 049153,-0.00052906,0.00169166,0.00109065,-0.02469275,-0.00000062,0.051
 38739,0.34412179,-0.01674747,0.00119606,-0.00080793,0.01687146,0.00075
 356,0.00085127,0.00038812,-0.00495931,0.00023290,-0.00045080,-0.004848
 06,-0.00020773,-0.00002802,0.00186929,-0.00001649,-0.00078221,0.000214
 30,0.00021050,0.00082061,0.00018587,-0.00020333,-0.00000279,-0.0003708
 5,0.00000654,0.00074482,-0.04184449,-0.00013025,-0.01636970,-0.0094912
 0,-0.00547929,0.00081747,-0.00008948,0.00055089,0.00141282,0.00066786,
 -0.00018366,0.01646037,-0.00980687,0.00553578,-0.00082555,-0.00006948,
 -0.00056513,-0.00138644,0.00068741,0.00019968,0.00309292,-0.05019550,-
 0.00549298,-0.00305919,-0.05049008,0.00548485,-0.00012847,-0.06523038,
 0.00011373,-0.00039769,0.00000457,0.00001262,0.01863964,0.00518015,0.0
 0781801,-0.01801694,0.00505094,-0.00776606,0.00492089,-0.01376006,-0.0
 0426739,-0.00103073,0.00034920,0.00046526,-0.00052098,0.00080723,0.000
 37710,-0.00106118,0.00012797,0.00137843,-0.00053892,-0.01486118,0.0082
 2189,-0.00021663,0.00257576,-0.00081997,0.00017110,-0.00094221,-0.0006
 6771,-0.00135531,-0.00021194,-0.00002205,-0.00509131,-0.01365473,0.004
 14955,0.00055012,0.00081979,-0.00038621,0.00098849,0.00035207,-0.00046
 086,0.00107023,0.00014014,-0.00136831,0.00277361,-0.01390816,-0.009844
 49,-0.00019299,-0.00093981,0.00065270,0.00020685,0.00260000,0.00085478
 ,0.00122024,0.00019099,0.00019701,-0.00003717,-0.02258498,-0.00010326,
 -0.00294801,0.29449403,-0.00239087,-0.00613670,0.00531923,-0.00246961,
 0.00629078,0.00535981,0.00081230,0.00092857,0.00377416,0.00087536,-0.0
 0090009,0.00391363,-0.00067010,0.00000227,-0.00084639,0.00028276,0.000
 00906,0.00009857,0.00031824,-0.00002002,0.00013965,0.00034814,-0.00001
 133,-0.00018640,-0.00045670,-0.00060432,-0.03321370,-0.00267395,-0.005
 84683,-0.00060739,0.00050003,-0.00024800,0.00002497,-0.00166085,-0.000
 01692,-0.00019069,-0.00270136,0.00588768,-0.00071551,0.00051266,0.0002
 6679,0.00003476,-0.00170744,0.00003916,-0.00019402,-0.00255360,-0.0001
 9148,-0.04772400,-0.00251348,0.00043162,-0.04783366,-0.01502810,-0.000
 18015,-0.05199103,-0.01956505,0.00013620,-0.00481400,0.00550734,0.0017
 8269,0.00330438,0.00591459,-0.00182474,0.00351043,-0.00124464,-0.00811
 402,-0.00002495,-0.00013614,0.00029690,0.00011498,0.00103670,-0.001493
 12,-0.00010488,-0.00026778,-0.00109150,0.00027875,0.00320234,0.0155973
 8,0.00342925,0.00053009,0.00211401,-0.00368324,-0.00016205,0.00141813,
 0.00005730,0.00081170,0.00071586,0.00005324,-0.00117900,0.00795564,0.0
 0001937,0.00103951,0.00146953,-0.00007187,-0.00012498,-0.00031301,0.00
 011159,-0.00026160,0.00109031,0.00027531,0.00342910,-0.01675173,0.0012
 0903,-0.00016965,-0.00144465,0.00003184,0.00055174,-0.00208998,-0.0037
 0069,0.00086819,-0.00043185,0.00020270,0.04814825,-0.00020394,-0.22163
 729,-0.01666406,0.00148171,0.38631266,-0.00006169,0.00218334,0.0002891
 7,-0.00119617,0.00095722,0.00005792,-0.00540895,-0.00290504,0.00029593
 ,0.00395745,0.00193783,-0.00001444,-0.02984660,0.04701123,0.00072758,0
 .00010513,-0.00010795,-0.00004658,0.00053826,-0.00214117,0.00057243,-0
 .10945341,0.13874751,0.00302381,0.00084195,-0.00123367,-0.00011284,-0.
 00029340,-0.00019839,-0.00017530,0.00006195,-0.00003273,0.00003291,0.0
 0003268,-0.00003945,0.00000523,0.00005271,-0.00028639,-0.00008155,0.00
 009437,0.00004711,0.00001874,0.00000740,-0.00000984,0.00002020,-0.0000
 6856,0.00000971,0.00004218,0.00014313,0.00013926,-0.00004996,0.0000626
 2,0.00002391,0.00005406,0.00005900,0.00000020,0.00003140,0.00005299,-0
 .00002163,0.00000146,0.00005672,0.00001646,0.00000529,-0.00005750,0.00
 002752,0.00003157,0.00000566,0.00000740,0.00000426,-0.00000060,-0.0000
 2028,-0.00000493,-0.00000236,0.00000200,0.00000094,0.00000454,0.000023
 41,-0.00004106,-0.00000474,-0.00001873,0.00000486,0.00000577,0.0000027
 0,0.00000265,-0.00000054,0.00000515,-0.00001588,0.00000435,-0.00008174
 ,0.00012353,-0.00001043,0.00001903,-0.00000485,0.00003628,0.00001544,-
 0.00001001,-0.00000760,-0.00000007,0.00000044,0.00003682,-0.00005500,-
 0.00008901,0.00001497,0.00000285,0.00001593,-0.00001148,0.00001876,0.0
 0000451,-0.00001600,0.00000360,-0.00001923,0.00003252,-0.00000159,-0.0
 0000658,-0.00013998,0.00003874,-0.00008800,0.14037274,0.00096806,0.000
 09586,-0.00006384,0.00054882,-0.00109620,-0.00002567,-0.00233983,0.002
 50649,0.00007865,-0.00567199,0.00326142,0.00018053,-0.00090812,0.00233
 724,-0.00007366,-0.00016059,0.00034439,0.00003335,0.00044294,-0.000799
 58,0.00036587,0.19206367,-0.46227995,-0.00459247,-0.00033780,-0.000039
 82,0.00015085,-0.00000618,-0.00001986,0.00002695,-0.00000738,-0.000011
 69,-0.00001485,-0.00000300,0.00000352,-0.00000512,-0.00006659,0.000095
 05,0.00001713,-0.00000985,0.00000756,-0.00001322,-0.00002390,-0.000047
 32,-0.00001340,-0.00002640,0.00002800,0.00001224,-0.00001359,-0.000053
 82,0.00000972,-0.00003080,0.00001137,-0.00004167,-0.00005076,0.0000006
 5,-0.00002491,-0.00004914,0.00001089,0.00000056,-0.00004653,-0.0000135
 1,0.00000457,0.00002103,-0.00002648,-0.00004349,-0.00001097,-0.0000010
 2,0.00000131,0.00000194,0.00001527,0.00000320,0.00000221,-0.00000273,-
 0.00000110,-0.00001015,-0.00001883,0.00004557,0.00000633,0.00001285,-0
 .00000648,-0.00000527,-0.00000155,-0.00000165,0.00000399,-0.00000333,0
 .00000891,0.00002079,0.00002565,-0.00004292,-0.00000115,-0.00001994,0.
 00000288,-0.00000886,0.00000081,0.00000321,0.00000102,0.00000464,-0.00
 000176,-0.00000433,0.00002040,0.00004804,-0.00000123,0.00000146,-0.000
 00224,0.00000075,-0.00001885,-0.00000705,-0.00000043,0.00000863,0.0000
 0669,-0.00004361,0.00000045,-0.00000541,-0.00015640,-0.00000840,0.0000
 0009,-0.18408670,0.45567028,0.00000081,-0.00019374,0.00183338,0.000030
 74,-0.00009621,-0.00066258,0.00045361,0.00012972,0.00351764,-0.0001395
 9,0.00005883,-0.00075666,0.00114163,-0.00182436,-0.00332886,-0.0000260
 7,0.00003854,-0.00060592,0.00050530,0.00034167,0.00004363,0.00268174,-
 0.00258028,-0.00641147,-0.00005492,0.00014942,-0.00001508,-0.00002112,
 -0.00000454,-0.00039328,0.00007470,-0.00007812,-0.00000128,-0.00001654
 ,0.00003176,0.00001323,0.00001722,0.00002391,0.00010122,-0.00000907,-0
 .00002018,-0.00000643,0.00001021,-0.00000195,0.00000687,0.00000226,0.0
 0003735,-0.00002556,-0.00000687,0.00000203,-0.00000631,-0.00000312,-0.
 00000299,0.00001225,-0.00000301,0.00000129,-0.00000646,-0.00000405,0.0
 0000209,-0.00000074,-0.00000382,0.00000137,-0.00000145,-0.00000338,-0.
 00000070,-0.00000559,-0.00000342,0.00000020,0.00000370,0.00000027,0.00
 000096,0.00000113,0.00000072,-0.00000052,0.00000139,-0.00001690,-0.000
 00211,0.00002544,-0.00000008,0.00000265,-0.00000288,-0.00000019,-0.000
 00003,-0.00000371,0.00000434,-0.00000426,-0.00000043,-0.00000592,-0.00
 000077,-0.00000271,0.00000174,-0.00000025,0.00000301,-0.00000203,0.000
 00038,-0.00000059,0.00000400,-0.00000079,-0.00000383,-0.00000922,0.000
 00870,0.00002594,0.00000096,-0.00000118,-0.00000501,-0.00000210,-0.000
 00415,0.00000070,-0.00000196,0.00001062,-0.00000151,0.00000892,-0.0000
 0287,-0.00000652,0.00000095,-0.00000211,-0.00003589,-0.00460676,0.0039
 8060,0.00670122\\-0.00000216,-0.00000192,-0.00000045,0.00000456,0.0000
 0157,-0.00000435,-0.00000010,0.00000296,0.00000149,0.00000218,-0.00000
 469,-0.00000667,-0.00001969,-0.00000089,0.00000153,0.00000060,0.000000
 47,0.00000284,0.00000010,-0.00000031,-0.00000336,0.00002165,0.00000687
 ,-0.00000944,0.00001524,-0.00001260,-0.00001422,-0.00000341,0.00000368
 ,0.00000406,0.00000076,-0.00000260,0.00000304,0.00000069,-0.00000063,0
 .00000493,0.00000276,-0.00000528,-0.00000155,0.00000088,-0.00000239,-0
 .00000561,0.00000203,0.00000088,-0.00000651,0.00000630,-0.00000003,0.0
 0001803,0.00000013,-0.00000072,0.00000584,0.00002779,-0.00000567,-0.00
 002164,-0.00001125,0.00000256,0.00000655,-0.00000223,0.00000274,0.0000
 0526,0.00000164,-0.00000597,0.00000391,0.00000352,0.00000063,-0.000000
 83,-0.00000254,-0.00000230,0.00000691,-0.00000107,-0.00000160,0.000008
 26,0.00000030,-0.00000404,0.00000702,0.00000036,-0.00000550,-0.0000029
 7,-0.00000207,0.00000407,0.00000555,-0.00000217,0.00000539,0.00000562,
 -0.00000128,0.00000458,0.00000303,0.00000673,-0.00000633,-0.00001040,0
 .00000075,-0.00000084,-0.00000572,-0.00000145,0.00000069,-0.00000319,0
 .00000114,-0.00000268,-0.00000189,0.00000015,0.00000642,-0.00000890,-0
 .00000120,0.00000065,-0.00000225,-0.00000007,0.00000175,-0.00000660,-0
 .00000022,0.00000300,-0.00000391,-0.00000063,-0.00000296,0.00001061,-0
 .00004389,0.00002257,0.00001703,-0.00000484,-0.00000152,-0.00000107\\\
 @
 The archive entry for this job was punched.


 HIGGLEDY-PIGGLEDY
 NIC'LAUS COPERNICUS
 LOOKED AT THE UNIVERSE,
 SPOKE TO THE THRONG;
 GIVE UP YOUR PTOLOMY,
 RISE UP AND FOLLOW ME,
 HELIOCENTRICALLY
 PTOLEMY'S WRONG.
   -- NANCY L. STARK
 Job cpu time:       1 days 13 hours 49 minutes 50.0 seconds.
 Elapsed time:       0 days  6 hours 19 minutes 51.9 seconds.
 File lengths (MBytes):  RWF=   2019 Int=      0 D2E=      0 Chk=     72 Scr=      1
 Normal termination of Gaussian 16 at Fri Mar 29 11:27:27 2024.
