 Entering Gaussian System, Link 0=/cm/shared/apps//g16/g16
 Input=HZIrMeH_sigma.gjf
 Output=HZIrMeH_sigma.log
 Initial command:
 /cm/shared/apps//g16/l1.exe "/local/mvanvleet/pbs.14634.josephine/Gau-3321731.inp" -scrdir="/local/mvanvleet/pbs.14634.josephine/"
 Entering Link 1 = /cm/shared/apps//g16/l1.exe PID=   3321734.
  
 Copyright (c) 1988-2019, Gaussian, Inc.  All Rights Reserved.
  
 This is part of the Gaussian(R) 16 program.  It is based on
 the Gaussian(R) 09 system (copyright 2009, Gaussian, Inc.),
 the Gaussian(R) 03 system (copyright 2003, Gaussian, Inc.),
 the Gaussian(R) 98 system (copyright 1998, Gaussian, Inc.),
 the Gaussian(R) 94 system (copyright 1995, Gaussian, Inc.),
 the Gaussian 92(TM) system (copyright 1992, Gaussian, Inc.),
 the Gaussian 90(TM) system (copyright 1990, Gaussian, Inc.),
 the Gaussian 88(TM) system (copyright 1988, Gaussian, Inc.),
 the Gaussian 86(TM) system (copyright 1986, Carnegie Mellon
 University), and the Gaussian 82(TM) system (copyright 1983,
 Carnegie Mellon University). Gaussian is a federally registered
 trademark of Gaussian, Inc.
  
 This software contains proprietary and confidential information,
 including trade secrets, belonging to Gaussian, Inc.
  
 This software is provided under written license and may be
 used, copied, transmitted, or stored only in accord with that
 written license.
  
 The following legend is applicable only to US Government
 contracts under FAR:
  
                    RESTRICTED RIGHTS LEGEND
  
 Use, reproduction and disclosure by the US Government is
 subject to restrictions as set forth in subparagraphs (a)
 and (c) of the Commercial Computer Software - Restricted
 Rights clause in FAR 52.227-19.
  
 Gaussian, Inc.
 340 Quinnipiac St., Bldg. 40, Wallingford CT 06492
  
  
 ---------------------------------------------------------------
 Warning -- This program may not be used in any manner that
 competes with the business of Gaussian, Inc. or will provide
 assistance to any competitor of Gaussian, Inc.  The licensee
 of this program is prohibited from giving any competitor of
 Gaussian, Inc. access to this program.  By using this program,
 the user acknowledges that Gaussian, Inc. is engaged in the
 business of creating and licensing software in the field of
 computational chemistry and represents and warrants to the
 licensee that it is not a competitor of Gaussian, Inc. and that
 it will not use this program in any manner prohibited above.
 ---------------------------------------------------------------
  

 Cite this work as:
 Gaussian 16, Revision C.01,
 M. J. Frisch, G. W. Trucks, H. B. Schlegel, G. E. Scuseria, 
 M. A. Robb, J. R. Cheeseman, G. Scalmani, V. Barone, 
 G. A. Petersson, H. Nakatsuji, X. Li, M. Caricato, A. V. Marenich, 
 J. Bloino, B. G. Janesko, R. Gomperts, B. Mennucci, H. P. Hratchian, 
 J. V. Ortiz, A. F. Izmaylov, J. L. Sonnenberg, D. Williams-Young, 
 F. Ding, F. Lipparini, F. Egidi, J. Goings, B. Peng, A. Petrone, 
 T. Henderson, D. Ranasinghe, V. G. Zakrzewski, J. Gao, N. Rega, 
 G. Zheng, W. Liang, M. Hada, M. Ehara, K. Toyota, R. Fukuda, 
 J. Hasegawa, M. Ishida, T. Nakajima, Y. Honda, O. Kitao, H. Nakai, 
 T. Vreven, K. Throssell, J. A. Montgomery, Jr., J. E. Peralta, 
 F. Ogliaro, M. J. Bearpark, J. J. Heyd, E. N. Brothers, K. N. Kudin, 
 V. N. Staroverov, T. A. Keith, R. Kobayashi, J. Normand, 
 K. Raghavachari, A. P. Rendell, J. C. Burant, S. S. Iyengar, 
 J. Tomasi, M. Cossi, J. M. Millam, M. Klene, C. Adamo, R. Cammi, 
 J. W. Ochterski, R. L. Martin, K. Morokuma, O. Farkas, 
 J. B. Foresman, and D. J. Fox, Gaussian, Inc., Wallingford CT, 2019.
 
 ******************************************
 Gaussian 16:  ES64L-G16RevC.01  3-Jul-2019
                28-Mar-2024 
 ******************************************
 %nprocshared=6
 Will use up to    6 processors via shared memory.
 %chk=HZIrMeH_sigma.chk
 %mem=2GB
 ----------------------------------------------------------
 # wb97xd def2TZVPP SCRF=(solvent=dichloromethane) opt freq
 ----------------------------------------------------------
 1/18=20,19=15,26=3,38=1/1,3;
 2/9=110,12=2,17=6,18=5,40=1/2;
 3/5=44,7=202,11=2,25=1,30=1,70=2201,71=1,72=9,74=-58/1,2,3;
 4//1;
 5/5=2,38=5,53=9/2;
 6/7=2,8=2,9=2,10=2,28=1/1;
 7//1,2,3,16;
 1/18=20,19=15,26=3/3(2);
 2/9=110/2;
 99//99;
 2/9=110/2;
 3/5=44,7=202,11=2,25=1,30=1,70=2205,71=1,72=9,74=-58/1,2,3;
 4/5=5,16=3,69=1/1;
 5/5=2,38=5,53=9/2;
 7//1,2,3,16;
 1/18=20,19=15,26=3/3(-5);
 2/9=110/2;
 6/7=2,8=2,9=2,10=2,19=2,28=1/1;
 99/9=1/99;
 -------------
 HZIrMeH_sigma
 -------------
 Symbolic Z-matrix:
 Charge =  1 Multiplicity = 1
 C                    -1.71027  -1.18235  -0.25687 
 C                    -1.71056   1.18205  -0.25714 
 C                    -3.05511  -1.23139   0.00696 
 C                    -3.05542   1.23082   0.00667 
 C                    -3.83759  -0.00036   0.18182 
 H                    -3.58026  -2.18937   0.07432 
 H                    -3.58079   2.18869   0.07379 
 O                    -5.05115  -0.00048   0.43818 
 N                    -1.03743  -0.00008  -0.3701 
 C                    -0.78693  -2.33205  -0.58637 
 H                    -0.65546  -2.36489  -1.68412 
 H                    -1.17157  -3.31336  -0.24405 
 C                    -0.7874    2.33186  -0.58672 
 H                    -0.65565   2.36447  -1.68444 
 H                    -1.17229   3.31317  -0.24469 
 N                     0.58937  -2.09113  -0.01149 
 N                     0.58879   2.09125  -0.01144 
 C                     3.14721   0.00016   0.66189 
 H                     2.54823   0.00135   1.5885 
 H                     3.78151  -0.89957   0.63792 
 H                     3.78266   0.89904   0.6363 
 C                     1.5659   -2.92678  -0.74467 
 H                     2.55611  -2.80627  -0.27704 
 H                     1.27125  -3.99695  -0.70217 
 H                     1.61099  -2.58664  -1.78977 
 C                     0.57771  -2.5113    1.41429 
 H                     0.38028  -3.60243   1.48443 
 H                     1.55665  -2.2826    1.86498 
 H                    -0.2094   -1.95374   1.94464 
 C                     1.56542   2.92707  -0.74428 
 H                     1.27071   3.99722  -0.70171 
 H                     2.55552   2.80653  -0.27641 
 H                     1.61079   2.58707  -1.7894 
 C                     0.57657   2.51143   1.41433 
 H                     1.5555    2.2832    1.86528 
 H                     0.37866   3.60248   1.4844 
 H                    -0.21043   1.95354   1.9445 
 H                     2.62738  -0.00003  -0.4215 
 Ir                    0.88619   0.0001   -0.09867 
 H                    -5.05115   0.99952   0.43818 
 

 GradGradGradGradGradGradGradGradGradGradGradGradGradGradGradGradGradGrad
 Berny optimization.
 Initialization pass.
                           ----------------------------
                           !    Initial Parameters    !
                           ! (Angstroms and Degrees)  !
 --------------------------                            --------------------------
 ! Name  Definition              Value          Derivative Info.                !
 --------------------------------------------------------------------------------
 ! R1    R(1,3)                  1.3714         estimate D2E/DX2                !
 ! R2    R(1,9)                  1.365          estimate D2E/DX2                !
 ! R3    R(1,10)                 1.5109         estimate D2E/DX2                !
 ! R4    R(2,4)                  1.3714         estimate D2E/DX2                !
 ! R5    R(2,9)                  1.365          estimate D2E/DX2                !
 ! R6    R(2,13)                 1.5109         estimate D2E/DX2                !
 ! R7    R(3,5)                  1.4691         estimate D2E/DX2                !
 ! R8    R(3,6)                  1.0946         estimate D2E/DX2                !
 ! R9    R(4,5)                  1.4691         estimate D2E/DX2                !
 ! R10   R(4,7)                  1.0945         estimate D2E/DX2                !
 ! R11   R(5,8)                  1.2403         estimate D2E/DX2                !
 ! R12   R(8,40)                 1.0            estimate D2E/DX2                !
 ! R13   R(9,39)                 1.9427         estimate D2E/DX2                !
 ! R14   R(10,11)                1.1061         estimate D2E/DX2                !
 ! R15   R(10,12)                1.1082         estimate D2E/DX2                !
 ! R16   R(10,16)                1.5109         estimate D2E/DX2                !
 ! R17   R(13,14)                1.1061         estimate D2E/DX2                !
 ! R18   R(13,15)                1.1082         estimate D2E/DX2                !
 ! R19   R(13,17)                1.5109         estimate D2E/DX2                !
 ! R20   R(16,22)                1.4797         estimate D2E/DX2                !
 ! R21   R(16,26)                1.4864         estimate D2E/DX2                !
 ! R22   R(16,39)                2.114          estimate D2E/DX2                !
 ! R23   R(17,30)                1.4797         estimate D2E/DX2                !
 ! R24   R(17,34)                1.4864         estimate D2E/DX2                !
 ! R25   R(17,39)                2.114          estimate D2E/DX2                !
 ! R26   R(18,19)                1.1034         estimate D2E/DX2                !
 ! R27   R(18,20)                1.1011         estimate D2E/DX2                !
 ! R28   R(18,21)                1.1011         estimate D2E/DX2                !
 ! R29   R(18,38)                1.2016         estimate D2E/DX2                !
 ! R30   R(18,39)                2.3855         estimate D2E/DX2                !
 ! R31   R(22,23)                1.1017         estimate D2E/DX2                !
 ! R32   R(22,24)                1.1108         estimate D2E/DX2                !
 ! R33   R(22,25)                1.1            estimate D2E/DX2                !
 ! R34   R(26,27)                1.1111         estimate D2E/DX2                !
 ! R35   R(26,28)                1.1017         estimate D2E/DX2                !
 ! R36   R(26,29)                1.1008         estimate D2E/DX2                !
 ! R37   R(30,31)                1.1108         estimate D2E/DX2                !
 ! R38   R(30,32)                1.1017         estimate D2E/DX2                !
 ! R39   R(30,33)                1.1            estimate D2E/DX2                !
 ! R40   R(34,35)                1.1017         estimate D2E/DX2                !
 ! R41   R(34,36)                1.1111         estimate D2E/DX2                !
 ! R42   R(34,37)                1.1008         estimate D2E/DX2                !
 ! R43   R(38,39)                1.7709         estimate D2E/DX2                !
 ! A1    A(3,1,9)              122.0268         estimate D2E/DX2                !
 ! A2    A(3,1,10)             127.8817         estimate D2E/DX2                !
 ! A3    A(9,1,10)             109.8605         estimate D2E/DX2                !
 ! A4    A(4,2,9)              122.0268         estimate D2E/DX2                !
 ! A5    A(4,2,13)             127.8851         estimate D2E/DX2                !
 ! A6    A(9,2,13)             109.8578         estimate D2E/DX2                !
 ! A7    A(1,3,5)              121.0147         estimate D2E/DX2                !
 ! A8    A(1,3,6)              120.9071         estimate D2E/DX2                !
 ! A9    A(5,3,6)              118.068          estimate D2E/DX2                !
 ! A10   A(2,4,5)              121.0146         estimate D2E/DX2                !
 ! A11   A(2,4,7)              120.9061         estimate D2E/DX2                !
 ! A12   A(5,4,7)              118.0691         estimate D2E/DX2                !
 ! A13   A(3,5,4)              113.858          estimate D2E/DX2                !
 ! A14   A(3,5,8)              123.0684         estimate D2E/DX2                !
 ! A15   A(4,5,8)              123.0683         estimate D2E/DX2                !
 ! A16   A(5,8,40)              89.9945         estimate D2E/DX2                !
 ! A17   A(1,9,2)              120.0089         estimate D2E/DX2                !
 ! A18   A(1,9,39)             118.4616         estimate D2E/DX2                !
 ! A19   A(2,9,39)             118.4666         estimate D2E/DX2                !
 ! A20   A(1,10,11)            108.1594         estimate D2E/DX2                !
 ! A21   A(1,10,12)            113.2239         estimate D2E/DX2                !
 ! A22   A(1,10,16)            110.6319         estimate D2E/DX2                !
 ! A23   A(11,10,12)           108.7558         estimate D2E/DX2                !
 ! A24   A(11,10,16)           105.9078         estimate D2E/DX2                !
 ! A25   A(12,10,16)           109.867          estimate D2E/DX2                !
 ! A26   A(2,13,14)            108.1614         estimate D2E/DX2                !
 ! A27   A(2,13,15)            113.2246         estimate D2E/DX2                !
 ! A28   A(2,13,17)            110.6267         estimate D2E/DX2                !
 ! A29   A(14,13,15)           108.7578         estimate D2E/DX2                !
 ! A30   A(14,13,17)           105.9073         estimate D2E/DX2                !
 ! A31   A(15,13,17)           109.868          estimate D2E/DX2                !
 ! A32   A(10,16,22)           108.8195         estimate D2E/DX2                !
 ! A33   A(10,16,26)           108.2249         estimate D2E/DX2                !
 ! A34   A(10,16,39)           105.6614         estimate D2E/DX2                !
 ! A35   A(22,16,26)           108.7122         estimate D2E/DX2                !
 ! A36   A(22,16,39)           116.4599         estimate D2E/DX2                !
 ! A37   A(26,16,39)           108.68           estimate D2E/DX2                !
 ! A38   A(13,17,30)           108.8236         estimate D2E/DX2                !
 ! A39   A(13,17,34)           108.2228         estimate D2E/DX2                !
 ! A40   A(13,17,39)           105.6619         estimate D2E/DX2                !
 ! A41   A(30,17,34)           108.7117         estimate D2E/DX2                !
 ! A42   A(30,17,39)           116.4535         estimate D2E/DX2                !
 ! A43   A(34,17,39)           108.6844         estimate D2E/DX2                !
 ! A44   A(19,18,20)           109.3836         estimate D2E/DX2                !
 ! A45   A(19,18,21)           109.3859         estimate D2E/DX2                !
 ! A46   A(19,18,38)           121.488          estimate D2E/DX2                !
 ! A47   A(19,18,39)            75.7124         estimate D2E/DX2                !
 ! A48   A(20,18,21)           109.5177         estimate D2E/DX2                !
 ! A49   A(20,18,38)           103.2645         estimate D2E/DX2                !
 ! A50   A(20,18,39)           122.618          estimate D2E/DX2                !
 ! A51   A(21,18,38)           103.2281         estimate D2E/DX2                !
 ! A52   A(21,18,39)           122.6561         estimate D2E/DX2                !
 ! A53   A(16,22,23)           108.7282         estimate D2E/DX2                !
 ! A54   A(16,22,24)           110.4917         estimate D2E/DX2                !
 ! A55   A(16,22,25)           108.8562         estimate D2E/DX2                !
 ! A56   A(23,22,24)           109.1209         estimate D2E/DX2                !
 ! A57   A(23,22,25)           109.4279         estimate D2E/DX2                !
 ! A58   A(24,22,25)           110.1901         estimate D2E/DX2                !
 ! A59   A(16,26,27)           109.849          estimate D2E/DX2                !
 ! A60   A(16,26,28)           109.071          estimate D2E/DX2                !
 ! A61   A(16,26,29)           108.9395         estimate D2E/DX2                !
 ! A62   A(27,26,28)           109.6293         estimate D2E/DX2                !
 ! A63   A(27,26,29)           109.8741         estimate D2E/DX2                !
 ! A64   A(28,26,29)           109.459          estimate D2E/DX2                !
 ! A65   A(17,30,31)           110.4933         estimate D2E/DX2                !
 ! A66   A(17,30,32)           108.7256         estimate D2E/DX2                !
 ! A67   A(17,30,33)           108.8564         estimate D2E/DX2                !
 ! A68   A(31,30,32)           109.1214         estimate D2E/DX2                !
 ! A69   A(31,30,33)           110.1905         estimate D2E/DX2                !
 ! A70   A(32,30,33)           109.4277         estimate D2E/DX2                !
 ! A71   A(17,34,35)           109.0716         estimate D2E/DX2                !
 ! A72   A(17,34,36)           109.8487         estimate D2E/DX2                !
 ! A73   A(17,34,37)           108.9407         estimate D2E/DX2                !
 ! A74   A(35,34,36)           109.6267         estimate D2E/DX2                !
 ! A75   A(35,34,37)           109.4597         estimate D2E/DX2                !
 ! A76   A(36,34,37)           109.8745         estimate D2E/DX2                !
 ! A77   A(9,39,16)             82.3362         estimate D2E/DX2                !
 ! A78   A(9,39,17)             82.3313         estimate D2E/DX2                !
 ! A79   A(9,39,38)            161.4646         estimate D2E/DX2                !
 ! A80   A(16,39,17)           163.1548         estimate D2E/DX2                !
 ! A81   A(16,39,18)            96.8896         estimate D2E/DX2                !
 ! A82   A(16,39,38)            98.3662         estimate D2E/DX2                !
 ! A83   A(17,39,18)            96.9013         estimate D2E/DX2                !
 ! A84   A(17,39,38)            98.3905         estimate D2E/DX2                !
 ! A85   L(9,39,18,16,-1)      179.2258         estimate D2E/DX2                !
 ! A86   L(9,39,18,16,-2)      190.6177         estimate D2E/DX2                !
 ! D1    D(9,1,3,5)             -0.0418         estimate D2E/DX2                !
 ! D2    D(9,1,3,6)            178.7762         estimate D2E/DX2                !
 ! D3    D(10,1,3,5)          -173.9415         estimate D2E/DX2                !
 ! D4    D(10,1,3,6)             4.8764         estimate D2E/DX2                !
 ! D5    D(3,1,9,2)             -1.8385         estimate D2E/DX2                !
 ! D6    D(3,1,9,39)           158.0779         estimate D2E/DX2                !
 ! D7    D(10,1,9,2)           173.0451         estimate D2E/DX2                !
 ! D8    D(10,1,9,39)          -27.0385         estimate D2E/DX2                !
 ! D9    D(3,1,10,11)           98.8258         estimate D2E/DX2                !
 ! D10   D(3,1,10,12)          -21.7694         estimate D2E/DX2                !
 ! D11   D(3,1,10,16)         -145.5975         estimate D2E/DX2                !
 ! D12   D(9,1,10,11)          -75.6773         estimate D2E/DX2                !
 ! D13   D(9,1,10,12)          163.7275         estimate D2E/DX2                !
 ! D14   D(9,1,10,16)           39.8994         estimate D2E/DX2                !
 ! D15   D(9,2,4,5)              0.0427         estimate D2E/DX2                !
 ! D16   D(9,2,4,7)           -178.7751         estimate D2E/DX2                !
 ! D17   D(13,2,4,5)           173.9512         estimate D2E/DX2                !
 ! D18   D(13,2,4,7)            -4.8667         estimate D2E/DX2                !
 ! D19   D(4,2,9,1)              1.838          estimate D2E/DX2                !
 ! D20   D(4,2,9,39)          -158.0774         estimate D2E/DX2                !
 ! D21   D(13,2,9,1)          -173.0532         estimate D2E/DX2                !
 ! D22   D(13,2,9,39)           27.0315         estimate D2E/DX2                !
 ! D23   D(4,2,13,14)          -98.8424         estimate D2E/DX2                !
 ! D24   D(4,2,13,15)           21.7571         estimate D2E/DX2                !
 ! D25   D(4,2,13,17)          145.5831         estimate D2E/DX2                !
 ! D26   D(9,2,13,14)           75.6687         estimate D2E/DX2                !
 ! D27   D(9,2,13,15)         -163.7318         estimate D2E/DX2                !
 ! D28   D(9,2,13,17)          -39.9058         estimate D2E/DX2                !
 ! D29   D(1,3,5,4)              1.7613         estimate D2E/DX2                !
 ! D30   D(1,3,5,8)           -179.0516         estimate D2E/DX2                !
 ! D31   D(6,3,5,4)           -177.0894         estimate D2E/DX2                !
 ! D32   D(6,3,5,8)              2.0977         estimate D2E/DX2                !
 ! D33   D(2,4,5,3)             -1.7618         estimate D2E/DX2                !
 ! D34   D(2,4,5,8)            179.0512         estimate D2E/DX2                !
 ! D35   D(7,4,5,3)            177.0888         estimate D2E/DX2                !
 ! D36   D(7,4,5,8)             -2.0983         estimate D2E/DX2                !
 ! D37   D(3,5,8,40)          -179.5645         estimate D2E/DX2                !
 ! D38   D(4,5,8,40)            -0.4517         estimate D2E/DX2                !
 ! D39   D(1,9,39,16)            6.3935         estimate D2E/DX2                !
 ! D40   D(1,9,39,17)         -166.6087         estimate D2E/DX2                !
 ! D41   D(1,9,39,38)           99.8615         estimate D2E/DX2                !
 ! D42   D(2,9,39,16)          166.6229         estimate D2E/DX2                !
 ! D43   D(2,9,39,17)           -6.3794         estimate D2E/DX2                !
 ! D44   D(2,9,39,38)          -99.9091         estimate D2E/DX2                !
 ! D45   D(1,10,16,22)        -159.0761         estimate D2E/DX2                !
 ! D46   D(1,10,16,26)          82.9512         estimate D2E/DX2                !
 ! D47   D(1,10,16,39)         -33.313          estimate D2E/DX2                !
 ! D48   D(11,10,16,22)        -42.102          estimate D2E/DX2                !
 ! D49   D(11,10,16,26)       -160.0746         estimate D2E/DX2                !
 ! D50   D(11,10,16,39)         83.6612         estimate D2E/DX2                !
 ! D51   D(12,10,16,22)         75.1871         estimate D2E/DX2                !
 ! D52   D(12,10,16,26)        -42.7855         estimate D2E/DX2                !
 ! D53   D(12,10,16,39)       -159.0497         estimate D2E/DX2                !
 ! D54   D(2,13,17,30)         159.0893         estimate D2E/DX2                !
 ! D55   D(2,13,17,34)         -82.9376         estimate D2E/DX2                !
 ! D56   D(2,13,17,39)          33.331          estimate D2E/DX2                !
 ! D57   D(14,13,17,30)         42.1156         estimate D2E/DX2                !
 ! D58   D(14,13,17,34)        160.0888         estimate D2E/DX2                !
 ! D59   D(14,13,17,39)        -83.6426         estimate D2E/DX2                !
 ! D60   D(15,13,17,30)        -75.1761         estimate D2E/DX2                !
 ! D61   D(15,13,17,34)         42.7971         estimate D2E/DX2                !
 ! D62   D(15,13,17,39)        159.0657         estimate D2E/DX2                !
 ! D63   D(10,16,22,23)       -175.9015         estimate D2E/DX2                !
 ! D64   D(10,16,22,24)        -56.1697         estimate D2E/DX2                !
 ! D65   D(10,16,22,25)         64.9602         estimate D2E/DX2                !
 ! D66   D(26,16,22,23)        -58.2373         estimate D2E/DX2                !
 ! D67   D(26,16,22,24)         61.4945         estimate D2E/DX2                !
 ! D68   D(26,16,22,25)       -177.3757         estimate D2E/DX2                !
 ! D69   D(39,16,22,23)         64.8767         estimate D2E/DX2                !
 ! D70   D(39,16,22,24)       -175.3915         estimate D2E/DX2                !
 ! D71   D(39,16,22,25)        -54.2616         estimate D2E/DX2                !
 ! D72   D(10,16,26,27)         63.3567         estimate D2E/DX2                !
 ! D73   D(10,16,26,28)       -176.4652         estimate D2E/DX2                !
 ! D74   D(10,16,26,29)        -57.0401         estimate D2E/DX2                !
 ! D75   D(22,16,26,27)        -54.6845         estimate D2E/DX2                !
 ! D76   D(22,16,26,28)         65.4936         estimate D2E/DX2                !
 ! D77   D(22,16,26,29)       -175.0813         estimate D2E/DX2                !
 ! D78   D(39,16,26,27)        177.6453         estimate D2E/DX2                !
 ! D79   D(39,16,26,28)        -62.1765         estimate D2E/DX2                !
 ! D80   D(39,16,26,29)         57.2485         estimate D2E/DX2                !
 ! D81   D(10,16,39,9)          15.5882         estimate D2E/DX2                !
 ! D82   D(10,16,39,17)         40.2117         estimate D2E/DX2                !
 ! D83   D(10,16,39,18)       -175.0295         estimate D2E/DX2                !
 ! D84   D(10,16,39,38)       -145.7052         estimate D2E/DX2                !
 ! D85   D(22,16,39,9)         136.5031         estimate D2E/DX2                !
 ! D86   D(22,16,39,17)        161.1267         estimate D2E/DX2                !
 ! D87   D(22,16,39,18)        -54.1145         estimate D2E/DX2                !
 ! D88   D(22,16,39,38)        -24.7903         estimate D2E/DX2                !
 ! D89   D(26,16,39,9)        -100.3661         estimate D2E/DX2                !
 ! D90   D(26,16,39,17)        -75.7426         estimate D2E/DX2                !
 ! D91   D(26,16,39,18)         69.0162         estimate D2E/DX2                !
 ! D92   D(26,16,39,38)         98.3404         estimate D2E/DX2                !
 ! D93   D(13,17,30,31)         56.1818         estimate D2E/DX2                !
 ! D94   D(13,17,30,32)        175.9136         estimate D2E/DX2                !
 ! D95   D(13,17,30,33)        -64.9497         estimate D2E/DX2                !
 ! D96   D(34,17,30,31)        -61.482          estimate D2E/DX2                !
 ! D97   D(34,17,30,32)         58.2499         estimate D2E/DX2                !
 ! D98   D(34,17,30,33)        177.3866         estimate D2E/DX2                !
 ! D99   D(39,17,30,31)        175.4032         estimate D2E/DX2                !
 ! D100  D(39,17,30,32)        -64.8649         estimate D2E/DX2                !
 ! D101  D(39,17,30,33)         54.2718         estimate D2E/DX2                !
 ! D102  D(13,17,34,35)        176.4792         estimate D2E/DX2                !
 ! D103  D(13,17,34,36)        -63.3456         estimate D2E/DX2                !
 ! D104  D(13,17,34,37)         57.0523         estimate D2E/DX2                !
 ! D105  D(30,17,34,35)        -65.4761         estimate D2E/DX2                !
 ! D106  D(30,17,34,36)         54.6991         estimate D2E/DX2                !
 ! D107  D(30,17,34,37)        175.097          estimate D2E/DX2                !
 ! D108  D(39,17,34,35)         62.1887         estimate D2E/DX2                !
 ! D109  D(39,17,34,36)       -177.6361         estimate D2E/DX2                !
 ! D110  D(39,17,34,37)        -57.2382         estimate D2E/DX2                !
 ! D111  D(13,17,39,9)         -15.6055         estimate D2E/DX2                !
 ! D112  D(13,17,39,16)        -40.2293         estimate D2E/DX2                !
 ! D113  D(13,17,39,18)        175.0129         estimate D2E/DX2                !
 ! D114  D(13,17,39,38)        145.688          estimate D2E/DX2                !
 ! D115  D(30,17,39,9)        -136.5221         estimate D2E/DX2                !
 ! D116  D(30,17,39,16)       -161.146          estimate D2E/DX2                !
 ! D117  D(30,17,39,18)         54.0962         estimate D2E/DX2                !
 ! D118  D(30,17,39,38)         24.7713         estimate D2E/DX2                !
 ! D119  D(34,17,39,9)         100.3489         estimate D2E/DX2                !
 ! D120  D(34,17,39,16)         75.7251         estimate D2E/DX2                !
 ! D121  D(34,17,39,18)        -69.0328         estimate D2E/DX2                !
 ! D122  D(34,17,39,38)        -98.3576         estimate D2E/DX2                !
 ! D123  D(19,18,39,16)        -85.219          estimate D2E/DX2                !
 ! D124  D(19,18,39,17)         85.0843         estimate D2E/DX2                !
 ! D125  D(20,18,39,16)         18.8822         estimate D2E/DX2                !
 ! D126  D(20,18,39,17)       -170.8146         estimate D2E/DX2                !
 ! D127  D(21,18,39,16)        170.6808         estimate D2E/DX2                !
 ! D128  D(21,18,39,17)        -19.0159         estimate D2E/DX2                !
 --------------------------------------------------------------------------------
 Trust Radius=3.00D-01 FncErr=1.00D-07 GrdErr=1.00D-06 EigMax=2.50D+02 EigMin=1.00D-04
 Number of steps in this run=    240 maximum allowed number of steps=    240.
 GradGradGradGradGradGradGradGradGradGradGradGradGradGradGradGradGradGrad

                          Input orientation:                          
 ---------------------------------------------------------------------
 Center     Atomic      Atomic             Coordinates (Angstroms)
 Number     Number       Type             X           Y           Z
 ---------------------------------------------------------------------
      1          6           0       -1.710270   -1.182350   -0.256870
      2          6           0       -1.710560    1.182050   -0.257140
      3          6           0       -3.055110   -1.231390    0.006960
      4          6           0       -3.055420    1.230820    0.006670
      5          6           0       -3.837590   -0.000360    0.181820
      6          1           0       -3.580260   -2.189370    0.074320
      7          1           0       -3.580790    2.188690    0.073790
      8          8           0       -5.051150   -0.000480    0.438180
      9          7           0       -1.037430   -0.000080   -0.370100
     10          6           0       -0.786930   -2.332050   -0.586370
     11          1           0       -0.655460   -2.364890   -1.684120
     12          1           0       -1.171570   -3.313360   -0.244050
     13          6           0       -0.787400    2.331860   -0.586720
     14          1           0       -0.655650    2.364470   -1.684440
     15          1           0       -1.172290    3.313170   -0.244690
     16          7           0        0.589370   -2.091130   -0.011490
     17          7           0        0.588790    2.091250   -0.011440
     18          6           0        3.147210    0.000160    0.661890
     19          1           0        2.548230    0.001350    1.588500
     20          1           0        3.781510   -0.899570    0.637920
     21          1           0        3.782660    0.899040    0.636300
     22          6           0        1.565900   -2.926780   -0.744670
     23          1           0        2.556110   -2.806270   -0.277040
     24          1           0        1.271250   -3.996950   -0.702170
     25          1           0        1.610990   -2.586640   -1.789770
     26          6           0        0.577710   -2.511300    1.414290
     27          1           0        0.380280   -3.602430    1.484430
     28          1           0        1.556650   -2.282600    1.864980
     29          1           0       -0.209400   -1.953740    1.944640
     30          6           0        1.565420    2.927070   -0.744280
     31          1           0        1.270710    3.997220   -0.701710
     32          1           0        2.555520    2.806530   -0.276410
     33          1           0        1.610790    2.587070   -1.789400
     34          6           0        0.576570    2.511430    1.414330
     35          1           0        1.555500    2.283200    1.865280
     36          1           0        0.378660    3.602480    1.484400
     37          1           0       -0.210430    1.953540    1.944500
     38          1           0        2.627380   -0.000030   -0.421500
     39         77           0        0.886190    0.000100   -0.098670
     40          1           0       -5.051150    0.999520    0.438180
 ---------------------------------------------------------------------
                    Distance matrix (angstroms):
                    1          2          3          4          5
     1  C    0.000000
     2  C    2.364400   0.000000
     3  C    1.371352   2.775294   0.000000
     4  C    2.775297   1.371358   2.462210   0.000000
     5  C    2.472861   2.472860   1.469111   1.469106   0.000000
     6  H    2.149567   3.869382   1.094553   3.460886   2.206703
     7  H    3.869379   2.149558   3.460889   1.094547   2.206707
     8  O    3.611287   3.611286   2.384380   2.384374   1.240342
     9  N    1.365026   1.365026   2.393602   2.393607   2.854034
    10  C    1.510939   3.648340   2.590006   4.265183   3.915791
    11  H    2.132620   3.966143   3.146886   4.641951   4.381630
    12  H    2.198082   4.527625   2.818746   4.925578   4.273757
    13  C    3.648309   1.510930   4.265175   2.590042   3.915809
    14  H    3.966120   2.132636   4.642031   3.147048   4.381791
    15  H    4.527612   2.198081   4.925583   2.818784   4.273782
    16  N    2.484841   4.007958   3.744560   4.931549   4.899659
    17  N    4.007789   2.484758   4.931357   3.744454   4.899492
    18  C    5.083066   5.083248   6.357234   6.357394   7.001278
    19  H    4.789714   4.789335   5.951331   5.951023   6.538918
    20  H    5.571379   5.941137   6.873688   7.188926   7.685525
    21  H    5.941567   5.572593   7.189569   6.875016   7.686591
    22  C    3.743564   5.277818   4.979260   6.261529   6.214501
    23  H    4.565032   5.840511   5.834954   6.918660   6.997363
    24  H    4.124285   5.992602   5.183491   6.822910   6.546328
    25  H    3.918237   5.252111   5.180486   6.290912   6.345316
    26  C    3.129495   4.655179   4.100747   5.402267   5.226727
    27  H    3.641334   5.504174   4.427940   6.111310   5.697555
    28  H    4.047909   5.213622   5.081891   6.088401   6.094216
    29  H    2.773860   4.115154   3.517735   4.690094   4.481851
    30  C    5.277788   3.743587   6.261505   4.979292   6.214501
    31  H    5.992668   4.124415   6.822997   5.183645   6.546449
    32  H    5.840249   4.564947   6.918401   5.834865   6.997175
    33  H    5.252296   3.918325   6.291118   5.180617   6.345498
    34  C    4.654735   3.129221   5.401712   4.100344   5.226182
    35  H    5.213330   4.047758   6.087973   5.081586   6.093776
    36  H    5.503658   3.640918   6.110639   4.427343   5.696836
    37  H    4.114530   2.773591   4.689354   3.517311   4.481189
    38  H    4.498910   4.499117   5.830139   5.830312   6.493060
    39  Ir   2.857415   2.857487   4.130565   4.130624   4.732100
    40  H    4.050325   3.417064   3.024415   2.054906   1.593176
                    6          7          8          9         10
     6  H    0.000000
     7  H    4.378060   0.000000
     8  O    2.662170   2.662180   0.000000
     9  N    3.384743   3.384735   4.094297   0.000000
    10  C    2.873945   5.355236   4.966839   2.355336   0.000000
    11  H    3.417217   5.690597   5.423715   2.732193   1.106082
    12  H    2.677032   6.014808   5.147014   3.318389   1.108197
    13  C    5.355237   2.873987   4.966870   2.355288   4.663910
    14  H    5.690698   3.417414   5.423921   2.732095   4.824966
    15  H    6.014818   2.677080   5.147052   3.318364   5.668664
    16  N    4.171670   5.976150   6.032287   2.673494   1.510871
    17  N    5.975955   4.171589   6.032115   2.673367   4.667840
    18  C    7.099164   7.099402   8.201412   4.310013   4.740761
    19  H    6.682094   6.681593   7.685949   4.085716   4.614987
    20  H    7.495124   8.003690   8.880548   5.004735   4.941814
    21  H    8.004167   7.496667   8.881700   5.005450   5.728527
    22  C    5.262840   7.302488   7.331283   3.934870   2.431989
    23  H    6.177302   7.920495   8.139681   4.560361   3.390647
    24  H    5.235211   7.899782   7.566037   4.627661   2.649794
    25  H    5.530075   7.295972   7.485726   3.964831   2.694997
    26  C    4.380396   6.417162   6.240278   3.478355   2.428377
    27  H    4.435203   7.156609   6.600690   4.292564   2.695266
    28  H    5.440864   7.042307   7.134904   4.115183   3.391744
    29  H    3.862165   5.659159   5.433893   3.140134   2.623485
    30  C    7.302471   5.262881   7.331286   3.934850   5.763404
    31  H    7.899875   5.235383   7.566166   4.627730   6.656339
    32  H    7.920216   6.177270   8.139495   4.560167   6.137838
    33  H    7.296220   5.530162   7.485918   3.964950   5.603042
    34  C    6.416571   4.380051   6.239695   3.478055   5.414908
    35  H    7.041836   5.440574   7.134398   4.115043   5.726962
    36  H    7.155900   4.434621   6.599904   4.292193   6.392600
    37  H    5.658359   3.861888   5.433209   3.139735   5.010383
    38  H    6.601049   6.601302   7.726505   3.665170   4.137996
    39  Ir   4.977236   4.977306   5.961561   1.942676   2.911375
    40  H    3.530571   1.925841   1.000000   4.214554   5.507507
                   11         12         13         14         15
    11  H    0.000000
    12  H    1.799935   0.000000
    13  C    4.825055   5.668643   0.000000
    14  H    4.729360   5.880361   1.106079   0.000000
    15  H    5.880428   6.626530   1.108194   1.799952   0.000000
    16  N    2.102912   2.156117   4.667893   4.919472   5.688962
    17  N    4.919675   5.688830   1.510874   2.102905   2.156130
    18  C    5.055445   5.518333   4.740992   5.055390   5.518696
    19  H    5.154878   5.308715   4.614031   5.153767   5.307637
    20  H    5.217829   5.580077   5.728597   5.977935   6.562493
    21  H    5.977834   6.562296   4.943096   5.218421   5.581729
    22  C    2.476434   2.809592   5.763355   5.815134   6.832616
    23  H    3.533960   3.762157   6.138024   6.247618   7.165861
    24  H    2.709254   2.577700   6.656215   6.719037   7.721271
    25  H    2.279722   3.264967   5.602789   5.446305   6.703855
    26  C    3.338007   2.540349   5.415142   5.907321   6.303901
    27  H    3.555836   2.340821   6.392882   6.835114   7.295605
    28  H    4.182859   3.599119   5.727010   6.252033   6.573467
    29  H    3.679119   2.750400   5.010812   5.658295   5.784519
    30  C    5.815535   6.832592   2.432049   2.476605   2.809576
    31  H    6.719502   7.721319   2.649993   2.709704   2.577798
    32  H    6.247850   7.165564   3.390681   3.534060   3.762214
    33  H    5.446915   6.704081   2.694974   2.279763   3.264795
    34  C    5.907350   6.303523   2.428345   3.338014   2.540403
    35  H    6.252306   6.573254   3.391733   4.182858   3.599118
    36  H    6.835088   7.295176   2.695127   3.555842   2.340705
    37  H    5.658071   5.783924   2.623565   3.679170   2.750695
    38  H    4.238374   5.043973   4.138325   4.238415   5.044408
    39  Ir   3.237826   3.903143   2.911392   3.237620   3.903216
    40  H    5.928364   5.841020   4.583134   5.068434   4.567805
                   16         17         18         19         20
    16  N    0.000000
    17  N    4.182380   0.000000
    18  C    3.371866   3.372172   0.000000
    19  H    3.282617   3.281295   1.103352   0.000000
    20  H    3.468617   4.422684   1.101102   1.798955   0.000000
    21  H    4.422426   3.470121   1.101107   1.798986   1.798611
    22  C    1.479687   5.164591   3.611915   3.870736   3.306065
    23  H    2.109504   5.284562   3.017787   3.370910   2.444230
    24  H    2.138726   6.165147   4.621339   4.781658   4.206068
    25  H    2.109862   5.107838   3.880998   4.357616   3.667566
    26  C    1.486448   4.818329   3.670949   3.197922   3.669436
    27  H    2.136708   5.890594   4.616398   4.206907   4.426104
    28  H    2.119771   4.856776   3.031221   2.505214   2.892827
    29  H    2.117393   4.563475   4.090233   3.399079   4.329683
    30  C    5.164493   1.479681   3.611949   3.868800   4.633002
    31  H    6.165114   2.138740   4.621379   4.779550   5.663681
    32  H    5.284222   2.109469   3.017651   3.368527   4.009268
    33  H    5.107819   2.109849   3.880916   4.356025   4.770804
    34  C    4.818370   1.486446   3.671625   3.196604   4.744404
    35  H    4.856999   2.119776   3.032154   2.503789   4.073274
    36  H    5.890610   2.136705   4.617153   4.205474   5.706520
    37  H    4.563434   2.117408   4.090786   3.398233   5.077694
    38  H    2.948609   2.949144   1.201648   2.011558   1.806532
    39  Ir   2.113988   2.113992   2.385511   2.368316   3.120072
    40  H    6.447464   5.762201   8.262074   7.750494   9.036721
                   21         22         23         24         25
    21  H    0.000000
    22  C    4.632278   0.000000
    23  H    4.008483   1.101688   0.000000
    24  H    5.662985   1.110805   1.802587   0.000000
    25  H    4.769898   1.099983   1.797176   1.813083   0.000000
    26  C    4.744196   2.410446   2.619479   2.677229   3.367394
    27  H    5.706027   2.613634   2.910478   2.393887   3.642370
    28  H    4.072789   2.687997   2.421033   3.100114   3.667777
    29  H    5.078056   3.366138   3.648385   3.656861   4.202404
    30  C    3.306820   5.853850   5.837034   6.930394   5.612141
    31  H    4.207004   6.930423   6.936863   7.994170   6.681832
    32  H    2.444878   5.836905   5.612800   6.936711   5.680553
    33  H    3.667490   5.612131   5.680579   6.681817   5.173710
    34  C    3.672076   5.934154   5.920916   6.879038   6.109550
    35  H    2.895951   5.827164   5.611903   6.790647   6.089155
    36  H    4.428891   7.000681   6.994000   7.957961   7.109433
    37  H    4.332219   5.848462   5.936731   6.678965   6.154314
    38  H    1.806084   3.130023   2.810859   4.230039   3.097703
    39  Ir   3.120547   3.073426   3.270499   4.060652   3.174331
    40  H    8.836603   7.784621   8.536157   8.138664   7.887231
                   26         27         28         29         30
    26  C    0.000000
    27  H    1.111064   0.000000
    28  H    1.101703   1.808484   0.000000
    29  H    1.100766   1.810440   1.798173   0.000000
    30  C    5.933874   7.000434   5.826575   5.848297   0.000000
    31  H    6.878847   7.957811   6.790125   6.678909   1.110805
    32  H    5.920263   6.993354   5.610930   5.936162   1.101694
    33  H    6.109358   7.109292   6.088605   6.154275   1.099970
    34  C    5.022730   6.117412   4.913895   4.564726   2.410431
    35  H    4.913929   6.013886   4.565800   4.590515   2.687837
    36  H    6.117421   7.204910   6.013873   5.606177   2.613732
    37  H    4.564765   5.606193   4.590618   3.907280   3.366146
    38  H    3.725285   4.653957   3.403613   4.178866   3.130473
    39  Ir   2.948108   3.967414   3.084827   3.031984   3.073324
    40  H    6.705424   7.195347   7.514725   5.868024   6.992329
                   31         32         33         34         35
    31  H    0.000000
    32  H    1.802598   0.000000
    33  H    1.813077   1.797169   0.000000
    34  C    2.677130   2.619528   3.367376   0.000000
    35  H    3.099743   2.420899   3.667708   1.101703   0.000000
    36  H    2.393878   2.910792   3.642385   1.111066   1.808458
    37  H    3.656888   3.648358   4.202405   1.100768   1.798182
    38  H    4.230494   2.811226   3.098014   3.726060   3.404619
    39  Ir   4.060601   3.270215   3.174276   2.948188   3.085064
    40  H    7.088827   7.850946   7.201658   5.908466   6.879845
                   36         37         38         39         40
    36  H    0.000000
    37  H    1.810448   0.000000
    38  H    4.654812   4.179421   0.000000
    39  Ir   3.967473   3.032004   1.770865   0.000000
    40  H    6.111695   5.158655   7.790890   6.044754   0.000000
 Stoichiometry    C12H23IrN3O(1+)
 Framework group  C1[X(C12H23IrN3O)]
 Deg. of freedom   114
 Full point group                 C1      NOp   1
 Largest Abelian subgroup         C1      NOp   1
 Largest concise Abelian subgroup C1      NOp   1
                         Standard orientation:                         
 ---------------------------------------------------------------------
 Center     Atomic      Atomic             Coordinates (Angstroms)
 Number     Number       Type             X           Y           Z
 ---------------------------------------------------------------------
      1          6           0       -1.659646   -1.221761   -0.263466
      2          6           0       -1.708252    1.142138   -0.266136
      3          6           0       -3.004082   -1.298027   -0.004075
      4          6           0       -3.054706    1.163661   -0.006865
      5          6           0       -3.812137   -0.083082    0.166924
      6          1           0       -3.509769   -2.266476    0.062504
      7          1           0       -3.599763    2.110656    0.057530
      8          8           0       -5.026295   -0.107763    0.419233
      9          7           0       -1.010730   -0.026094   -0.375650
     10          6           0       -0.711904   -2.352661   -0.588716
     11          1           0       -0.576106   -2.383845   -1.685987
     12          1           0       -1.077558   -3.341303   -0.246686
     13          6           0       -0.807680    2.310263   -0.593801
     14          1           0       -0.672940    2.344520   -1.691107
     15          1           0       -1.213689    3.283825   -0.254053
     16          7           0        0.657248   -2.083118   -0.009492
     17          7           0        0.571200    2.098375   -0.013688
     18          6           0        3.169543    0.060650    0.670297
     19          1           0        2.567557    0.050474    1.594901
     20          1           0        3.822174   -0.825950    0.649357
     21          1           0        3.786574    0.972305    0.645915
     22          6           0        1.653106   -2.899328   -0.738561
     23          1           0        2.639071   -2.758162   -0.267752
     24          1           0        1.380245   -3.975256   -0.695958
     25          1           0        1.694744   -2.559327   -1.783849
     26          6           0        0.649390   -2.502089    1.416667
     27          1           0        0.474065   -3.596959    1.487255
     28          1           0        1.621934   -2.253002    1.870389
     29          1           0       -0.150725   -1.960231    1.943822
     30          6           0        1.533001    2.953287   -0.744113
     31          1           0        1.216343    4.017230   -0.703612
     32          1           0        2.523781    2.853451   -0.272820
     33          1           0        1.588817    2.613297   -1.788730
     34          6           0        0.545611    2.519567    1.411606
     35          1           0        1.527481    2.311819    1.866052
     36          1           0        0.325212    3.606410    1.479908
     37          1           0       -0.231600    1.946210    1.939713
     38          1           0        2.653465    0.048810   -0.414821
     39         77           0        0.911562    0.013659   -0.097803
     40          1           0       -5.046730    0.892028    0.418218
 ---------------------------------------------------------------------
 Rotational constants (GHZ):           0.5313440           0.3369590           0.2285155
 Standard basis: def2TZVPP (5D, 7F)
 There are   992 symmetry adapted cartesian basis functions of A   symmetry.
 There are   874 symmetry adapted basis functions of A   symmetry.
   874 basis functions,  1307 primitive gaussians,   992 cartesian basis functions
    70 alpha electrons       70 beta electrons
       nuclear repulsion energy      1547.0020242035 Hartrees.
 NAtoms=   40 NActive=   40 NUniq=   40 SFac= 1.00D+00 NAtFMM=   60 NAOKFM=F Big=F
 Integral buffers will be    131072 words long.
 Raffenetti 2 integral format.
 Two-electron integral symmetry is turned on.
 Nuclear repulsion after empirical dispersion term =     1546.9576698119 Hartrees.
 ------------------------------------------------------------------------------
 Polarizable Continuum Model (PCM)
 =================================
 Model                : PCM.
 Atomic radii         : UFF (Universal Force Field).
 Polarization charges : Total charges.
 Charge compensation  : None.
 Solution method      : On-the-fly selection.
 Cavity type          : Scaled VdW (van der Waals Surface) (Alpha=1.100).
 Cavity algorithm     : GePol (No added spheres)
                        Default sphere list used, NSphG=   40.
                        Lebedev-Laikov grids with approx.  5.0 points / Ang**2.
                        Smoothing algorithm: York/Karplus (Gamma=1.0000).
                        Polarization charges: spherical gaussians, with
                                              point-specific exponents (IZeta= 3).
                        Self-potential: point-specific (ISelfS= 7).
                        Self-field    : sphere-specific E.n sum rule (ISelfD= 2).
 1st derivatives      : Analytical E(r).r(x)/FMM algorithm (CHGder, D1EAlg=3).
                        Cavity 1st derivative terms included.
 Solvent              : Dichloromethane, Eps=   8.930000 Eps(inf)=   2.028346
 ------------------------------------------------------------------------------
 One-electron integrals computed using PRISM.
   1 Symmetry operations used in ECPInt.
 ECPInt:  NShTT=   54615 NPrTT=  140092 LenC2=   49288 LenP2D=   96509.
 LDataN:  DoStor=T MaxTD1= 9 Len=  602
 NBasis=   874 RedAO= T EigKep=  2.00D-05  NBF=   874
 NBsUse=   874 1.00D-06 EigRej= -1.00D+00 NBFU=   874
 Defaulting to unpruned grid for atomic number  77.
 ExpMin= 5.00D-02 ExpMax= 2.70D+04 ExpMxC= 9.22D+02 IAcc=3 IRadAn=         5 AccDes= 0.00D+00
 Harris functional with IExCor= 4639 and IRadAn=       5 diagonalized for initial guess.
 HarFok:  IExCor= 4639 AccDes= 0.00D+00 IRadAn=         5 IDoV= 1 UseB2=F ITyADJ=14
 ICtDFT=  3500011 ScaDFX=  1.000000  1.000000  1.000000  1.000000
 Defaulting to unpruned grid for atomic number  77.
 FoFCou: FMM=F IPFlag=           0 FMFlag=      100000 FMFlg1=           0
         NFxFlg=           0 DoJE=T BraDBF=F KetDBF=T FulRan=T
         wScrn=  0.000000 ICntrl=       500 IOpCl=  0 I1Cent=   200000004 NGrid=           0
         NMat0=    1 NMatS0=      1 NMatT0=    0 NMatD0=    1 NMtDS0=    0 NMtDT0=    0
 Petite list used in FoFCou.
 Requested convergence on RMS density matrix=1.00D-08 within 128 cycles.
 Requested convergence on MAX density matrix=1.00D-06.
 Requested convergence on             energy=1.00D-06.
 No special actions if energy rises.
 Defaulting to unpruned grid for atomic number  77.
 Defaulting to unpruned grid for atomic number  77.
 Defaulting to unpruned grid for atomic number  77.
 Defaulting to unpruned grid for atomic number  77.
 Defaulting to unpruned grid for atomic number  77.
 Defaulting to unpruned grid for atomic number  77.
 Inv3:  Mode=1 IEnd=    19492203.
 Iteration    1 A*A^-1 deviation from unit magnitude is 3.33D-15 for   2406.
 Iteration    1 A*A^-1 deviation from orthogonality  is 2.11D-15 for   2385    794.
 Iteration    1 A^-1*A deviation from unit magnitude is 3.11D-15 for   1830.
 Iteration    1 A^-1*A deviation from orthogonality  is 2.12D-15 for    801     91.
 Error on total polarization charges =  0.01854
 SCF Done:  E(RwB97XD) =  -814.914438439     A.U. after   19 cycles
            NFock= 19  Conv=0.71D-09     -V/T= 2.0984

 **********************************************************************

            Population analysis using the SCF Density.

 **********************************************************************

 Orbital symmetries:
       Occupied  (A) (A) (A) (A) (A) (A) (A) (A) (A) (A) (A) (A)
                 (A) (A) (A) (A) (A) (A) (A) (A) (A) (A) (A) (A)
                 (A) (A) (A) (A) (A) (A) (A) (A) (A) (A) (A) (A)
                 (A) (A) (A) (A) (A) (A) (A) (A) (A) (A) (A) (A)
                 (A) (A) (A) (A) (A) (A) (A) (A) (A) (A) (A) (A)
                 (A) (A) (A) (A) (A) (A) (A) (A) (A) (A)
       Virtual   (A) (A) (A) (A) (A) (A) (A) (A) (A) (A) (A) (A)
                 (A) (A) (A) (A) (A) (A) (A) (A) (A) (A) (A) (A)
                 (A) (A) (A) (A) (A) (A) (A) (A) (A) (A) (A) (A)
                 (A) (A) (A) (A) (A) (A) (A) (A) (A) (A) (A) (A)
                 (A) (A) (A) (A) (A) (A) (A) (A) (A) (A) (A) (A)
                 (A) (A) (A) (A) (A) (A) (A) (A) (A) (A) (A) (A)
                 (A) (A) (A) (A) (A) (A) (A) (A) (A) (A) (A) (A)
                 (A) (A) (A) (A) (A) (A) (A) (A) (A) (A) (A) (A)
                 (A) (A) (A) (A) (A) (A) (A) (A) (A) (A) (A) (A)
                 (A) (A) (A) (A) (A) (A) (A) (A) (A) (A) (A) (A)
                 (A) (A) (A) (A) (A) (A) (A) (A) (A) (A) (A) (A)
                 (A) (A) (A) (A) (A) (A) (A) (A) (A) (A) (A) (A)
                 (A) (A) (A) (A) (A) (A) (A) (A) (A) (A) (A) (A)
                 (A) (A) (A) (A) (A) (A) (A) (A) (A) (A) (A) (A)
                 (A) (A) (A) (A) (A) (A) (A) (A) (A) (A) (A) (A)
                 (A) (A) (A) (A) (A) (A) (A) (A) (A) (A) (A) (A)
                 (A) (A) (A) (A) (A) (A) (A) (A) (A) (A) (A) (A)
                 (A) (A) (A) (A) (A) (A) (A) (A) (A) (A) (A) (A)
                 (A) (A) (A) (A) (A) (A) (A) (A) (A) (A) (A) (A)
                 (A) (A) (A) (A) (A) (A) (A) (A) (A) (A) (A) (A)
                 (A) (A) (A) (A) (A) (A) (A) (A) (A) (A) (A) (A)
                 (A) (A) (A) (A) (A) (A) (A) (A) (A) (A) (A) (A)
                 (A) (A) (A) (A) (A) (A) (A) (A) (A) (A) (A) (A)
                 (A) (A) (A) (A) (A) (A) (A) (A) (A) (A) (A) (A)
                 (A) (A) (A) (A) (A) (A) (A) (A) (A) (A) (A) (A)
                 (A) (A) (A) (A) (A) (A) (A) (A) (A) (A) (A) (A)
                 (A) (A) (A) (A) (A) (A) (A) (A) (A) (A) (A) (A)
                 (A) (A) (A) (A) (A) (A) (A) (A) (A) (A) (A) (A)
                 (A) (A) (A) (A) (A) (A) (A) (A) (A) (A) (A) (A)
                 (A) (A) (A) (A) (A) (A) (A) (A) (A) (A) (A) (A)
                 (A) (A) (A) (A) (A) (A) (A) (A) (A) (A) (A) (A)
                 (A) (A) (A) (A) (A) (A) (A) (A) (A) (A) (A) (A)
                 (A) (A) (A) (A) (A) (A) (A) (A) (A) (A) (A) (A)
                 (A) (A) (A) (A) (A) (A) (A) (A) (A) (A) (A) (A)
                 (A) (A) (A) (A) (A) (A) (A) (A) (A) (A) (A) (A)
                 (A) (A) (A) (A) (A) (A) (A) (A) (A) (A) (A) (A)
                 (A) (A) (A) (A) (A) (A) (A) (A) (A) (A) (A) (A)
                 (A) (A) (A) (A) (A) (A) (A) (A) (A) (A) (A) (A)
                 (A) (A) (A) (A) (A) (A) (A) (A) (A) (A) (A) (A)
                 (A) (A) (A) (A) (A) (A) (A) (A) (A) (A) (A) (A)
                 (A) (A) (A) (A) (A) (A) (A) (A) (A) (A) (A) (A)
                 (A) (A) (A) (A) (A) (A) (A) (A) (A) (A) (A) (A)
                 (A) (A) (A) (A) (A) (A) (A) (A) (A) (A) (A) (A)
                 (A) (A) (A) (A) (A) (A) (A) (A) (A) (A) (A) (A)
                 (A) (A) (A) (A) (A) (A) (A) (A) (A) (A) (A) (A)
                 (A) (A) (A) (A) (A) (A) (A) (A) (A) (A) (A) (A)
                 (A) (A) (A) (A) (A) (A) (A) (A) (A) (A) (A) (A)
                 (A) (A) (A) (A) (A) (A) (A) (A) (A) (A) (A) (A)
                 (A) (A) (A) (A) (A) (A) (A) (A) (A) (A) (A) (A)
                 (A) (A) (A) (A) (A) (A) (A) (A) (A) (A) (A) (A)
                 (A) (A) (A) (A) (A) (A) (A) (A) (A) (A) (A) (A)
                 (A) (A) (A) (A) (A) (A) (A) (A) (A) (A) (A) (A)
                 (A) (A) (A) (A) (A) (A) (A) (A) (A) (A) (A) (A)
                 (A) (A) (A) (A) (A) (A) (A) (A) (A) (A) (A) (A)
                 (A) (A) (A) (A) (A) (A) (A) (A) (A) (A) (A) (A)
                 (A) (A) (A) (A) (A) (A) (A) (A) (A) (A) (A) (A)
                 (A) (A) (A) (A) (A) (A) (A) (A) (A) (A) (A) (A)
                 (A) (A) (A) (A) (A) (A) (A) (A) (A) (A) (A) (A)
                 (A) (A) (A) (A) (A) (A) (A) (A) (A) (A) (A) (A)
                 (A) (A) (A) (A) (A) (A) (A) (A) (A) (A) (A) (A)
                 (A) (A) (A) (A) (A) (A) (A) (A) (A) (A) (A) (A)
                 (A) (A) (A) (A) (A) (A) (A) (A) (A) (A) (A) (A)
                 (A) (A) (A) (A) (A) (A) (A) (A) (A) (A) (A) (A)
                 (A) (A) (A) (A) (A) (A) (A) (A) (A) (A) (A) (A)
                 (A) (A) (A) (A) (A) (A) (A) (A) (A) (A) (A) (A)
                 (A) (A) (A) (A) (A) (A) (A) (A) (A) (A) (A) (A)
                 (A) (A) (A) (A) (A) (A) (A) (A) (A) (A) (A) (A)
 The electronic state is 1-A.
 Alpha  occ. eigenvalues --  -19.34981 -14.52122 -14.52058 -14.50635 -10.42122
 Alpha  occ. eigenvalues --  -10.37772 -10.37494 -10.35958 -10.35816 -10.33529
 Alpha  occ. eigenvalues --  -10.33390 -10.33330 -10.33300 -10.33252 -10.32912
 Alpha  occ. eigenvalues --  -10.31523  -3.75248  -2.09752  -2.09190  -2.06168
 Alpha  occ. eigenvalues --   -1.28188  -1.10853  -1.07659  -1.06709  -0.93717
 Alpha  occ. eigenvalues --   -0.91909  -0.85632  -0.83893  -0.83441  -0.83386
 Alpha  occ. eigenvalues --   -0.82762  -0.77104  -0.75740  -0.72745  -0.72319
 Alpha  occ. eigenvalues --   -0.69084  -0.65078  -0.62584  -0.61600  -0.60357
 Alpha  occ. eigenvalues --   -0.60050  -0.59627  -0.58716  -0.58363  -0.57878
 Alpha  occ. eigenvalues --   -0.55618  -0.55225  -0.54299  -0.53212  -0.52502
 Alpha  occ. eigenvalues --   -0.52095  -0.51745  -0.50759  -0.50596  -0.49513
 Alpha  occ. eigenvalues --   -0.48858  -0.48608  -0.47991  -0.47716  -0.46971
 Alpha  occ. eigenvalues --   -0.46025  -0.45407  -0.44892  -0.39414  -0.37823
 Alpha  occ. eigenvalues --   -0.37417  -0.30519  -0.28441  -0.27626  -0.26690
 Alpha virt. eigenvalues --   -0.00445   0.01396   0.06996   0.08042   0.08226
 Alpha virt. eigenvalues --    0.09539   0.10280   0.10567   0.12274   0.13281
 Alpha virt. eigenvalues --    0.13655   0.13712   0.14075   0.14163   0.15205
 Alpha virt. eigenvalues --    0.15308   0.15335   0.16284   0.16516   0.16894
 Alpha virt. eigenvalues --    0.17218   0.17666   0.18992   0.19724   0.19773
 Alpha virt. eigenvalues --    0.20316   0.20495   0.20810   0.21006   0.21424
 Alpha virt. eigenvalues --    0.22095   0.22684   0.22851   0.23331   0.23963
 Alpha virt. eigenvalues --    0.24263   0.24701   0.24758   0.25333   0.26978
 Alpha virt. eigenvalues --    0.28070   0.28378   0.28890   0.29150   0.30043
 Alpha virt. eigenvalues --    0.30454   0.30499   0.31635   0.32309   0.32671
 Alpha virt. eigenvalues --    0.33041   0.33720   0.34329   0.34700   0.35212
 Alpha virt. eigenvalues --    0.35527   0.36941   0.37817   0.37998   0.38285
 Alpha virt. eigenvalues --    0.38879   0.39429   0.39550   0.39947   0.40823
 Alpha virt. eigenvalues --    0.41200   0.41857   0.42667   0.42982   0.43301
 Alpha virt. eigenvalues --    0.44336   0.44449   0.44875   0.45481   0.45727
 Alpha virt. eigenvalues --    0.46047   0.46548   0.46971   0.47258   0.48090
 Alpha virt. eigenvalues --    0.48341   0.48577   0.48916   0.49051   0.49418
 Alpha virt. eigenvalues --    0.49610   0.50198   0.50309   0.50467   0.50711
 Alpha virt. eigenvalues --    0.51483   0.51837   0.52468   0.52868   0.53429
 Alpha virt. eigenvalues --    0.54040   0.54560   0.55503   0.56084   0.56274
 Alpha virt. eigenvalues --    0.56623   0.57752   0.58084   0.58721   0.58997
 Alpha virt. eigenvalues --    0.59396   0.59815   0.60110   0.60981   0.61354
 Alpha virt. eigenvalues --    0.61988   0.63276   0.63833   0.63942   0.64886
 Alpha virt. eigenvalues --    0.65384   0.65871   0.67289   0.67906   0.68522
 Alpha virt. eigenvalues --    0.69308   0.69844   0.70303   0.70558   0.72002
 Alpha virt. eigenvalues --    0.72407   0.72515   0.73064   0.73371   0.74531
 Alpha virt. eigenvalues --    0.74873   0.76289   0.77308   0.78170   0.79585
 Alpha virt. eigenvalues --    0.81009   0.81687   0.81985   0.83096   0.84189
 Alpha virt. eigenvalues --    0.84857   0.85052   0.85438   0.86651   0.87167
 Alpha virt. eigenvalues --    0.87833   0.88381   0.89232   0.89670   0.90138
 Alpha virt. eigenvalues --    0.90270   0.91050   0.92017   0.92918   0.93932
 Alpha virt. eigenvalues --    0.94185   0.95202   0.95366   0.95982   0.96440
 Alpha virt. eigenvalues --    0.97259   0.97948   0.98403   0.98469   0.99411
 Alpha virt. eigenvalues --    1.00453   1.01430   1.01679   1.02436   1.03291
 Alpha virt. eigenvalues --    1.03806   1.04117   1.04814   1.04933   1.05587
 Alpha virt. eigenvalues --    1.06585   1.06958   1.07708   1.07801   1.08570
 Alpha virt. eigenvalues --    1.08624   1.08975   1.09366   1.09664   1.10769
 Alpha virt. eigenvalues --    1.11314   1.12559   1.13102   1.14128   1.14467
 Alpha virt. eigenvalues --    1.15083   1.16559   1.17394   1.17834   1.18773
 Alpha virt. eigenvalues --    1.19551   1.19625   1.19920   1.20398   1.21118
 Alpha virt. eigenvalues --    1.21894   1.22539   1.22789   1.24422   1.24631
 Alpha virt. eigenvalues --    1.25391   1.26768   1.27108   1.27878   1.28544
 Alpha virt. eigenvalues --    1.28973   1.29443   1.29863   1.30959   1.31094
 Alpha virt. eigenvalues --    1.31949   1.32887   1.33263   1.33925   1.34229
 Alpha virt. eigenvalues --    1.35421   1.36453   1.36545   1.37162   1.37666
 Alpha virt. eigenvalues --    1.38320   1.38730   1.38873   1.39785   1.40722
 Alpha virt. eigenvalues --    1.41214   1.41360   1.41906   1.42762   1.43203
 Alpha virt. eigenvalues --    1.43742   1.44212   1.45898   1.46443   1.46782
 Alpha virt. eigenvalues --    1.47583   1.47890   1.48570   1.49084   1.50203
 Alpha virt. eigenvalues --    1.50830   1.51413   1.51882   1.52410   1.53032
 Alpha virt. eigenvalues --    1.53797   1.54681   1.54757   1.55325   1.56289
 Alpha virt. eigenvalues --    1.56741   1.57402   1.58213   1.58914   1.59256
 Alpha virt. eigenvalues --    1.59679   1.60571   1.60963   1.61863   1.62750
 Alpha virt. eigenvalues --    1.63460   1.63925   1.64713   1.64987   1.65989
 Alpha virt. eigenvalues --    1.67466   1.67613   1.68458   1.69225   1.70103
 Alpha virt. eigenvalues --    1.70563   1.70699   1.72273   1.72814   1.73274
 Alpha virt. eigenvalues --    1.74870   1.75363   1.76629   1.77491   1.77701
 Alpha virt. eigenvalues --    1.79913   1.81347   1.81605   1.81694   1.82250
 Alpha virt. eigenvalues --    1.82889   1.83786   1.84582   1.85934   1.86269
 Alpha virt. eigenvalues --    1.87736   1.89198   1.89743   1.90077   1.91901
 Alpha virt. eigenvalues --    1.92747   1.93692   1.95123   1.95994   1.96443
 Alpha virt. eigenvalues --    1.97355   1.98141   1.99530   2.00518   2.01647
 Alpha virt. eigenvalues --    2.05020   2.05707   2.07717   2.08474   2.10057
 Alpha virt. eigenvalues --    2.10743   2.12743   2.13252   2.15248   2.15518
 Alpha virt. eigenvalues --    2.18126   2.19427   2.19898   2.21098   2.21293
 Alpha virt. eigenvalues --    2.22412   2.23565   2.24744   2.27353   2.27533
 Alpha virt. eigenvalues --    2.27572   2.28950   2.30496   2.31198   2.33009
 Alpha virt. eigenvalues --    2.34510   2.35065   2.36830   2.37693   2.39001
 Alpha virt. eigenvalues --    2.40910   2.43510   2.44984   2.47954   2.49138
 Alpha virt. eigenvalues --    2.50453   2.52595   2.54471   2.57011   2.57477
 Alpha virt. eigenvalues --    2.57986   2.58732   2.60954   2.63517   2.63996
 Alpha virt. eigenvalues --    2.64271   2.64975   2.65121   2.66552   2.67519
 Alpha virt. eigenvalues --    2.67579   2.68103   2.68254   2.70314   2.71005
 Alpha virt. eigenvalues --    2.72162   2.72348   2.72771   2.73750   2.75772
 Alpha virt. eigenvalues --    2.76806   2.77309   2.78248   2.79384   2.80921
 Alpha virt. eigenvalues --    2.81255   2.81957   2.82314   2.83624   2.84402
 Alpha virt. eigenvalues --    2.85122   2.85571   2.85771   2.86973   2.87174
 Alpha virt. eigenvalues --    2.87988   2.88647   2.89482   2.89752   2.90767
 Alpha virt. eigenvalues --    2.90955   2.91800   2.92675   2.93246   2.93360
 Alpha virt. eigenvalues --    2.94143   2.95179   2.95261   2.95849   2.96059
 Alpha virt. eigenvalues --    2.97484   2.97607   2.98489   2.99652   2.99779
 Alpha virt. eigenvalues --    3.00071   3.00313   3.00544   3.01562   3.01918
 Alpha virt. eigenvalues --    3.02484   3.02693   3.04034   3.04263   3.05253
 Alpha virt. eigenvalues --    3.06703   3.06959   3.07267   3.07867   3.08785
 Alpha virt. eigenvalues --    3.09247   3.09392   3.09528   3.11680   3.12024
 Alpha virt. eigenvalues --    3.12511   3.13225   3.13374   3.14395   3.15855
 Alpha virt. eigenvalues --    3.15955   3.16164   3.16747   3.18037   3.18773
 Alpha virt. eigenvalues --    3.19391   3.20659   3.21128   3.21304   3.22896
 Alpha virt. eigenvalues --    3.23148   3.23769   3.23936   3.24669   3.25061
 Alpha virt. eigenvalues --    3.25490   3.25680   3.26643   3.27125   3.27977
 Alpha virt. eigenvalues --    3.28500   3.29266   3.30311   3.30502   3.31003
 Alpha virt. eigenvalues --    3.31811   3.32293   3.33257   3.33988   3.34229
 Alpha virt. eigenvalues --    3.35244   3.36271   3.36915   3.37713   3.37731
 Alpha virt. eigenvalues --    3.38049   3.38517   3.39123   3.40332   3.41276
 Alpha virt. eigenvalues --    3.41880   3.42439   3.42666   3.44027   3.44323
 Alpha virt. eigenvalues --    3.45189   3.45663   3.46233   3.46516   3.47107
 Alpha virt. eigenvalues --    3.47377   3.47568   3.47888   3.48989   3.49794
 Alpha virt. eigenvalues --    3.50402   3.50991   3.51612   3.52010   3.52408
 Alpha virt. eigenvalues --    3.54545   3.54853   3.55458   3.55713   3.56634
 Alpha virt. eigenvalues --    3.57403   3.57899   3.58089   3.58699   3.59065
 Alpha virt. eigenvalues --    3.60653   3.61602   3.61976   3.62328   3.62893
 Alpha virt. eigenvalues --    3.63633   3.64747   3.65095   3.65416   3.66214
 Alpha virt. eigenvalues --    3.66425   3.66854   3.67180   3.67448   3.68018
 Alpha virt. eigenvalues --    3.69554   3.70668   3.71515   3.72373   3.72888
 Alpha virt. eigenvalues --    3.73694   3.74459   3.74654   3.75840   3.75986
 Alpha virt. eigenvalues --    3.76737   3.76974   3.78398   3.78842   3.79290
 Alpha virt. eigenvalues --    3.80458   3.80917   3.81361   3.82036   3.82382
 Alpha virt. eigenvalues --    3.83142   3.84311   3.85093   3.85734   3.86974
 Alpha virt. eigenvalues --    3.88159   3.89021   3.89670   3.90122   3.90964
 Alpha virt. eigenvalues --    3.92092   3.92579   3.93203   3.94261   3.94856
 Alpha virt. eigenvalues --    3.95842   3.96850   3.97115   3.97946   3.98827
 Alpha virt. eigenvalues --    3.99539   3.99622   4.00269   4.01095   4.02313
 Alpha virt. eigenvalues --    4.02596   4.03758   4.04320   4.06049   4.06491
 Alpha virt. eigenvalues --    4.06786   4.08210   4.09118   4.09172   4.10407
 Alpha virt. eigenvalues --    4.11545   4.11932   4.12181   4.13123   4.14025
 Alpha virt. eigenvalues --    4.14470   4.15363   4.16598   4.17194   4.17737
 Alpha virt. eigenvalues --    4.18724   4.19225   4.19357   4.20203   4.20523
 Alpha virt. eigenvalues --    4.20885   4.21124   4.21584   4.21873   4.22569
 Alpha virt. eigenvalues --    4.22663   4.23871   4.24660   4.24765   4.25339
 Alpha virt. eigenvalues --    4.26056   4.26988   4.27274   4.28003   4.28574
 Alpha virt. eigenvalues --    4.29382   4.29718   4.30800   4.31266   4.32046
 Alpha virt. eigenvalues --    4.32365   4.32767   4.33786   4.34613   4.35242
 Alpha virt. eigenvalues --    4.35615   4.36626   4.37117   4.37741   4.38099
 Alpha virt. eigenvalues --    4.39670   4.40613   4.41924   4.42398   4.43780
 Alpha virt. eigenvalues --    4.44607   4.44763   4.45702   4.46740   4.47677
 Alpha virt. eigenvalues --    4.48375   4.50022   4.50690   4.51269   4.52107
 Alpha virt. eigenvalues --    4.53166   4.54317   4.55990   4.56256   4.57399
 Alpha virt. eigenvalues --    4.59432   4.62165   4.63960   4.65926   4.66796
 Alpha virt. eigenvalues --    4.67337   4.69189   4.70304   4.71470   4.73008
 Alpha virt. eigenvalues --    4.74211   4.74344   4.75372   4.76584   4.77684
 Alpha virt. eigenvalues --    4.78689   4.79574   4.79768   4.81083   4.82987
 Alpha virt. eigenvalues --    4.83834   4.85863   4.87041   4.87782   4.90041
 Alpha virt. eigenvalues --    4.90570   4.91469   4.91939   4.92279   4.93914
 Alpha virt. eigenvalues --    4.94087   4.96470   4.97705   5.00613   5.01633
 Alpha virt. eigenvalues --    5.02797   5.03619   5.04017   5.04768   5.05298
 Alpha virt. eigenvalues --    5.07239   5.08283   5.09299   5.10056   5.11247
 Alpha virt. eigenvalues --    5.11470   5.12736   5.13228   5.15674   5.16214
 Alpha virt. eigenvalues --    5.16923   5.17674   5.18314   5.19191   5.20203
 Alpha virt. eigenvalues --    5.21076   5.21305   5.22602   5.22901   5.23820
 Alpha virt. eigenvalues --    5.24579   5.25707   5.26786   5.27497   5.27684
 Alpha virt. eigenvalues --    5.29080   5.29526   5.30224   5.31602   5.32334
 Alpha virt. eigenvalues --    5.33046   5.35096   5.35692   5.35910   5.36274
 Alpha virt. eigenvalues --    5.37174   5.37933   5.39098   5.39526   5.39661
 Alpha virt. eigenvalues --    5.40301   5.40643   5.42329   5.43600   5.43843
 Alpha virt. eigenvalues --    5.44926   5.47402   5.47949   5.50088   5.50408
 Alpha virt. eigenvalues --    5.51063   5.51351   5.51957   5.52891   5.53912
 Alpha virt. eigenvalues --    5.55322   5.55599   5.56430   5.59043   5.60779
 Alpha virt. eigenvalues --    5.61874   5.62478   5.63857   5.64866   5.65260
 Alpha virt. eigenvalues --    5.65718   5.67041   5.67644   5.67895   5.68654
 Alpha virt. eigenvalues --    5.71089   5.72917   5.73182   5.73742   5.74748
 Alpha virt. eigenvalues --    5.76019   5.76207   5.76753   5.77958   5.78341
 Alpha virt. eigenvalues --    5.79128   5.79760   5.82829   5.88468   5.89927
 Alpha virt. eigenvalues --    5.90655   6.03929   6.07463   6.07712   6.07930
 Alpha virt. eigenvalues --    6.12003   6.12807   6.14594   6.18726   6.20219
 Alpha virt. eigenvalues --    6.26422   6.29446   6.30440   6.34784   6.35145
 Alpha virt. eigenvalues --    6.64082   6.67114   6.81957   6.82388   6.95936
 Alpha virt. eigenvalues --    7.27434   7.34844   7.55683  22.88843  23.08465
 Alpha virt. eigenvalues --   23.27821  23.38757  23.43040  23.49743  23.69420
 Alpha virt. eigenvalues --   23.71688  23.75746  23.76009  23.79070  23.84224
 Alpha virt. eigenvalues --   32.88010  32.88198  33.07879  34.40908  40.98999
 Alpha virt. eigenvalues --   42.83404  44.12563  59.74576 363.45091
          Condensed to atoms (all electrons):
               1          2          3          4          5          6
     1  C    5.095659  -0.069738   0.539218  -0.037027  -0.051162  -0.020086
     2  C   -0.069738   5.202466  -0.031475   0.394085  -0.021733  -0.001846
     3  C    0.539218  -0.031475   4.938348  -0.013736   0.478508   0.418023
     4  C   -0.037027   0.394085  -0.013736   5.205982   0.441989   0.010035
     5  C   -0.051162  -0.021733   0.478508   0.441989   4.625917  -0.035786
     6  H   -0.020086  -0.001846   0.418023   0.010035  -0.035786   0.500004
     7  H    0.000815   0.004710   0.001563   0.403289  -0.035599  -0.000151
     8  O    0.001317   0.007861  -0.050835  -0.075757   0.368819   0.003693
     9  N    0.368658   0.381950  -0.057371  -0.065041  -0.006231   0.002849
    10  C    0.254616  -0.004129  -0.059712   0.001239   0.007577  -0.004567
    11  H   -0.029537   0.000869  -0.002368   0.000089  -0.000256   0.000179
    12  H   -0.052582  -0.000193  -0.001787  -0.000210   0.000954   0.000356
    13  C   -0.005010   0.235034   0.003225  -0.045976   0.001637   0.000112
    14  H    0.000934  -0.028105   0.000070  -0.002939  -0.000126   0.000001
    15  H   -0.000162  -0.052422  -0.000229  -0.002720   0.001025  -0.000004
    16  N   -0.032870   0.002968   0.003219   0.000135  -0.000450   0.000162
    17  N    0.003149  -0.029002  -0.000100   0.002160  -0.000018  -0.000003
    18  C    0.000821   0.000812   0.000006   0.000005  -0.000005   0.000001
    19  H    0.000014   0.000010  -0.000003   0.000001   0.000011  -0.000000
    20  H   -0.000031  -0.000031   0.000001  -0.000001  -0.000000  -0.000000
    21  H   -0.000030  -0.000028  -0.000001   0.000002  -0.000000   0.000000
    22  C    0.013786  -0.000009  -0.000428   0.000054   0.000004  -0.000012
    23  H   -0.000831  -0.000033   0.000039   0.000002  -0.000002   0.000000
    24  H    0.001830   0.000012   0.000008  -0.000005   0.000002   0.000011
    25  H   -0.001842   0.000048  -0.000179   0.000002   0.000007  -0.000006
    26  C    0.005665  -0.000415   0.005362  -0.000045  -0.000485  -0.000003
    27  H   -0.004741  -0.000030  -0.000324   0.000011   0.000008  -0.000018
    28  H   -0.000587   0.000082  -0.000172   0.000007   0.000015  -0.000004
    29  H    0.012659  -0.000745   0.005235   0.000220  -0.000442   0.000189
    30  C   -0.000039   0.013118   0.000088  -0.000227  -0.000059   0.000001
    31  H    0.000013   0.001923  -0.000006   0.000036   0.000003  -0.000000
    32  H   -0.000031  -0.000822   0.000002   0.000034  -0.000001   0.000000
    33  H    0.000041  -0.001983   0.000004  -0.000174   0.000003   0.000000
    34  C   -0.000482   0.005903   0.000059   0.005590  -0.000504   0.000002
    35  H    0.000081  -0.000566   0.000005  -0.000146   0.000012  -0.000000
    36  H   -0.000032  -0.004820   0.000010  -0.000412   0.000012  -0.000000
    37  H   -0.000755   0.013024   0.000212   0.005316  -0.000431   0.000003
    38  H    0.000160   0.000083   0.000044   0.000034  -0.000007   0.000000
    39  Ir  -0.074958  -0.076493   0.003005   0.002933   0.001291  -0.000415
    40  H   -0.000837   0.011727   0.001733  -0.029220  -0.053516  -0.000960
               7          8          9         10         11         12
     1  C    0.000815   0.001317   0.368658   0.254616  -0.029537  -0.052582
     2  C    0.004710   0.007861   0.381950  -0.004129   0.000869  -0.000193
     3  C    0.001563  -0.050835  -0.057371  -0.059712  -0.002368  -0.001787
     4  C    0.403289  -0.075757  -0.065041   0.001239   0.000089  -0.000210
     5  C   -0.035599   0.368819  -0.006231   0.007577  -0.000256   0.000954
     6  H   -0.000151   0.003693   0.002849  -0.004567   0.000179   0.000356
     7  H    0.514314  -0.001632   0.002929   0.000046   0.000001  -0.000003
     8  O   -0.001632   7.637962   0.000539  -0.000071   0.000002  -0.000005
     9  N    0.002929   0.000539   6.366609  -0.014866  -0.007547   0.003998
    10  C    0.000046  -0.000071  -0.014866   4.923366   0.434159   0.441531
    11  H    0.000001   0.000002  -0.007547   0.434159   0.521998  -0.014034
    12  H   -0.000003  -0.000005   0.003998   0.441531  -0.014034   0.523139
    13  C   -0.004886  -0.000327  -0.014641  -0.002523  -0.000032   0.000067
    14  H    0.000075   0.000001  -0.007818  -0.000069  -0.000041  -0.000001
    15  H    0.000666   0.000008   0.004118   0.000069  -0.000001  -0.000001
    16  N   -0.000000   0.000001  -0.017796   0.256813  -0.035387  -0.024463
    17  N    0.000137   0.000003  -0.018423   0.000585   0.000110  -0.000042
    18  C    0.000001   0.000000  -0.007134   0.000754   0.000085  -0.000023
    19  H   -0.000000  -0.000000   0.000007  -0.000357  -0.000014   0.000005
    20  H    0.000000   0.000000   0.000146  -0.000042   0.000005   0.000002
    21  H   -0.000000   0.000000   0.000144   0.000056  -0.000002   0.000000
    22  C    0.000001  -0.000000  -0.002533  -0.042357  -0.004252  -0.006115
    23  H    0.000000   0.000000  -0.000012   0.008979   0.000447  -0.000463
    24  H   -0.000000  -0.000000   0.000190  -0.010610  -0.002663   0.004484
    25  H    0.000000  -0.000000  -0.000035  -0.004975   0.002528  -0.000224
    26  C    0.000002   0.000001  -0.002998  -0.034290   0.005943  -0.013121
    27  H   -0.000000   0.000000   0.000442  -0.007918  -0.000207   0.005923
    28  H   -0.000000  -0.000000   0.000196   0.007051  -0.000190  -0.000105
    29  H    0.000004  -0.000004  -0.003976  -0.014847   0.000268  -0.003324
    30  C    0.000000  -0.000000  -0.002473  -0.000163  -0.000010   0.000001
    31  H    0.000010   0.000000   0.000182   0.000004  -0.000000  -0.000000
    32  H   -0.000000   0.000000  -0.000015  -0.000010   0.000000   0.000000
    33  H   -0.000006  -0.000000  -0.000017  -0.000035  -0.000000   0.000000
    34  C   -0.000005   0.000002  -0.003044   0.000101  -0.000001   0.000004
    35  H   -0.000004  -0.000000   0.000190  -0.000022  -0.000000   0.000000
    36  H   -0.000019   0.000000   0.000451   0.000001   0.000000   0.000000
    37  H    0.000182  -0.000003  -0.003976   0.000043  -0.000003  -0.000002
    38  H    0.000000  -0.000000  -0.000552  -0.000564  -0.000159   0.000002
    39  Ir  -0.000401   0.000129   0.266258  -0.044557  -0.004564   0.011893
    40  H    0.007692   0.330191   0.000126   0.000037  -0.000001   0.000000
              13         14         15         16         17         18
     1  C   -0.005010   0.000934  -0.000162  -0.032870   0.003149   0.000821
     2  C    0.235034  -0.028105  -0.052422   0.002968  -0.029002   0.000812
     3  C    0.003225   0.000070  -0.000229   0.003219  -0.000100   0.000006
     4  C   -0.045976  -0.002939  -0.002720   0.000135   0.002160   0.000005
     5  C    0.001637  -0.000126   0.001025  -0.000450  -0.000018  -0.000005
     6  H    0.000112   0.000001  -0.000004   0.000162  -0.000003   0.000001
     7  H   -0.004886   0.000075   0.000666  -0.000000   0.000137   0.000001
     8  O   -0.000327   0.000001   0.000008   0.000001   0.000003   0.000000
     9  N   -0.014641  -0.007818   0.004118  -0.017796  -0.018423  -0.007134
    10  C   -0.002523  -0.000069   0.000069   0.256813   0.000585   0.000754
    11  H   -0.000032  -0.000041  -0.000001  -0.035387   0.000110   0.000085
    12  H    0.000067  -0.000001  -0.000001  -0.024463  -0.000042  -0.000023
    13  C    4.941420   0.432409   0.441814   0.000588   0.254218   0.000747
    14  H    0.432409   0.521988  -0.014153   0.000119  -0.034986   0.000087
    15  H    0.441814  -0.014153   0.523819  -0.000043  -0.024357  -0.000024
    16  N    0.000588   0.000119  -0.000043   6.377100  -0.006808   0.004908
    17  N    0.254218  -0.034986  -0.024357  -0.006808   6.377121   0.004873
    18  C    0.000747   0.000087  -0.000024   0.004908   0.004873   4.903852
    19  H   -0.000367  -0.000015   0.000006  -0.001909  -0.001908   0.369072
    20  H    0.000057  -0.000002   0.000000  -0.000944   0.000122   0.422061
    21  H   -0.000042   0.000006   0.000002   0.000119  -0.000950   0.422197
    22  C   -0.000168  -0.000010   0.000001   0.254277   0.000611  -0.002243
    23  H   -0.000009   0.000000   0.000000  -0.030597   0.000059   0.001583
    24  H    0.000004  -0.000000  -0.000000  -0.018179  -0.000015  -0.000132
    25  H   -0.000036   0.000000   0.000000  -0.037853   0.000084   0.000037
    26  C    0.000102  -0.000000   0.000004   0.252109   0.000742  -0.000248
    27  H    0.000001   0.000000   0.000000  -0.021499  -0.000031  -0.000206
    28  H   -0.000025  -0.000000   0.000000  -0.033244   0.000166   0.000133
    29  H    0.000041  -0.000002  -0.000002  -0.031774   0.000269   0.000252
    30  C   -0.041729  -0.004219  -0.006145   0.000610   0.253725  -0.002217
    31  H   -0.010839  -0.002648   0.004473  -0.000015  -0.018035  -0.000136
    32  H    0.008980   0.000434  -0.000459   0.000059  -0.030583   0.001603
    33  H   -0.004785   0.002555  -0.000234   0.000084  -0.037930   0.000039
    34  C   -0.035086   0.006032  -0.013424   0.000736   0.252073  -0.000256
    35  H    0.006944  -0.000191  -0.000110   0.000165  -0.033225   0.000167
    36  H   -0.007765  -0.000211   0.005990  -0.000031  -0.021518  -0.000207
    37  H   -0.015086   0.000277  -0.003342   0.000267  -0.031851   0.000247
    38  H   -0.000534  -0.000169   0.000004  -0.004805  -0.004798   0.236733
    39  Ir  -0.042949  -0.004645   0.012035   0.192146   0.192140  -0.015913
    40  H   -0.000513   0.000005   0.000021  -0.000001   0.000006   0.000000
              19         20         21         22         23         24
     1  C    0.000014  -0.000031  -0.000030   0.013786  -0.000831   0.001830
     2  C    0.000010  -0.000031  -0.000028  -0.000009  -0.000033   0.000012
     3  C   -0.000003   0.000001  -0.000001  -0.000428   0.000039   0.000008
     4  C    0.000001  -0.000001   0.000002   0.000054   0.000002  -0.000005
     5  C    0.000011  -0.000000  -0.000000   0.000004  -0.000002   0.000002
     6  H   -0.000000  -0.000000   0.000000  -0.000012   0.000000   0.000011
[...]
 01751,0.00001650,-0.00013942,0.00005523,0.00011625,0.00001197,0.000010
 10,0.00000231,0.00001096,-0.00007191,-0.00001289,-0.00000475,0.0000281
 0,0.00001077,-0.00005138,-0.00015885,-0.00018373,-0.00001273,-0.000062
 68,0.00008520,0.00000677,0.00001050,0.00000104,-0.00000224,0.00001613,
 0.00000241,-0.00074003,0.00153257,0.00123287,0.00063918,0.00052371,-0.
 00073505,0.00006263,-0.00015076,-0.00005563,-0.00003644,0.00038301,0.0
 0005202,0.04542563,-0.29674918,-0.00955637,-0.00013603,-0.00425821,0.0
 0033288,-0.05076573,0.32251699,-0.00003991,-0.00005365,-0.00000892,-0.
 00024133,0.00017528,0.00006640,0.00001628,0.00002516,0.00000116,-0.000
 08517,-0.00007042,0.00001882,0.00002879,0.00004706,0.00000543,-0.00000
 366,-0.00000332,-0.00000505,-0.00000988,-0.00000064,0.00000530,-0.0000
 7670,-0.00000178,0.00000203,0.00035929,0.00011463,-0.00000492,0.000173
 60,0.00002211,0.00008068,-0.00001043,0.00000262,-0.00001196,-0.0000325
 8,-0.00001527,-0.00000657,0.00303147,-0.00195737,0.00072000,0.00013125
 ,0.00017590,0.00020758,-0.00062469,0.00065482,0.00006480,0.00001042,-0
 .00068894,0.00088258,0.00534854,-0.03711336,-0.01382556,0.00003706,0.0
 0010291,-0.00010962,-0.00004839,-0.00009214,0.00000521,0.00002280,-0.0
 0000433,0.00004938,0.00007151,-0.00001407,-0.00002303,-0.00011950,0.00
 008939,0.00012650,0.00001104,-0.00000154,-0.00000086,0.00001217,-0.000
 04354,-0.00002702,0.00000390,0.00001473,-0.00002215,-0.00006478,-0.000
 26196,-0.00017231,-0.00001378,-0.00008509,0.00011080,0.00000271,-0.000
 00114,-0.00000495,-0.00000846,-0.00000623,-0.00000184,-0.00095484,-0.0
 0325485,0.00181103,-0.00000959,0.00092754,0.00010989,0.00007498,0.0002
 5965,-0.00010772,-0.00016743,0.00041534,0.00021985,0.00050360,-0.00377
 696,-0.05084977,-0.00055769,0.01063629,0.00129526,-0.00151431,0.016870
 83,0.05984477,0.00008304,0.00004014,-0.00005686,0.00009637,-0.00028666
 ,0.00002930,-0.00008654,0.00009674,0.00000532,0.00008459,0.00018240,0.
 00005215,-0.00004187,-0.00018273,-0.00002613,-0.00000293,0.00000405,0.
 00001324,-0.00001144,0.00000390,-0.00001103,0.00001697,0.00003407,0.00
 000661,0.00001235,0.00000413,-0.00009359,0.00001832,0.00001556,0.00000
 494,-0.00000202,0.00001264,-0.00000187,-0.00000277,0.00000271,0.000005
 62,0.00049888,0.00069959,-0.00050040,0.00008295,0.00003712,0.00017018,
 0.00009571,0.00011403,-0.00009199,-0.00000011,0.00010668,-0.00005932,0
 .00190003,0.00218705,-0.00312349,-0.00014715,0.00002374,0.00009180,0.0
 0002753,-0.00009075,0.00003053,0.00000497,0.00004204,0.00001129,0.0000
 9149,-0.00000120,-0.00001552,-0.00000317,-0.00000338,-0.00002712,-0.00
 000182,-0.00000123,0.00000215,-0.00000052,-0.00000453,0.00001401,-0.00
 000197,0.00000433,0.00001366,-0.00001268,0.00000363,0.00002812,0.00000
 573,0.00000263,-0.00000879,-0.00000919,0.00000786,0.00000635,0.0000183
 2,0.00001888,0.00000401,0.00038235,0.00036562,-0.00044816,-0.00005711,
 -0.00013616,0.00001434,0.00048205,0.00001703,-0.00007913,0.00047758,-0
 .00023395,0.00002892,-0.17868309,-0.09621070,0.10137345,-0.01680057,-0
 .01509105,0.01575942,0.00523098,0.00420233,-0.00468268,0.18596757,-0.0
 0002314,-0.00003232,-0.00000192,-0.00004905,0.00022258,-0.00007546,0.0
 0001699,-0.00002895,0.00000261,0.00001252,-0.00002870,0.00000020,-0.00
 002769,0.00003144,-0.00001517,0.00000257,-0.00000151,0.00000233,0.0000
 2338,-0.00000195,0.00002184,0.00003353,-0.00001301,-0.00000490,-0.0001
 8874,0.00003049,-0.00010335,-0.00002323,-0.00000730,-0.00001102,0.0000
 0167,0.00000036,0.00000330,0.00000374,0.00000213,-0.00000329,0.0000919
 1,0.00043256,0.00026897,0.00012858,-0.00013359,-0.00003618,-0.00010335
 ,-0.00040953,0.00002111,-0.00004386,0.00012729,0.00002659,0.00958774,0
 .00546510,-0.00764584,-0.00001330,-0.00001045,-0.00005654,-0.00000736,
 0.00001221,0.00001854,-0.00000131,-0.00000543,0.00001402,-0.00003099,0
 .00000460,-0.00000749,0.00002180,0.00001379,-0.00001055,0.00000005,-0.
 00000066,-0.00000134,-0.00000730,0.00001388,0.00000422,-0.00000082,0.0
 0000638,0.00000615,0.00001602,-0.00000233,-0.00000415,0.00000004,0.000
 01566,0.00000678,0.00000294,-0.00000426,0.00000078,-0.00002075,-0.0000
 2010,0.00000521,-0.00035550,-0.00008205,-0.00115854,0.00008406,0.00046
 019,-0.00041382,-0.00009158,-0.00018370,-0.00005724,0.00010100,0.00051
 148,-0.00044218,-0.09882788,-0.12147173,0.07731732,0.00532007,0.003427
 17,-0.00445790,-0.02096588,-0.01305174,0.01581313,0.10431770,0.1257714
 6,-0.00003511,-0.00012488,-0.00003137,-0.00059168,-0.00020742,0.000031
 49,0.00004027,0.00004250,-0.00001178,-0.00007292,-0.00002392,0.0000274
 9,-0.00014790,-0.00000675,-0.00000794,0.00000294,0.00000243,0.00000353
 ,0.00000989,-0.00000190,0.00000643,0.00010130,-0.00000025,-0.00000690,
 0.00018252,-0.00018995,-0.00005891,0.00003967,-0.00002315,0.00002790,-
 0.00001403,0.00000090,-0.00000361,-0.00001528,0.00000424,-0.00000607,0
 .00158567,0.00047593,0.00075682,0.00013204,0.00001907,0.00018862,-0.00
 024599,0.00016163,-0.00009230,-0.00003729,-0.00027953,-0.00002141,0.02
 390981,0.01585734,-0.02266454,-0.00001390,-0.00001822,-0.00012251,-0.0
 0004590,-0.00003533,-0.00003081,-0.00000990,0.00000556,0.00000729,-0.0
 0001201,0.00001627,-0.00001327,-0.00002016,-0.00001152,0.00001228,-0.0
 0000007,-0.00000378,0.00000197,0.00001051,-0.00000114,-0.00001847,0.00
 000407,-0.00000390,-0.00001932,0.00000259,0.00003001,-0.00002870,-0.00
 000331,-0.00000229,-0.00000150,-0.00000283,0.00000063,0.00000468,0.000
 00354,-0.00000503,0.00000855,-0.00209700,-0.00327038,-0.00548083,-0.00
 013502,0.00005491,0.00005854,0.00004922,-0.00014917,0.00023838,0.00126
 423,0.00107559,-0.00106598,0.09346901,0.07075294,-0.12417627,-0.007384
 23,-0.00643635,0.00755994,-0.00176379,-0.00071206,0.00207578,-0.108041
 67,-0.07775017,0.14278937,-0.00031894,0.00065441,0.00019423,-0.0003729
 0,-0.00066685,0.00020157,0.00033958,-0.00116926,-0.00004132,0.00046641
 ,0.00123087,-0.00005674,-0.00169713,-0.00016825,0.00009320,-0.00003773
 ,0.00006924,0.00000107,-0.00002278,-0.00007160,-0.00000193,0.00252603,
 -0.00011801,-0.00018855,-0.01318158,0.00004364,-0.00244800,-0.00023589
 ,-0.00052004,0.00007003,-0.00016485,0.00004339,0.00004533,0.00001671,0
 .00007851,-0.00004702,-0.00021501,0.00054044,0.00008680,-0.00017446,-0
 .00004701,0.00004792,0.00001397,-0.00008002,-0.00004722,-0.00053414,-0
 .00009168,-0.00013112,-0.00052054,0.00012459,-0.00012349,-0.08450098,0
 .00029839,-0.03562853,0.01963895,-0.00010251,0.01539794,-0.01137181,-0
 .00170405,-0.01610096,-0.01146064,0.00180528,-0.01627296,0.00045939,-0
 .00052541,-0.00036617,-0.00028756,0.00022157,-0.00014283,-0.00025588,0
 .00016854,0.00008348,0.00007840,-0.00004821,0.00015323,0.00023701,0.00
 000569,0.00025548,-0.00006241,0.00021565,-0.00005910,0.00004152,0.0001
 4787,-0.00009941,-0.00009494,-0.00002092,0.00015923,0.00047879,0.00051
 592,-0.00034062,-0.00026483,-0.00016506,0.00008184,-0.00031314,-0.0002
 3548,-0.00015310,0.00007913,0.00004717,0.00015174,0.00023249,0.0000018
 0,0.00026257,0.00003782,-0.00015009,-0.00010237,-0.00006330,-0.0002155
 5,-0.00005866,-0.00009130,0.00001447,0.00016179,0.11451129,-0.00005884
 ,-0.00034265,0.00002234,0.00006510,-0.00033570,-0.00002177,0.00035585,
 -0.00010105,-0.00012872,-0.00036230,-0.00010578,0.00013184,0.00000063,
 0.00044575,-0.00000278,0.00002372,-0.00000194,-0.00002901,-0.00002511,
 -0.00000023,0.00003089,-0.00000577,-0.00005277,0.00000344,0.00007409,0
 .00213949,0.00000387,-0.00018276,0.00009452,-0.00003416,0.00000927,0.0
 0003692,-0.00000702,0.00002092,0.00001088,-0.00001009,0.00018514,0.000
 09366,0.00002717,-0.00000837,0.00003919,0.00000651,-0.00001894,0.00001
 139,0.00001146,-0.00101847,0.00093812,0.00068091,0.00105147,0.00095401
 ,-0.00069647,0.00027145,-0.02283109,0.00009611,-0.00013045,-0.00449344
 ,-0.00007396,0.01038029,0.00007028,0.01651135,-0.01024414,0.00011484,-
 0.01633799,-0.00042691,-0.00020572,-0.00022829,0.00015775,-0.00029029,
 0.00013375,0.00019560,0.00010892,0.00005479,-0.00006164,-0.00012912,-0
 .00002807,-0.00007483,-0.00005376,0.00008685,0.00004823,-0.00002660,-0
 .00000725,0.00004066,0.00001987,0.00003494,0.00004834,0.00000245,-0.00
 009866,0.00041904,-0.00025056,0.00024109,-0.00018635,0.00010944,-0.000
 05584,-0.00018405,-0.00034074,-0.00009627,0.00005564,-0.00013393,0.000
 02247,0.00006999,-0.00004799,-0.00008058,-0.00003392,0.00001941,-0.000
 03368,-0.00004690,-0.00002553,0.00000653,-0.00004663,0.00000190,0.0000
 9634,-0.00046676,0.03042869,-0.00081275,-0.00012944,0.00028938,-0.0008
 2752,0.00014867,0.00030683,0.00007193,-0.00053084,-0.00027524,0.000102
 22,0.00054149,-0.00028894,-0.00034654,-0.00004343,0.00005178,-0.000074
 98,0.00002205,-0.00001777,-0.00007745,-0.00001858,-0.00002037,0.000528
 24,-0.00002852,-0.00002794,-0.00531472,0.00000153,0.00367909,-0.000154
 33,-0.00019905,0.00029433,-0.00002235,0.00008394,-0.00003276,-0.000060
 84,-0.00002450,-0.00006815,-0.00015215,0.00020420,0.00030537,-0.000024
 61,-0.00008683,-0.00003360,-0.00006092,0.00002488,-0.00006929,0.000013
 85,0.00004547,-0.00012863,0.00002996,-0.00009720,-0.00013286,-0.075208
 47,0.00027311,-0.15432258,-0.00962745,0.00005909,-0.00646320,-0.000203
 66,-0.00023912,-0.00072758,-0.00018271,0.00025902,-0.00069046,0.000194
 40,-0.00031295,0.00006112,-0.00017908,0.00018496,-0.00004184,-0.000153
 42,0.00001448,-0.00002776,-0.00001531,-0.00010940,0.00007180,0.0002673
 7,0.00006322,-0.00017378,-0.00008467,0.00012451,0.00006317,0.00002253,
 0.00000884,-0.00008019,-0.00015157,0.00001278,0.00013048,0.00020895,0.
 00035068,0.00007487,-0.00015540,-0.00001386,-0.00003012,-0.00021226,-0
 .00015265,-0.00004636,-0.00001954,0.00011616,0.00007132,0.00026279,-0.
 00005529,-0.00016328,0.00002766,-0.00001580,-0.00008286,-0.00008457,-0
 .00012451,0.00006262,-0.00014887,-0.00001725,0.00013087,0.03901157,-0.
 00011340,0.18057725,-0.02279086,-0.02217202,-0.00192111,-0.02223067,0.
 02252853,-0.00188352,0.00058665,0.00453678,-0.00031328,-0.00001756,-0.
 00494202,-0.00026860,0.00502793,0.00082215,-0.00044483,0.00041353,-0.0
 0012225,0.00012637,0.00041376,0.00011369,0.00012177,-0.00917706,0.0004
 1075,0.00068683,-0.16132708,0.00015089,-0.01026950,-0.00677904,-0.0123
 9326,0.00025121,0.00092454,-0.00038789,0.00001050,-0.00293027,-0.00010
 080,-0.00088303,-0.00680687,0.01241366,0.00023650,0.00097426,0.0004068
 7,-0.00000245,-0.00293607,0.00013906,-0.00087787,-0.04582492,0.0059566
 4,-0.00061806,-0.04579187,-0.00616328,-0.00062713,-0.02243425,-0.00007
 541,-0.04249651,-0.00802828,0.00001936,-0.01318464,0.00076003,0.000966
 28,0.00257161,0.00070005,-0.00093383,0.00253024,0.00339323,0.00951709,
 -0.00115682,0.00047684,0.00045097,-0.00005614,-0.00073128,0.00247123,0
 .00135119,0.00000310,0.00021340,-0.00026375,0.00017154,-0.00023716,0.0
 0132089,0.00131799,0.00013177,-0.00052261,0.00054724,0.00071553,0.0001
 9311,0.00039619,-0.00099692,-0.00026488,0.00327308,-0.00962480,-0.0011
 2553,-0.00074255,-0.00246601,0.00134228,0.00047996,-0.00045023,-0.0000
 6420,0.00000027,-0.00021733,-0.00026963,0.00012370,0.00018551,0.001147
 80,0.00053516,-0.00070992,0.00020133,0.00131860,-0.00014563,-0.0005195
 2,0.00039413,0.00099865,-0.00026108,-0.01275418,0.00010102,0.05363936,
 0.34861101,-0.01986103,0.00040319,-0.00047379,0.02007576,-0.00002276,0
 .00049247,0.00036508,-0.00523374,0.00015644,-0.00041089,-0.00509701,-0
 .00017029,-0.00003454,0.00173876,-0.00000988,-0.00085529,0.00025503,0.
 00030436,0.00089894,0.00022102,-0.00029917,0.00003285,-0.00025377,0.00
 001475,0.00018648,-0.05353419,0.00006960,-0.01620756,-0.00993985,-0.00
 405462,0.00054441,0.00000255,0.00051122,0.00083546,0.00044215,-0.00028
 332,0.01632248,-0.01027818,0.00404288,-0.00055800,0.00001659,-0.000513
 25,-0.00080757,0.00044613,0.00029567,-0.00443800,-0.05383707,0.0010398
 9,0.00425475,-0.05375694,-0.00114947,-0.00009372,-0.03390518,0.0002186
 9,0.00003243,-0.00051434,-0.00003012,0.00772807,0.00305429,0.00513178,
 -0.00770699,0.00312783,-0.00516472,0.00374458,-0.01182506,-0.00476027,
 -0.00086367,0.00032993,0.00074833,-0.00051672,0.00081933,0.00063898,-0
 .00082099,-0.00012325,0.00098536,-0.00051704,-0.01135391,0.01076714,0.
 00008299,0.00035547,-0.00108838,-0.00049148,-0.00068008,-0.00060610,0.
 00023266,-0.00107765,-0.00065160,-0.00387107,-0.01170496,0.00473839,0.
 00052852,0.00082026,-0.00064727,0.00086975,0.00033399,-0.00075954,0.00
 082229,-0.00012197,-0.00098322,0.00049707,-0.01131529,-0.01085842,0.00
 047224,-0.00068212,0.00058342,-0.00009417,0.00035272,0.00109889,-0.000
 25349,-0.00106909,0.00065496,0.00011078,-0.00587309,-0.00028356,-0.000
 23667,0.26949346,0.00025526,-0.00160273,0.00510634,0.00026197,0.001632
 48,0.00516403,0.00006120,0.00047491,0.00336780,0.00011777,-0.00045380,
 0.00348467,0.00007068,-0.00003050,-0.00078265,0.00011979,-0.00001685,0
 .00006696,0.00013678,0.00001734,0.00009597,0.00007185,0.00000411,-0.00
 017644,-0.01635829,0.00002250,-0.03283843,-0.00144456,-0.00482478,-0.0
 0056533,0.00056792,-0.00033486,0.00028736,-0.00167339,-0.00024075,0.00
 025486,-0.00141263,0.00477867,-0.00066181,0.00058385,0.00034578,0.0002
 8701,-0.00168758,0.00025200,0.00025749,-0.00141833,-0.00078772,-0.0458
 6446,-0.00141169,0.00079685,-0.04576872,-0.01864475,0.00013286,0.01672
 822,0.00694221,-0.00020158,-0.01025442,0.00021963,0.00028729,-0.004539
 75,0.00022875,-0.00030417,-0.00454621,-0.00217942,-0.00932130,-0.00006
 705,0.00002223,0.00014274,0.00011105,0.00138487,-0.00195391,-0.0001662
 6,-0.00032931,-0.00072337,0.00043082,0.00365061,0.01682230,-0.00136522
 ,0.00019916,0.00251204,-0.00258837,0.00046267,0.00126457,-0.00013417,-
 0.00023509,0.00126239,-0.00006638,-0.00206961,0.00923618,-0.00000892,0
 .00140017,0.00194431,-0.00016362,0.00002528,-0.00014451,0.00011175,-0.
 00032775,0.00071967,0.00042222,0.00351224,-0.01686215,-0.00140752,0.00
 044356,-0.00125912,-0.00014472,0.00018040,-0.00251076,-0.00258437,-0.0
 0024515,-0.00126353,-0.00006726,0.01594042,-0.00011590,-0.02222557,0.0
 1259959,0.00030541,0.14087332,0.00007658,0.00222577,0.00039364,-0.0011
 4519,0.00080840,0.00004193,-0.00546048,-0.00289058,0.00060718,0.004043
 12,0.00190278,-0.00018830,-0.02970987,0.04685252,0.00195703,0.00009984
 ,-0.00010811,-0.00008180,0.00068293,-0.00204805,0.00057701,-0.10896528
 ,0.13868606,0.00756014,0.00029818,-0.00114199,-0.00019743,-0.00028484,
 -0.00021339,-0.00016699,0.00006043,-0.00003701,0.00002598,0.00002856,-
 0.00003834,0.00000526,0.00009104,-0.00024597,-0.00006065,0.00007951,0.
 00004178,0.00001464,0.00000788,-0.00000835,0.00001910,-0.00006583,0.00
 002242,0.00003982,0.00013702,0.00014126,-0.00005839,0.00009899,0.00001
 104,0.00014050,0.00002420,0.00000250,-0.00003792,0.00003330,-0.0000034
 9,-0.00000026,0.00003579,0.00000180,0.00000211,-0.00005692,0.00002158,
 0.00003008,0.00000377,0.00001017,0.00000389,-0.00000139,-0.00002556,-0
 .00000332,-0.00000184,0.00000180,0.00000350,0.00000291,0.00002012,-0.0
 0003862,-0.00000583,-0.00002553,0.00000312,0.00000447,0.00000458,0.000
 00207,-0.00000047,0.00000422,-0.00001474,0.00000354,-0.00007199,0.0001
 1872,-0.00001106,0.00002587,-0.00000245,0.00003602,0.00000974,-0.00001
 191,-0.00000688,0.00000034,0.00000338,0.00002698,-0.00004674,-0.000090
 59,0.00001661,-0.00000038,0.00001408,-0.00001159,0.00002521,0.00000459
 ,-0.00001568,0.00000229,-0.00001799,-0.00016059,0.00000895,-0.00002471
 ,0.00046000,0.00000132,-0.00002130,0.13955208,0.00083877,-0.00002345,-
 0.00009636,0.00041198,-0.00089448,-0.00002857,-0.00232859,0.00249572,0
 .00018951,-0.00548727,0.00327753,0.00038104,-0.00106405,0.00230836,0.0
 0000520,-0.00015984,0.00032635,0.00005705,0.00053497,-0.00071248,0.000
 28518,0.19183698,-0.46265034,-0.01355473,0.00036104,-0.00004597,0.0002
 2298,-0.00004387,0.00000621,0.00001064,0.00000613,-0.00001177,-0.00001
 767,0.00000177,0.00000474,-0.00000622,-0.00010046,0.00006874,0.0000021
 9,0.00000230,0.00000971,-0.00001626,-0.00002042,-0.00004735,-0.0000134
 0,-0.00001899,0.00001610,0.00001799,-0.00001134,-0.00004513,0.00001521
 ,-0.00009295,0.00000835,-0.00022540,-0.00005943,0.00000152,0.00003711,
 -0.00003119,0.00000139,0.00000671,-0.00002912,-0.00000288,0.00000854,0
 .00001972,-0.00002063,-0.00004101,-0.00000873,-0.00000472,0.00000246,0
 .00000213,0.00002064,0.00000202,0.00000112,-0.00000301,-0.00000246,-0.
 00000716,-0.00001066,0.00004694,0.00000742,0.00002100,-0.00000580,-0.0
 0000310,-0.00000480,0.00000021,0.00000162,-0.00000174,0.00000707,0.000
 02252,0.00001706,-0.00003992,-0.00000112,-0.00002602,0.00000214,-0.000
 00558,0.00000533,0.00000306,0.00000043,0.00000495,-0.00000376,-0.00000
 344,0.00001401,0.00004882,0.00000171,0.00000494,0.00000023,0.00000310,
 -0.00002867,-0.00000619,-0.00000417,0.00000770,0.00000587,0.00022853,0
 .00000224,0.00005710,-0.00087438,-0.00001322,-0.00000214,-0.18392704,0
 .45592474,0.00007368,-0.00033247,0.00177682,0.00003473,-0.00013919,-0.
 00065528,0.00083941,0.00021808,0.00333650,-0.00034263,-0.00003535,-0.0
 0060286,0.00219607,-0.00366513,-0.00344307,-0.00005451,0.00006145,-0.0
 0059321,0.00052110,0.00036540,0.00004731,0.00736317,-0.00935113,-0.006
 55652,-0.00003550,0.00020882,0.00002098,-0.00004481,0.00001866,-0.0003
 5911,0.00006896,-0.00007337,-0.00000685,-0.00001667,0.00003280,0.00001
 419,0.00002054,0.00003611,0.00009102,-0.00000934,-0.00002012,-0.000005
 82,0.00001133,-0.00000197,0.00000518,0.00001555,0.00004221,-0.00002745
 ,-0.00001737,-0.00000381,-0.00000595,-0.00001298,-0.00000116,-0.000011
 00,-0.00000037,0.00000113,0.00000883,-0.00000421,0.00000072,0.00000140
 ,-0.00000417,0.00000042,0.00000409,0.00000075,-0.00000207,-0.00000656,
 -0.00000287,-0.00000093,0.00000292,0.00000042,0.00000162,0.00000132,0.
 00000076,-0.00000078,0.00000172,-0.00001386,0.00000314,0.00002806,0.00
 000053,0.00000584,-0.00000256,-0.00000021,-0.00000135,-0.00000275,0.00
 000274,-0.00000043,0.00000091,-0.00000528,0.00000280,-0.00000664,0.000
 00236,-0.00000161,0.00000308,-0.00000376,0.00000040,-0.00000024,0.0000
 0445,-0.00000135,-0.00000461,-0.00000875,0.00000627,0.00002968,0.00000
 096,-0.00000106,-0.00000577,-0.00000098,-0.00000757,0.00000075,-0.0000
 0362,0.00000474,-0.00000021,0.00001068,-0.00000275,0.00000082,-0.00003
 592,-0.00001164,-0.00006223,-0.01055039,0.01264460,0.00698312\\0.00001
 085,-0.00001129,-0.00000272,0.00001481,0.00001227,-0.00000237,0.000008
 71,-0.00002265,-0.00000421,0.00000232,0.00000706,0.00000088,-0.0000206
 8,0.00000804,-0.00000314,-0.00000119,0.00000017,-0.00000413,-0.0000050
 7,-0.00000248,-0.00000060,0.00001183,-0.00000886,0.00000221,-0.0000103
 5,-0.00000225,0.00000165,0.00000879,0.00001331,-0.00000152,0.00000042,
 -0.00000049,-0.00000385,-0.00000421,-0.00000378,-0.00000074,0.00001006
 ,-0.00001625,0.00000313,-0.00000048,-0.00000002,-0.00000355,-0.0000060
 8,0.00000418,0.00000043,-0.00000702,-0.00001136,0.00000910,-0.00000415
 ,0.00001056,0.00001205,0.00000836,0.00000091,0.00002408,0.00001253,0.0
 0000095,-0.00000102,-0.00000624,-0.00000452,-0.00000332,-0.00000590,0.
 00000747,-0.00000326,0.00000720,0.00000493,0.00000421,0.00000535,0.000
 00097,0.00000170,0.00000129,-0.00000263,0.00000068,0.00000151,0.000002
 72,0.00000018,0.00000353,0.00000334,-0.00001629,-0.00000088,-0.0000029
 2,-0.00000077,0.00000260,0.00000117,0.00000389,-0.00000129,0.00000210,
 0.00000088,0.00000229,-0.00000206,0.00000361,-0.00000194,0.00000379,0.
 00000305,0.00000204,0.00000082,0.00000371,-0.00000003,-0.00000008,0.00
 000086,-0.00000149,-0.00000341,-0.00001463,0.00000075,-0.00000106,0.00
 000484,-0.00000337,0.00000250,0.00000143,-0.00000253,-0.00000328,0.000
 00310,0.00002887,0.00000396,0.00000811,-0.00004700,-0.00000035,-0.0000
 1848,-0.00001420,0.00000851,-0.00000918\\\@
 The archive entry for this job was punched.


 IN NATURE THERE ARE NEITHER REWARDS OR
 PUNISHMENTS -- THERE ARE CONSEQUENCES.

                            -- ROBERT GREEN INGERSOLL
 Job cpu time:       1 days 16 hours 25 minutes  4.5 seconds.
 Elapsed time:       0 days  6 hours 46 minutes  2.5 seconds.
 File lengths (MBytes):  RWF=   2021 Int=      0 D2E=      0 Chk=     72 Scr=      1
 Normal termination of Gaussian 16 at Fri Mar 29 07:11:10 2024.
