 Entering Gaussian System, Link 0=/cm/shared/apps//g16/g16
 Input=HZPtMeH_sigma.gjf
 Output=HZPtMeH_sigma.log
 Initial command:
 /cm/shared/apps//g16/l1.exe "/local/mvanvleet/pbs.14637.josephine/Gau-3895682.inp" -scrdir="/local/mvanvleet/pbs.14637.josephine/"
 Entering Link 1 = /cm/shared/apps//g16/l1.exe PID=   3895685.
  
 Copyright (c) 1988-2019, Gaussian, Inc.  All Rights Reserved.
  
 This is part of the Gaussian(R) 16 program.  It is based on
 the Gaussian(R) 09 system (copyright 2009, Gaussian, Inc.),
 the Gaussian(R) 03 system (copyright 2003, Gaussian, Inc.),
 the Gaussian(R) 98 system (copyright 1998, Gaussian, Inc.),
 the Gaussian(R) 94 system (copyright 1995, Gaussian, Inc.),
 the Gaussian 92(TM) system (copyright 1992, Gaussian, Inc.),
 the Gaussian 90(TM) system (copyright 1990, Gaussian, Inc.),
 the Gaussian 88(TM) system (copyright 1988, Gaussian, Inc.),
 the Gaussian 86(TM) system (copyright 1986, Carnegie Mellon
 University), and the Gaussian 82(TM) system (copyright 1983,
 Carnegie Mellon University). Gaussian is a federally registered
 trademark of Gaussian, Inc.
  
 This software contains proprietary and confidential information,
 including trade secrets, belonging to Gaussian, Inc.
  
 This software is provided under written license and may be
 used, copied, transmitted, or stored only in accord with that
 written license.
  
 The following legend is applicable only to US Government
 contracts under FAR:
  
                    RESTRICTED RIGHTS LEGEND
  
 Use, reproduction and disclosure by the US Government is
 subject to restrictions as set forth in subparagraphs (a)
 and (c) of the Commercial Computer Software - Restricted
 Rights clause in FAR 52.227-19.
  
 Gaussian, Inc.
 340 Quinnipiac St., Bldg. 40, Wallingford CT 06492
  
  
 ---------------------------------------------------------------
 Warning -- This program may not be used in any manner that
 competes with the business of Gaussian, Inc. or will provide
 assistance to any competitor of Gaussian, Inc.  The licensee
 of this program is prohibited from giving any competitor of
 Gaussian, Inc. access to this program.  By using this program,
 the user acknowledges that Gaussian, Inc. is engaged in the
 business of creating and licensing software in the field of
 computational chemistry and represents and warrants to the
 licensee that it is not a competitor of Gaussian, Inc. and that
 it will not use this program in any manner prohibited above.
 ---------------------------------------------------------------
  

 Cite this work as:
 Gaussian 16, Revision C.01,
 M. J. Frisch, G. W. Trucks, H. B. Schlegel, G. E. Scuseria, 
 M. A. Robb, J. R. Cheeseman, G. Scalmani, V. Barone, 
 G. A. Petersson, H. Nakatsuji, X. Li, M. Caricato, A. V. Marenich, 
 J. Bloino, B. G. Janesko, R. Gomperts, B. Mennucci, H. P. Hratchian, 
 J. V. Ortiz, A. F. Izmaylov, J. L. Sonnenberg, D. Williams-Young, 
 F. Ding, F. Lipparini, F. Egidi, J. Goings, B. Peng, A. Petrone, 
 T. Henderson, D. Ranasinghe, V. G. Zakrzewski, J. Gao, N. Rega, 
 G. Zheng, W. Liang, M. Hada, M. Ehara, K. Toyota, R. Fukuda, 
 J. Hasegawa, M. Ishida, T. Nakajima, Y. Honda, O. Kitao, H. Nakai, 
 T. Vreven, K. Throssell, J. A. Montgomery, Jr., J. E. Peralta, 
 F. Ogliaro, M. J. Bearpark, J. J. Heyd, E. N. Brothers, K. N. Kudin, 
 V. N. Staroverov, T. A. Keith, R. Kobayashi, J. Normand, 
 K. Raghavachari, A. P. Rendell, J. C. Burant, S. S. Iyengar, 
 J. Tomasi, M. Cossi, J. M. Millam, M. Klene, C. Adamo, R. Cammi, 
 J. W. Ochterski, R. L. Martin, K. Morokuma, O. Farkas, 
 J. B. Foresman, and D. J. Fox, Gaussian, Inc., Wallingford CT, 2019.
 
 ******************************************
 Gaussian 16:  ES64L-G16RevC.01  3-Jul-2019
                28-Mar-2024 
 ******************************************
 %nprocshared=6
 Will use up to    6 processors via shared memory.
 %chk=HZPtMeH_sigma.chk
 %mem=2GB
 ----------------------------------------------------------
 # wb97xd def2TZVPP SCRF=(solvent=dichloromethane) opt freq
 ----------------------------------------------------------
 1/18=20,19=15,26=3,38=1/1,3;
 2/9=110,12=2,17=6,18=5,40=1/2;
 3/5=44,7=202,11=2,25=1,30=1,70=2201,71=1,72=9,74=-58/1,2,3;
 4//1;
 5/5=2,38=5,53=9/2;
 6/7=2,8=2,9=2,10=2,28=1/1;
 7//1,2,3,16;
 1/18=20,19=15,26=3/3(2);
 2/9=110/2;
 99//99;
 2/9=110/2;
 3/5=44,7=202,11=2,25=1,30=1,70=2205,71=1,72=9,74=-58/1,2,3;
 4/5=5,16=3,69=1/1;
 5/5=2,38=5,53=9/2;
 7//1,2,3,16;
 1/18=20,19=15,26=3/3(-5);
 2/9=110/2;
 6/7=2,8=2,9=2,10=2,19=2,28=1/1;
 99/9=1/99;
 -------------
 HZPtMeH_sigma
 -------------
 Symbolic Z-matrix:
 Charge =  2 Multiplicity = 1
 Pt                    0.826    -0.00001  -0.09574 
 C                    -1.68366  -1.19894  -0.36765 
 C                    -1.68365   1.19896  -0.36764 
 C                    -2.98173  -1.24382   0.03587 
 C                    -2.98172   1.24385   0.03587 
 C                    -3.74748   0.00002   0.26527 
 H                    -3.49865  -2.19758   0.17539 
 H                    -3.49862   2.19761   0.1754 
 O                    -4.91921   0.00002   0.62782 
 N                    -1.04301   0.00001  -0.62855 
 C                    -0.75785  -2.34315  -0.68376 
 H                    -0.57955  -2.37451  -1.77385 
 H                    -1.13989  -3.32402  -0.34971 
 C                    -0.75783   2.34316  -0.68375 
 H                    -0.57953   2.37452  -1.77384 
 H                    -1.13986   3.32404  -0.34969 
 N                     0.58633  -2.07739  -0.03585 
 N                     0.58635   2.07738  -0.03585 
 C                     3.1669    0.        0.89809 
 H                     2.44082  -0.00001   1.72634 
 H                     3.78538  -0.9055    0.95482 
 H                     3.78533   0.90552   0.9548 
 C                     1.63712  -2.86373  -0.73261 
 H                     2.59403  -2.73172  -0.20485 
 H                     1.36502  -3.93578  -0.72346 
 H                     1.72733  -2.5102   -1.77012 
 C                     0.51848  -2.49946   1.39386 
 H                     0.3493   -3.59134   1.44446 
 H                     1.47019  -2.25513   1.89052 
 H                    -0.31277  -1.97203   1.88726 
 C                     1.63716   2.8637   -0.73262 
 H                     1.36506   3.93576  -0.72347 
 H                     2.59406   2.73169  -0.20487 
 H                     1.72735   2.51018  -1.77013 
 C                     0.51853   2.49945   1.39386 
 H                     1.47023   2.25507   1.89051 
 H                     0.3494    3.59134   1.44447 
 H                    -0.31273   1.97205   1.88726 
 H                     2.7502   -0.00003  -0.16904 
 H                    -4.91921   1.00002   0.62782 
 

 GradGradGradGradGradGradGradGradGradGradGradGradGradGradGradGradGradGrad
 Berny optimization.
 Initialization pass.
                           ----------------------------
                           !    Initial Parameters    !
                           ! (Angstroms and Degrees)  !
 --------------------------                            --------------------------
 ! Name  Definition              Value          Derivative Info.                !
 --------------------------------------------------------------------------------
 ! R1    R(1,10)                 1.9435         estimate D2E/DX2                !
 ! R2    R(1,17)                 2.092          estimate D2E/DX2                !
 ! R3    R(1,18)                 2.092          estimate D2E/DX2                !
 ! R4    R(1,39)                 1.9256         estimate D2E/DX2                !
 ! R5    R(2,4)                  1.3601         estimate D2E/DX2                !
 ! R6    R(2,10)                 1.3842         estimate D2E/DX2                !
 ! R7    R(2,11)                 1.5054         estimate D2E/DX2                !
 ! R8    R(3,5)                  1.3601         estimate D2E/DX2                !
 ! R9    R(3,10)                 1.3842         estimate D2E/DX2                !
 ! R10   R(3,14)                 1.5054         estimate D2E/DX2                !
 ! R11   R(4,6)                  1.4786         estimate D2E/DX2                !
 ! R12   R(4,7)                  1.0938         estimate D2E/DX2                !
 ! R13   R(5,6)                  1.4786         estimate D2E/DX2                !
 ! R14   R(5,8)                  1.0938         estimate D2E/DX2                !
 ! R15   R(6,9)                  1.2265         estimate D2E/DX2                !
 ! R16   R(9,40)                 1.0            estimate D2E/DX2                !
 ! R17   R(11,12)                1.105          estimate D2E/DX2                !
 ! R18   R(11,13)                1.1044         estimate D2E/DX2                !
 ! R19   R(11,17)                1.5157         estimate D2E/DX2                !
 ! R20   R(14,15)                1.105          estimate D2E/DX2                !
 ! R21   R(14,16)                1.1044         estimate D2E/DX2                !
 ! R22   R(14,18)                1.5157         estimate D2E/DX2                !
 ! R23   R(17,23)                1.4859         estimate D2E/DX2                !
 ! R24   R(17,27)                1.4923         estimate D2E/DX2                !
 ! R25   R(18,31)                1.4859         estimate D2E/DX2                !
 ! R26   R(18,35)                1.4923         estimate D2E/DX2                !
 ! R27   R(19,20)                1.1014         estimate D2E/DX2                !
 ! R28   R(19,21)                1.098          estimate D2E/DX2                !
 ! R29   R(19,22)                1.098          estimate D2E/DX2                !
 ! R30   R(19,39)                1.1456         estimate D2E/DX2                !
 ! R31   R(23,24)                1.1007         estimate D2E/DX2                !
 ! R32   R(23,25)                1.1061         estimate D2E/DX2                !
 ! R33   R(23,26)                1.0998         estimate D2E/DX2                !
 ! R34   R(27,28)                1.1061         estimate D2E/DX2                !
 ! R35   R(27,29)                1.101          estimate D2E/DX2                !
 ! R36   R(27,30)                1.1012         estimate D2E/DX2                !
 ! R37   R(31,32)                1.1061         estimate D2E/DX2                !
 ! R38   R(31,33)                1.1007         estimate D2E/DX2                !
 ! R39   R(31,34)                1.0998         estimate D2E/DX2                !
 ! R40   R(35,36)                1.101          estimate D2E/DX2                !
 ! R41   R(35,37)                1.1061         estimate D2E/DX2                !
 ! R42   R(35,38)                1.1012         estimate D2E/DX2                !
 ! A1    A(10,1,17)             84.1274         estimate D2E/DX2                !
 ! A2    A(10,1,18)             84.1268         estimate D2E/DX2                !
 ! A3    A(10,1,39)            161.9069         estimate D2E/DX2                !
 ! A4    A(17,1,39)             96.636          estimate D2E/DX2                !
 ! A5    A(18,1,39)             96.6366         estimate D2E/DX2                !
 ! A6    A(4,2,10)             121.7513         estimate D2E/DX2                !
 ! A7    A(4,2,11)             128.621          estimate D2E/DX2                !
 ! A8    A(10,2,11)            109.5198         estimate D2E/DX2                !
 ! A9    A(5,3,10)             121.7515         estimate D2E/DX2                !
 ! A10   A(5,3,14)             128.6211         estimate D2E/DX2                !
 ! A11   A(10,3,14)            109.5195         estimate D2E/DX2                !
 ! A12   A(2,4,6)              120.8346         estimate D2E/DX2                !
 ! A13   A(2,4,7)              121.1764         estimate D2E/DX2                !
 ! A14   A(6,4,7)              117.9702         estimate D2E/DX2                !
 ! A15   A(3,5,6)              120.8346         estimate D2E/DX2                !
 ! A16   A(3,5,8)              121.1761         estimate D2E/DX2                !
 ! A17   A(6,5,8)              117.9704         estimate D2E/DX2                !
 ! A18   A(4,6,5)              114.5446         estimate D2E/DX2                !
 ! A19   A(4,6,9)              122.726          estimate D2E/DX2                !
 ! A20   A(5,6,9)              122.7265         estimate D2E/DX2                !
 ! A21   A(6,9,40)              90.0            estimate D2E/DX2                !
 ! A22   A(1,10,2)             113.1673         estimate D2E/DX2                !
 ! A23   A(1,10,3)             113.1679         estimate D2E/DX2                !
 ! A24   A(2,10,3)             120.0343         estimate D2E/DX2                !
 ! A25   A(2,11,12)            109.1442         estimate D2E/DX2                !
 ! A26   A(2,11,13)            113.5034         estimate D2E/DX2                !
 ! A27   A(2,11,17)            108.8065         estimate D2E/DX2                !
 ! A28   A(12,11,13)           109.2083         estimate D2E/DX2                !
 ! A29   A(12,11,17)           106.4739         estimate D2E/DX2                !
 ! A30   A(13,11,17)           109.4646         estimate D2E/DX2                !
 ! A31   A(3,14,15)            109.1443         estimate D2E/DX2                !
 ! A32   A(3,14,16)            113.5034         estimate D2E/DX2                !
 ! A33   A(3,14,18)            108.8065         estimate D2E/DX2                !
 ! A34   A(15,14,16)           109.2086         estimate D2E/DX2                !
 ! A35   A(15,14,18)           106.4735         estimate D2E/DX2                !
 ! A36   A(16,14,18)           109.4646         estimate D2E/DX2                !
 ! A37   A(1,17,11)            105.2767         estimate D2E/DX2                !
 ! A38   A(1,17,23)            115.5343         estimate D2E/DX2                !
 ! A39   A(1,17,27)            108.2702         estimate D2E/DX2                !
 ! A40   A(11,17,23)           109.5067         estimate D2E/DX2                !
 ! A41   A(11,17,27)           108.6413         estimate D2E/DX2                !
 ! A42   A(23,17,27)           109.3739         estimate D2E/DX2                !
 ! A43   A(1,18,14)            105.2769         estimate D2E/DX2                !
 ! A44   A(1,18,31)            115.5337         estimate D2E/DX2                !
 ! A45   A(1,18,35)            108.2701         estimate D2E/DX2                !
 ! A46   A(14,18,31)           109.5071         estimate D2E/DX2                !
 ! A47   A(14,18,35)           108.6418         estimate D2E/DX2                !
 ! A48   A(31,18,35)           109.3736         estimate D2E/DX2                !
 ! A49   A(20,19,21)           109.4174         estimate D2E/DX2                !
 ! A50   A(20,19,22)           109.4176         estimate D2E/DX2                !
 ! A51   A(20,19,39)           117.4308         estimate D2E/DX2                !
 ! A52   A(21,19,22)           111.1109         estimate D2E/DX2                !
 ! A53   A(21,19,39)           104.6543         estimate D2E/DX2                !
 ! A54   A(22,19,39)           104.655          estimate D2E/DX2                !
 ! A55   A(17,23,24)           109.0548         estimate D2E/DX2                !
 ! A56   A(17,23,25)           109.5767         estimate D2E/DX2                !
 ! A57   A(17,23,26)           109.2838         estimate D2E/DX2                !
 ! A58   A(24,23,25)           109.0341         estimate D2E/DX2                !
 ! A59   A(24,23,26)           110.0261         estimate D2E/DX2                !
 ! A60   A(25,23,26)           109.8491         estimate D2E/DX2                !
 ! A61   A(17,27,28)           109.2687         estimate D2E/DX2                !
 ! A62   A(17,27,29)           109.2769         estimate D2E/DX2                !
 ! A63   A(17,27,30)           109.1557         estimate D2E/DX2                !
 ! A64   A(28,27,29)           109.3089         estimate D2E/DX2                !
 ! A65   A(28,27,30)           109.6859         estimate D2E/DX2                !
 ! A66   A(29,27,30)           110.1277         estimate D2E/DX2                !
 ! A67   A(18,31,32)           109.5757         estimate D2E/DX2                !
 ! A68   A(18,31,33)           109.0554         estimate D2E/DX2                !
 ! A69   A(18,31,34)           109.284          estimate D2E/DX2                !
 ! A70   A(32,31,33)           109.0341         estimate D2E/DX2                !
 ! A71   A(32,31,34)           109.8483         estimate D2E/DX2                !
 ! A72   A(33,31,34)           110.027          estimate D2E/DX2                !
 ! A73   A(18,35,36)           109.2767         estimate D2E/DX2                !
 ! A74   A(18,35,37)           109.269          estimate D2E/DX2                !
 ! A75   A(18,35,38)           109.1554         estimate D2E/DX2                !
 ! A76   A(36,35,37)           109.309          estimate D2E/DX2                !
 ! A77   A(36,35,38)           110.1272         estimate D2E/DX2                !
 ! A78   A(37,35,38)           109.6863         estimate D2E/DX2                !
 ! A79   A(1,39,19)            109.1484         estimate D2E/DX2                !
 ! A80   L(17,1,18,10,-1)      168.2543         estimate D2E/DX2                !
 ! A81   L(17,1,18,10,-2)      173.2066         estimate D2E/DX2                !
 ! D1    D(17,1,10,2)           16.1867         estimate D2E/DX2                !
 ! D2    D(17,1,10,3)          157.0192         estimate D2E/DX2                !
 ! D3    D(18,1,10,2)         -157.0199         estimate D2E/DX2                !
 ! D4    D(18,1,10,3)          -16.1874         estimate D2E/DX2                !
 ! D5    D(39,1,10,2)          109.5834         estimate D2E/DX2                !
 ! D6    D(39,1,10,3)         -109.5841         estimate D2E/DX2                !
 ! D7    D(10,1,17,11)          10.6366         estimate D2E/DX2                !
 ! D8    D(10,1,17,23)         131.5736         estimate D2E/DX2                !
 ! D9    D(10,1,17,27)        -105.4107         estimate D2E/DX2                !
 ! D10   D(39,1,17,11)        -151.1771         estimate D2E/DX2                !
 ! D11   D(39,1,17,23)         -30.2401         estimate D2E/DX2                !
 ! D12   D(39,1,17,27)          92.7756         estimate D2E/DX2                !
 ! D13   D(10,1,18,14)         -10.6362         estimate D2E/DX2                !
 ! D14   D(10,1,18,31)        -131.5735         estimate D2E/DX2                !
 ! D15   D(10,1,18,35)         105.4118         estimate D2E/DX2                !
 ! D16   D(39,1,18,14)         151.1775         estimate D2E/DX2                !
 ! D17   D(39,1,18,31)          30.2402         estimate D2E/DX2                !
 ! D18   D(39,1,18,35)         -92.7745         estimate D2E/DX2                !
 ! D19   D(10,1,39,19)         179.9981         estimate D2E/DX2                !
 ! D20   D(17,1,39,19)         -88.6031         estimate D2E/DX2                !
 ! D21   D(18,1,39,19)          88.5995         estimate D2E/DX2                !
 ! D22   D(10,2,4,6)            -2.499          estimate D2E/DX2                !
 ! D23   D(10,2,4,7)           175.8907         estimate D2E/DX2                !
 ! D24   D(11,2,4,6)          -178.3104         estimate D2E/DX2                !
 ! D25   D(11,2,4,7)             0.0792         estimate D2E/DX2                !
 ! D26   D(4,2,10,1)           143.6282         estimate D2E/DX2                !
 ! D27   D(4,2,10,3)             5.7506         estimate D2E/DX2                !
 ! D28   D(11,2,10,1)          -39.8428         estimate D2E/DX2                !
 ! D29   D(11,2,10,3)         -177.7205         estimate D2E/DX2                !
 ! D30   D(4,2,11,12)          109.0616         estimate D2E/DX2                !
 ! D31   D(4,2,11,13)          -12.9937         estimate D2E/DX2                !
 ! D32   D(4,2,11,17)         -135.1321         estimate D2E/DX2                !
 ! D33   D(10,2,11,12)         -67.1601         estimate D2E/DX2                !
 ! D34   D(10,2,11,13)         170.7845         estimate D2E/DX2                !
 ! D35   D(10,2,11,17)          48.6462         estimate D2E/DX2                !
 ! D36   D(10,3,5,6)             2.5            estimate D2E/DX2                !
 ! D37   D(10,3,5,8)          -175.891          estimate D2E/DX2                !
 ! D38   D(14,3,5,6)           178.3104         estimate D2E/DX2                !
 ! D39   D(14,3,5,8)            -0.0806         estimate D2E/DX2                !
 ! D40   D(5,3,10,1)          -143.6285         estimate D2E/DX2                !
 ! D41   D(5,3,10,2)            -5.7511         estimate D2E/DX2                !
 ! D42   D(14,3,10,1)           39.8434         estimate D2E/DX2                !
 ! D43   D(14,3,10,2)          177.7208         estimate D2E/DX2                !
 ! D44   D(5,3,14,15)         -109.061          estimate D2E/DX2                !
 ! D45   D(5,3,14,16)           12.9947         estimate D2E/DX2                !
 ! D46   D(5,3,14,18)          135.1331         estimate D2E/DX2                !
 ! D47   D(10,3,14,15)          67.1598         estimate D2E/DX2                !
 ! D48   D(10,3,14,16)        -170.7845         estimate D2E/DX2                !
 ! D49   D(10,3,14,18)         -48.6461         estimate D2E/DX2                !
 ! D50   D(2,4,6,5)             -0.6887         estimate D2E/DX2                !
 ! D51   D(2,4,6,9)            179.9247         estimate D2E/DX2                !
 ! D52   D(7,4,6,5)           -179.1287         estimate D2E/DX2                !
 ! D53   D(7,4,6,9)              1.4846         estimate D2E/DX2                !
 ! D54   D(3,5,6,4)              0.6882         estimate D2E/DX2                !
 ! D55   D(3,5,6,9)           -179.9252         estimate D2E/DX2                !
 ! D56   D(8,5,6,4)            179.1295         estimate D2E/DX2                !
 ! D57   D(8,5,6,9)             -1.4839         estimate D2E/DX2                !
 ! D58   D(4,6,9,40)           179.6685         estimate D2E/DX2                !
 ! D59   D(5,6,9,40)             0.3317         estimate D2E/DX2                !
 ! D60   D(2,11,17,1)          -33.3012         estimate D2E/DX2                !
 ! D61   D(2,11,17,23)        -158.1077         estimate D2E/DX2                !
 ! D62   D(2,11,17,27)          82.4913         estimate D2E/DX2                !
 ! D63   D(12,11,17,1)          84.2138         estimate D2E/DX2                !
 ! D64   D(12,11,17,23)        -40.5927         estimate D2E/DX2                !
 ! D65   D(12,11,17,27)       -159.9937         estimate D2E/DX2                !
 ! D66   D(13,11,17,1)        -157.8559         estimate D2E/DX2                !
 ! D67   D(13,11,17,23)         77.3376         estimate D2E/DX2                !
 ! D68   D(13,11,17,27)        -42.0634         estimate D2E/DX2                !
 ! D69   D(3,14,18,1)           33.301          estimate D2E/DX2                !
 ! D70   D(3,14,18,31)         158.1071         estimate D2E/DX2                !
 ! D71   D(3,14,18,35)         -82.4918         estimate D2E/DX2                !
 ! D72   D(15,14,18,1)         -84.2139         estimate D2E/DX2                !
 ! D73   D(15,14,18,31)         40.5923         estimate D2E/DX2                !
 ! D74   D(15,14,18,35)        159.9934         estimate D2E/DX2                !
 ! D75   D(16,14,18,1)         157.8556         estimate D2E/DX2                !
 ! D76   D(16,14,18,31)        -77.3382         estimate D2E/DX2                !
 ! D77   D(16,14,18,35)         42.0629         estimate D2E/DX2                !
 ! D78   D(1,17,23,24)          66.0894         estimate D2E/DX2                !
 ! D79   D(1,17,23,25)        -174.6332         estimate D2E/DX2                !
 ! D80   D(1,17,23,26)         -54.2208         estimate D2E/DX2                !
 ! D81   D(11,17,23,24)       -175.2898         estimate D2E/DX2                !
 ! D82   D(11,17,23,25)        -56.0124         estimate D2E/DX2                !
 ! D83   D(11,17,23,26)         64.4            estimate D2E/DX2                !
 ! D84   D(27,17,23,24)        -56.3408         estimate D2E/DX2                !
 ! D85   D(27,17,23,25)         62.9366         estimate D2E/DX2                !
 ! D86   D(27,17,23,26)       -176.651          estimate D2E/DX2                !
 ! D87   D(1,17,27,28)         177.6581         estimate D2E/DX2                !
 ! D88   D(1,17,27,29)         -62.7808         estimate D2E/DX2                !
 ! D89   D(1,17,27,30)          57.7107         estimate D2E/DX2                !
 ! D90   D(11,17,27,28)         63.8171         estimate D2E/DX2                !
 ! D91   D(11,17,27,29)       -176.6218         estimate D2E/DX2                !
 ! D92   D(11,17,27,30)        -56.1303         estimate D2E/DX2                !
 ! D93   D(23,17,27,28)        -55.667          estimate D2E/DX2                !
 ! D94   D(23,17,27,29)         63.8941         estimate D2E/DX2                !
 ! D95   D(23,17,27,30)       -175.6144         estimate D2E/DX2                !
 ! D96   D(1,18,31,32)         174.633          estimate D2E/DX2                !
 ! D97   D(1,18,31,33)         -66.0898         estimate D2E/DX2                !
 ! D98   D(1,18,31,34)          54.2219         estimate D2E/DX2                !
 ! D99   D(14,18,31,32)         56.012          estimate D2E/DX2                !
 ! D100  D(14,18,31,33)        175.2891         estimate D2E/DX2                !
 ! D101  D(14,18,31,34)        -64.3991         estimate D2E/DX2                !
 ! D102  D(35,18,31,32)        -62.9376         estimate D2E/DX2                !
 ! D103  D(35,18,31,33)         56.3395         estimate D2E/DX2                !
 ! D104  D(35,18,31,34)        176.6513         estimate D2E/DX2                !
 ! D105  D(1,18,35,36)          62.7783         estimate D2E/DX2                !
 ! D106  D(1,18,35,37)        -177.6603         estimate D2E/DX2                !
 ! D107  D(1,18,35,38)         -57.7123         estimate D2E/DX2                !
 ! D108  D(14,18,35,36)        176.6199         estimate D2E/DX2                !
 ! D109  D(14,18,35,37)        -63.8187         estimate D2E/DX2                !
 ! D110  D(14,18,35,38)         56.1292         estimate D2E/DX2                !
 ! D111  D(31,18,35,36)        -63.8955         estimate D2E/DX2                !
 ! D112  D(31,18,35,37)         55.6659         estimate D2E/DX2                !
 ! D113  D(31,18,35,38)        175.6139         estimate D2E/DX2                !
 ! D114  D(20,19,39,1)           0.0025         estimate D2E/DX2                !
 ! D115  D(21,19,39,1)         121.528          estimate D2E/DX2                !
 ! D116  D(22,19,39,1)        -121.5238         estimate D2E/DX2                !
 --------------------------------------------------------------------------------
 Trust Radius=3.00D-01 FncErr=1.00D-07 GrdErr=1.00D-06 EigMax=2.50D+02 EigMin=1.00D-04
 Number of steps in this run=    240 maximum allowed number of steps=    240.
 GradGradGradGradGradGradGradGradGradGradGradGradGradGradGradGradGradGrad

                          Input orientation:                          
 ---------------------------------------------------------------------
 Center     Atomic      Atomic             Coordinates (Angstroms)
 Number     Number       Type             X           Y           Z
 ---------------------------------------------------------------------
      1         78           0        0.826000   -0.000010   -0.095740
      2          6           0       -1.683660   -1.198940   -0.367650
      3          6           0       -1.683650    1.198960   -0.367640
      4          6           0       -2.981730   -1.243820    0.035870
      5          6           0       -2.981720    1.243850    0.035870
      6          6           0       -3.747480    0.000020    0.265270
      7          1           0       -3.498650   -2.197580    0.175390
      8          1           0       -3.498620    2.197610    0.175400
      9          8           0       -4.919210    0.000020    0.627820
     10          7           0       -1.043010    0.000010   -0.628550
     11          6           0       -0.757850   -2.343150   -0.683760
     12          1           0       -0.579550   -2.374510   -1.773850
     13          1           0       -1.139890   -3.324020   -0.349710
     14          6           0       -0.757830    2.343160   -0.683750
     15          1           0       -0.579530    2.374520   -1.773840
     16          1           0       -1.139860    3.324040   -0.349690
     17          7           0        0.586330   -2.077390   -0.035850
     18          7           0        0.586350    2.077380   -0.035850
     19          6           0        3.166900    0.000000    0.898090
     20          1           0        2.440820   -0.000010    1.726340
     21          1           0        3.785380   -0.905500    0.954820
     22          1           0        3.785330    0.905520    0.954800
     23          6           0        1.637120   -2.863730   -0.732610
     24          1           0        2.594030   -2.731720   -0.204850
     25          1           0        1.365020   -3.935780   -0.723460
     26          1           0        1.727330   -2.510200   -1.770120
     27          6           0        0.518480   -2.499460    1.393860
     28          1           0        0.349300   -3.591340    1.444460
     29          1           0        1.470190   -2.255130    1.890520
     30          1           0       -0.312770   -1.972030    1.887260
     31          6           0        1.637160    2.863700   -0.732620
     32          1           0        1.365060    3.935760   -0.723470
     33          1           0        2.594060    2.731690   -0.204870
     34          1           0        1.727350    2.510180   -1.770130
     35          6           0        0.518530    2.499450    1.393860
     36          1           0        1.470230    2.255070    1.890510
     37          1           0        0.349400    3.591340    1.444470
     38          1           0       -0.312730    1.972050    1.887260
     39          1           0        2.750200   -0.000030   -0.169040
     40          1           0       -4.919210    1.000020    0.627820
 ---------------------------------------------------------------------
                    Distance matrix (angstroms):
                    1          2          3          4          5
     1  Pt   0.000000
     2  C    2.794595   0.000000
     3  C    2.794602   2.397900   0.000000
     4  C    4.007891   1.360084   2.795533   0.000000
     5  C    4.007897   2.795534   1.360081   2.487670   0.000000
     6  C    4.587706   2.469301   2.469297   1.478559   1.478555
     7  H    4.858541   2.141580   3.889163   1.093769   3.482833
     8  H    4.858538   3.889156   2.141567   3.482827   1.093761
     9  O    5.790594   3.591274   3.591274   2.377261   2.377264
    10  N    1.943472   1.384190   1.384187   2.397332   2.397329
    11  C    2.888711   1.505412   3.674722   2.583028   4.281359
    12  H    3.229532   2.139725   3.995767   3.213101   4.705107
    13  H    3.870177   2.193621   4.555584   2.805045   4.940288
    14  C    2.888723   3.674718   1.505411   4.281356   2.583026
    15  H    3.229540   3.995759   2.139724   4.705104   3.213095
    16  H    3.870194   4.555589   2.193626   4.940292   2.805048
    17  N    2.092017   2.456546   3.999670   3.664838   4.875116
    18  N    2.092025   3.999664   2.456544   4.875111   3.664838
    19  C    2.543130   5.154366   5.154359   6.332153   6.332149
    20  H    2.434670   4.778448   4.778445   5.814534   5.814535
    21  H    3.268259   5.634309   6.007324   6.837595   7.159456
    22  H    3.268219   6.007285   5.634243   7.159413   6.837534
    23  C    3.043750   3.732600   5.259864   4.954639   6.228680
    24  H    3.255776   4.546928   5.811651   5.775889   6.852160
    25  H    4.021798   4.112340   5.982186   5.168894   6.804359
    26  H    3.149127   3.914228   5.230641   5.200054   6.287260
    27  C    2.925872   3.105429   4.650868   3.958818   5.301689
    28  H    3.936637   3.624948   5.510315   4.311698   6.038119
    29  H    3.073398   4.020154   5.193913   4.927684   5.958363
    30  H    3.019594   2.749841   4.125417   3.328856   4.570867
    31  C    3.043753   5.259857   3.732606   6.228679   4.954649
    32  H    4.021805   5.982177   4.112338   6.804354   5.168895
    33  H    3.255784   5.811647   4.546928   6.852158   5.775894
    34  H    3.149138   5.230632   3.914230   6.287256   5.200055
    35  C    2.925875   4.650876   3.105439   5.301700   3.958841
    36  H    3.073371   5.193890   4.020145   5.958344   4.927689
    37  H    3.936647   5.510344   3.624985   6.038158   4.311754
    38  H    3.019605   4.125439   2.749848   4.570889   3.328878
    39  H    1.925596   4.597385   4.597395   5.868903   5.868912
    40  H    5.876312   4.036728   3.391072   3.023086   2.040521
                    6          7          8          9         10
     6  C    0.000000
     7  H    2.213468   0.000000
     8  H    2.213461   4.395190   0.000000
     9  O    1.226537   2.655585   2.655591   0.000000
    10  N    2.848346   3.392033   3.392020   4.074726   0.000000
    11  C    3.915226   2.875989   5.372939   4.952535   2.361094
    12  H    4.453334   3.514539   5.764098   5.499005   2.676724
    13  H    4.269305   2.666148   6.027250   5.127189   3.337111
    14  C    3.915220   5.372945   2.875979   4.952535   2.361086
    15  H    4.453328   5.764101   3.514530   5.499004   2.676715
    16  H    4.269305   6.027262   2.666142   5.127194   3.337112
    17  N    4.815414   4.092204   5.916677   5.921745   2.705852
    18  N    4.815411   5.916682   4.092195   5.921746   2.705841
    19  C    6.943278   7.055580   7.055560   8.090625   4.478166
    20  H    6.358442   6.520128   6.520115   7.441558   4.205066
    21  H    7.618361   7.438688   7.955718   8.757670   5.161430
    22  H    7.618307   7.955694   7.438608   8.757617   5.161377
    23  C    6.179866   5.257790   7.267563   7.282671   3.923638
    24  H    6.920850   6.127858   7.846226   8.037694   4.568362
    25  H    6.527309   5.242572   7.879176   7.537110   4.614982
    26  H    6.357481   5.585124   7.297882   7.498521   3.908851
    27  C    5.071443   4.208697   6.299540   6.033464   3.574317
    28  H    5.574223   4.284837   7.066042   6.428216   4.374208
    29  H    5.911956   5.256839   6.888948   6.892354   4.212783
    30  H    4.279844   3.623700   5.519602   5.166668   3.278947
    31  C    6.179870   7.267571   5.257795   7.282681   3.923629
    32  H    6.527306   7.879180   5.242568   7.537114   4.614969
    33  H    6.920851   7.846236   6.127854   8.037700   4.568354
    34  H    6.357477   7.297885   5.585119   7.498522   3.908843
    35  C    5.071460   6.299563   4.208711   6.033489   3.574318
    36  H    5.911950   6.888940   5.256841   6.892357   4.212759
    37  H    5.574273   7.066091   4.284890   6.428277   4.374228
    38  H    4.279867   5.519638   3.623705   5.166696   3.278956
    39  H    6.512179   6.632947   6.632949   7.710696   3.820941
    40  H    1.582528   3.528077   1.912324   1.000000   4.195642
                   11         12         13         14         15
    11  C    0.000000
    12  H    1.105021   0.000000
    13  H    1.104378   1.801034   0.000000
    14  C    4.686310   4.845257   5.689858   0.000000
    15  H    4.845254   4.749030   5.900467   1.105021   0.000000
    16  H    5.689866   5.900479   6.648060   1.104386   1.801044
    17  N    1.515663   2.113812   2.152308   4.665598   4.919283
    18  N    4.665592   4.919278   5.679220   1.515663   2.113806
    19  C    4.836968   5.178170   5.581626   4.836954   5.178155
    20  H    4.640084   5.197328   5.308532   4.640080   5.197323
    21  H    5.039119   5.353153   5.639975   5.820607   6.103815
    22  H    5.820586   6.103794   6.621824   5.039043   5.353078
    23  C    2.451381   2.497427   2.840821   5.731481   5.782470
    24  H    3.408143   3.558226   3.783380   6.100715   6.213445
    25  H    2.654171   2.705963   2.605478   6.628209   6.686139
    26  H    2.717389   2.310870   3.301639   5.559795   5.402046
    27  C    2.443349   3.354947   2.543644   5.421845   5.915710
    28  H    2.704271   3.563840   2.346954   6.401039   6.841905
    29  H    3.405705   4.200392   3.601899   5.721469   6.250004
    30  H    2.635521   3.692816   2.741540   5.042721   5.689228
    31  C    5.731470   5.782457   6.793122   2.451393   2.497429
    32  H    6.628200   6.686128   7.688880   2.654169   2.705952
    33  H    6.100708   6.213435   7.115826   3.408144   3.558217
    34  H    5.559787   5.402036   6.654063   2.717395   2.310868
    35  C    5.421847   5.915712   6.301047   2.443355   3.354947
    36  H    5.721436   6.249971   6.554201   3.405705   4.200386
    37  H    6.401057   6.841922   7.297895   2.704299   3.563858
    38  H    5.042740   5.689245   5.808320   2.635513   3.692806
    39  H    4.249890   4.393268   5.119995   4.249911   4.393287
    40  H    5.496721   5.999010   5.825474   4.565230   5.146848
                   16         17         18         19         20
    16  H    0.000000
    17  N    5.679232   0.000000
    18  N    2.152314   4.154770   0.000000
    19  C    5.581611   3.441967   3.441946   0.000000
    20  H    5.308529   3.295444   3.295440   1.101449   0.000000
    21  H    6.621838   3.548052   4.484729   1.098028   1.795271
    22  H    5.639896   4.484723   3.547974   1.098016   1.795262
    23  C    6.793139   1.485922   5.099427   3.633230   3.859179
    24  H    7.115837   2.118388   5.214095   3.001158   3.348911
    25  H    7.688896   2.129032   6.102231   4.622398   4.759112
    26  H    6.654078   2.120589   5.035416   3.936091   4.362952
    27  C    6.301048   1.492252   4.795429   3.675217   3.170676
    28  H    7.297880   2.130621   5.863608   4.597294   4.165521
    29  H    6.554238   2.126899   4.823144   2.991547   2.460619
    30  H    5.808303   2.125520   4.572143   4.120129   3.390725
    31  C    2.840843   5.099422   1.485930   3.633194   3.859169
    32  H    2.605482   6.102230   2.129034   4.622369   4.759109
    33  H    3.783386   5.214096   2.118393   3.001133   3.348916
    34  H    3.301653   5.035420   2.120595   3.936077   4.362957
    35  C    2.543653   4.795428   1.492251   3.675174   3.170653
    36  H    3.601911   4.823106   2.126895   2.991476   2.460565
    37  H    2.346988   5.863615   2.130626   4.597234   4.165487
    38  H    2.741526   4.572158   2.125510   4.120105   3.390716
    39  H    5.120024   3.002582   3.002602   1.145603   1.920464
    40  H    4.543136   6.342072   5.649102   8.152194   7.508452
                   21         22         23         24         25
    21  H    0.000000
    22  H    1.811020   0.000000
    23  C    3.361117   4.655041   0.000000
    24  H    2.469662   3.999187   1.100742   0.000000
    25  H    4.225797   5.666802   1.106080   1.796993   0.000000
    26  H    3.773053   4.829875   1.099795   1.802862   1.805282
    27  C    3.661434   4.739090   2.430210   2.630157   2.694938
    28  H    4.388636   5.680477   2.632020   2.915130   2.418719
    29  H    2.838510   4.028046   2.697975   2.425022   3.109427
    30  H    4.336100   5.093545   3.385398   3.661084   3.672486
    31  C    4.655016   3.361025   5.727430   5.701129   6.804930
    32  H    5.666781   4.225713   6.804937   6.799605   7.871540
    33  H    3.999159   2.469586   5.701137   5.463410   6.799605
    34  H    4.829877   3.772991   5.473892   5.538840   6.540428
    35  C    4.739066   3.661334   5.876803   5.850531   6.827282
    36  H    4.027982   2.838402   5.754192   5.524630   6.720903
    37  H    5.680430   4.388510   6.932952   6.909393   7.898667
    38  H    5.093549   4.336019   5.835272   5.911990   6.673317
    39  H    1.776101   1.776100   3.123673   2.736385   4.209066
    40  H    8.916716   8.711192   7.730769   8.430184   8.104297
                   26         27         28         29         30
    26  H    0.000000
    27  C    3.387064   0.000000
    28  H    3.660786   1.106067   0.000000
    29  H    3.678514   1.100963   1.800228   0.000000
    30  H    4.222329   1.101182   1.804598   1.805298   0.000000
    31  C    5.473878   5.876806   6.932950   5.754230   5.835262
    32  H    6.540422   6.827286   7.898666   6.720946   6.673306
    33  H    5.538830   5.850547   6.909410   5.524683   5.911992
    34  H    5.020380   6.047205   7.032863   6.014538   6.134232
    35  C    6.047194   4.998910   6.093351   4.874255   4.574783
    36  H    6.014492   4.874222   5.969586   4.510200   4.587753
    37  H    7.032856   6.093357   7.182680   5.969618   5.620108
    38  H    6.134235   4.574796   5.620112   4.587795   3.944080
    39  H    3.148122   3.697348   4.611422   3.311448   4.183173
    40  H    7.889756   6.511655   7.035957   7.281129   5.624816
                   31         32         33         34         35
    31  C    0.000000
    32  H    1.106090   0.000000
    33  H    1.100729   1.796990   0.000000
    34  H    1.099790   1.805278   1.802857   0.000000
    35  C    2.430212   2.694937   2.630152   3.387063   0.000000
    36  H    2.697982   3.109449   2.425032   3.678516   1.100961
    37  H    2.632016   2.418709   2.915102   3.660779   1.106070
    38  H    3.385392   3.672472   3.661078   4.222323   1.101176
    39  H    3.123689   4.209091   2.736413   3.148153   3.697351
    40  H    6.950546   7.066584   7.755081   7.225476   5.692462
                   36         37         38         39         40
    36  H    0.000000
    37  H    1.800230   0.000000
    38  H    1.805286   1.804599   0.000000
    39  H    3.311426   4.611420   4.183182   0.000000
    40  H    6.632833   5.927909   4.873468   7.775277   0.000000
 Stoichiometry    C12H23N3OPt(2+)
 Framework group  C1[X(C12H23N3OPt)]
 Deg. of freedom   114
 Full point group                 C1      NOp   1
 Largest Abelian subgroup         C1      NOp   1
 Largest concise Abelian subgroup C1      NOp   1
                         Standard orientation:                         
 ---------------------------------------------------------------------
 Center     Atomic      Atomic             Coordinates (Angstroms)
 Number     Number       Type             X           Y           Z
 ---------------------------------------------------------------------
      1         78           0        0.850741    0.013395   -0.094649
      2          6           0       -1.630885   -1.240205   -0.377108
      3          6           0       -1.683000    1.157126   -0.380728
      4          6           0       -2.929658   -1.312733    0.020077
      5          6           0       -2.983724    1.174346    0.016311
      6          6           0       -3.723394   -0.085517    0.243817
      7          1           0       -3.426409   -2.277311    0.158491
      8          1           0       -3.521920    2.116836    0.151848
      9          8           0       -4.896631   -0.110486    0.600588
     10          7           0       -1.015163   -0.027976   -0.636662
     11          6           0       -0.678865   -2.364456   -0.686920
     12          1           0       -0.494521   -2.393465   -1.776069
     13          1           0       -1.041145   -3.352931   -0.353272
     14          6           0       -0.780714    2.320741   -0.694003
     15          1           0       -0.597733    2.354438   -1.783247
     16          1           0       -1.185628    3.293551   -0.363315
     17          7           0        0.655990   -2.068620   -0.032796
     18          7           0        0.565696    2.085164   -0.039085
     19          6           0        3.186129    0.065704    0.910705
     20          1           0        2.456122    0.051071    1.735365
     21          1           0        3.823857   -0.826052    0.971853
     22          1           0        3.784440    0.984537    0.969091
     23          6           0        1.727068   -2.832903   -0.723178
     24          1           0        2.678253   -2.679375   -0.190909
     25          1           0        1.478294   -3.910603   -0.713746
     26          1           0        1.814717   -2.478955   -1.760765
     27          6           0        0.590241   -2.490054    1.397200
     28          1           0        0.444586   -3.585283    1.448618
     29          1           0        1.533939   -2.224389    1.898173
     30          1           0       -0.254715   -1.980131    1.885698
     31          6           0        1.602608    2.893168   -0.731857
     32          1           0        1.307226    3.959069   -0.725671
     33          1           0        2.559522    2.782739   -0.199199
     34          1           0        1.705606    2.540234   -1.768374
     35          6           0        0.481626    2.507670    1.389633
     36          1           0        1.435939    2.284741    1.891336
     37          1           0        0.288552    3.595694    1.437756
     38          1           0       -0.340410    1.963013    1.879728
     39          1           0        2.774826    0.055113   -0.158465
     40          1           0       -4.918368    0.889276    0.599074
 ---------------------------------------------------------------------
 Rotational constants (GHZ):           0.5287092           0.3464898           0.2358510
 Standard basis: def2TZVPP (5D, 7F)
 There are   992 symmetry adapted cartesian basis functions of A   symmetry.
 There are   874 symmetry adapted basis functions of A   symmetry.
   874 basis functions,  1307 primitive gaussians,   992 cartesian basis functions
    70 alpha electrons       70 beta electrons
       nuclear repulsion energy      1572.1557424599 Hartrees.
 NAtoms=   40 NActive=   40 NUniq=   40 SFac= 1.00D+00 NAtFMM=   60 NAOKFM=F Big=F
 Integral buffers will be    131072 words long.
 Raffenetti 2 integral format.
 Two-electron integral symmetry is turned on.
 Nuclear repulsion after empirical dispersion term =     1572.1111048275 Hartrees.
 ------------------------------------------------------------------------------
 Polarizable Continuum Model (PCM)
 =================================
 Model                : PCM.
 Atomic radii         : UFF (Universal Force Field).
 Polarization charges : Total charges.
 Charge compensation  : None.
 Solution method      : On-the-fly selection.
 Cavity type          : Scaled VdW (van der Waals Surface) (Alpha=1.100).
 Cavity algorithm     : GePol (No added spheres)
                        Default sphere list used, NSphG=   40.
                        Lebedev-Laikov grids with approx.  5.0 points / Ang**2.
                        Smoothing algorithm: York/Karplus (Gamma=1.0000).
                        Polarization charges: spherical gaussians, with
                                              point-specific exponents (IZeta= 3).
                        Self-potential: point-specific (ISelfS= 7).
                        Self-field    : sphere-specific E.n sum rule (ISelfD= 2).
 1st derivatives      : Analytical E(r).r(x)/FMM algorithm (CHGder, D1EAlg=3).
                        Cavity 1st derivative terms included.
 Solvent              : Dichloromethane, Eps=   8.930000 Eps(inf)=   2.028346
 ------------------------------------------------------------------------------
 One-electron integrals computed using PRISM.
   1 Symmetry operations used in ECPInt.
 ECPInt:  NShTT=   54615 NPrTT=  140092 LenC2=   49383 LenP2D=   96695.
 LDataN:  DoStor=T MaxTD1= 9 Len=  602
 NBasis=   874 RedAO= T EigKep=  2.01D-05  NBF=   874
 NBsUse=   874 1.00D-06 EigRej= -1.00D+00 NBFU=   874
 Defaulting to unpruned grid for atomic number  78.
 ExpMin= 4.92D-02 ExpMax= 2.70D+04 ExpMxC= 9.22D+02 IAcc=3 IRadAn=         5 AccDes= 0.00D+00
 Harris functional with IExCor= 4639 and IRadAn=       5 diagonalized for initial guess.
 HarFok:  IExCor= 4639 AccDes= 0.00D+00 IRadAn=         5 IDoV= 1 UseB2=F ITyADJ=14
 ICtDFT=  3500011 ScaDFX=  1.000000  1.000000  1.000000  1.000000
 Defaulting to unpruned grid for atomic number  78.
 FoFCou: FMM=F IPFlag=           0 FMFlag=      100000 FMFlg1=           0
         NFxFlg=           0 DoJE=T BraDBF=F KetDBF=T FulRan=T
         wScrn=  0.000000 ICntrl=       500 IOpCl=  0 I1Cent=   200000004 NGrid=           0
         NMat0=    1 NMatS0=      1 NMatT0=    0 NMatD0=    1 NMtDS0=    0 NMtDT0=    0
 Petite list used in FoFCou.
 Requested convergence on RMS density matrix=1.00D-08 within 128 cycles.
 Requested convergence on MAX density matrix=1.00D-06.
 Requested convergence on             energy=1.00D-06.
 No special actions if energy rises.
 Defaulting to unpruned grid for atomic number  78.
 Defaulting to unpruned grid for atomic number  78.
 Defaulting to unpruned grid for atomic number  78.
 Defaulting to unpruned grid for atomic number  78.
 Defaulting to unpruned grid for atomic number  78.
 Defaulting to unpruned grid for atomic number  78.
 Inv3:  Mode=1 IEnd=    19126875.
 Iteration    1 A*A^-1 deviation from unit magnitude is 3.11D-15 for    230.
 Iteration    1 A*A^-1 deviation from orthogonality  is 1.91D-15 for   2247   1158.
 Iteration    1 A^-1*A deviation from unit magnitude is 3.11D-15 for   1378.
 Iteration    1 A^-1*A deviation from orthogonality  is 2.76D-15 for   1747    373.
 Error on total polarization charges =  0.02017
 SCF Done:  E(RwB97XD) =  -829.738207396     A.U. after   17 cycles
            NFock= 17  Conv=0.56D-08     -V/T= 2.1116

 **********************************************************************

            Population analysis using the SCF Density.

 **********************************************************************

 Orbital symmetries:
       Occupied  (A) (A) (A) (A) (A) (A) (A) (A) (A) (A) (A) (A)
                 (A) (A) (A) (A) (A) (A) (A) (A) (A) (A) (A) (A)
                 (A) (A) (A) (A) (A) (A) (A) (A) (A) (A) (A) (A)
                 (A) (A) (A) (A) (A) (A) (A) (A) (A) (A) (A) (A)
                 (A) (A) (A) (A) (A) (A) (A) (A) (A) (A) (A) (A)
                 (A) (A) (A) (A) (A) (A) (A) (A) (A) (A)
       Virtual   (A) (A) (A) (A) (A) (A) (A) (A) (A) (A) (A) (A)
                 (A) (A) (A) (A) (A) (A) (A) (A) (A) (A) (A) (A)
                 (A) (A) (A) (A) (A) (A) (A) (A) (A) (A) (A) (A)
                 (A) (A) (A) (A) (A) (A) (A) (A) (A) (A) (A) (A)
                 (A) (A) (A) (A) (A) (A) (A) (A) (A) (A) (A) (A)
                 (A) (A) (A) (A) (A) (A) (A) (A) (A) (A) (A) (A)
                 (A) (A) (A) (A) (A) (A) (A) (A) (A) (A) (A) (A)
                 (A) (A) (A) (A) (A) (A) (A) (A) (A) (A) (A) (A)
                 (A) (A) (A) (A) (A) (A) (A) (A) (A) (A) (A) (A)
                 (A) (A) (A) (A) (A) (A) (A) (A) (A) (A) (A) (A)
                 (A) (A) (A) (A) (A) (A) (A) (A) (A) (A) (A) (A)
                 (A) (A) (A) (A) (A) (A) (A) (A) (A) (A) (A) (A)
                 (A) (A) (A) (A) (A) (A) (A) (A) (A) (A) (A) (A)
                 (A) (A) (A) (A) (A) (A) (A) (A) (A) (A) (A) (A)
                 (A) (A) (A) (A) (A) (A) (A) (A) (A) (A) (A) (A)
                 (A) (A) (A) (A) (A) (A) (A) (A) (A) (A) (A) (A)
                 (A) (A) (A) (A) (A) (A) (A) (A) (A) (A) (A) (A)
                 (A) (A) (A) (A) (A) (A) (A) (A) (A) (A) (A) (A)
                 (A) (A) (A) (A) (A) (A) (A) (A) (A) (A) (A) (A)
                 (A) (A) (A) (A) (A) (A) (A) (A) (A) (A) (A) (A)
                 (A) (A) (A) (A) (A) (A) (A) (A) (A) (A) (A) (A)
                 (A) (A) (A) (A) (A) (A) (A) (A) (A) (A) (A) (A)
                 (A) (A) (A) (A) (A) (A) (A) (A) (A) (A) (A) (A)
                 (A) (A) (A) (A) (A) (A) (A) (A) (A) (A) (A) (A)
                 (A) (A) (A) (A) (A) (A) (A) (A) (A) (A) (A) (A)
                 (A) (A) (A) (A) (A) (A) (A) (A) (A) (A) (A) (A)
                 (A) (A) (A) (A) (A) (A) (A) (A) (A) (A) (A) (A)
                 (A) (A) (A) (A) (A) (A) (A) (A) (A) (A) (A) (A)
                 (A) (A) (A) (A) (A) (A) (A) (A) (A) (A) (A) (A)
                 (A) (A) (A) (A) (A) (A) (A) (A) (A) (A) (A) (A)
                 (A) (A) (A) (A) (A) (A) (A) (A) (A) (A) (A) (A)
                 (A) (A) (A) (A) (A) (A) (A) (A) (A) (A) (A) (A)
                 (A) (A) (A) (A) (A) (A) (A) (A) (A) (A) (A) (A)
                 (A) (A) (A) (A) (A) (A) (A) (A) (A) (A) (A) (A)
                 (A) (A) (A) (A) (A) (A) (A) (A) (A) (A) (A) (A)
                 (A) (A) (A) (A) (A) (A) (A) (A) (A) (A) (A) (A)
                 (A) (A) (A) (A) (A) (A) (A) (A) (A) (A) (A) (A)
                 (A) (A) (A) (A) (A) (A) (A) (A) (A) (A) (A) (A)
                 (A) (A) (A) (A) (A) (A) (A) (A) (A) (A) (A) (A)
                 (A) (A) (A) (A) (A) (A) (A) (A) (A) (A) (A) (A)
                 (A) (A) (A) (A) (A) (A) (A) (A) (A) (A) (A) (A)
                 (A) (A) (A) (A) (A) (A) (A) (A) (A) (A) (A) (A)
                 (A) (A) (A) (A) (A) (A) (A) (A) (A) (A) (A) (A)
                 (A) (A) (A) (A) (A) (A) (A) (A) (A) (A) (A) (A)
                 (A) (A) (A) (A) (A) (A) (A) (A) (A) (A) (A) (A)
                 (A) (A) (A) (A) (A) (A) (A) (A) (A) (A) (A) (A)
                 (A) (A) (A) (A) (A) (A) (A) (A) (A) (A) (A) (A)
                 (A) (A) (A) (A) (A) (A) (A) (A) (A) (A) (A) (A)
                 (A) (A) (A) (A) (A) (A) (A) (A) (A) (A) (A) (A)
                 (A) (A) (A) (A) (A) (A) (A) (A) (A) (A) (A) (A)
                 (A) (A) (A) (A) (A) (A) (A) (A) (A) (A) (A) (A)
                 (A) (A) (A) (A) (A) (A) (A) (A) (A) (A) (A) (A)
                 (A) (A) (A) (A) (A) (A) (A) (A) (A) (A) (A) (A)
                 (A) (A) (A) (A) (A) (A) (A) (A) (A) (A) (A) (A)
                 (A) (A) (A) (A) (A) (A) (A) (A) (A) (A) (A) (A)
                 (A) (A) (A) (A) (A) (A) (A) (A) (A) (A) (A) (A)
                 (A) (A) (A) (A) (A) (A) (A) (A) (A) (A) (A) (A)
                 (A) (A) (A) (A) (A) (A) (A) (A) (A) (A) (A) (A)
                 (A) (A) (A) (A) (A) (A) (A) (A) (A) (A) (A) (A)
                 (A) (A) (A) (A) (A) (A) (A) (A) (A) (A) (A) (A)
                 (A) (A) (A) (A) (A) (A) (A) (A) (A) (A) (A) (A)
                 (A) (A) (A) (A) (A) (A) (A) (A) (A) (A) (A) (A)
                 (A) (A) (A) (A) (A) (A) (A) (A) (A) (A) (A) (A)
                 (A) (A) (A) (A) (A) (A) (A) (A) (A) (A) (A) (A)
                 (A) (A) (A) (A) (A) (A) (A) (A) (A) (A) (A) (A)
                 (A) (A) (A) (A) (A) (A) (A) (A) (A) (A) (A) (A)
                 (A) (A) (A) (A) (A) (A) (A) (A) (A) (A) (A) (A)
 The electronic state is 1-A.
 Alpha  occ. eigenvalues --  -19.38665 -14.57223 -14.57161 -14.55226 -10.46421
 Alpha  occ. eigenvalues --  -10.41980 -10.41598 -10.39387 -10.39226 -10.36870
 Alpha  occ. eigenvalues --  -10.36536 -10.36473 -10.36333 -10.36295 -10.36186
 Alpha  occ. eigenvalues --  -10.35287  -4.10940  -2.35829  -2.35641  -2.31993
 Alpha  occ. eigenvalues --   -1.32308  -1.14698  -1.11690  -1.10618  -0.97553
 Alpha  occ. eigenvalues --   -0.95396  -0.89294  -0.87564  -0.87110  -0.86799
 Alpha  occ. eigenvalues --   -0.86743  -0.80642  -0.79212  -0.76459  -0.75756
 Alpha  occ. eigenvalues --   -0.72900  -0.68890  -0.66352  -0.65483  -0.64204
 Alpha  occ. eigenvalues --   -0.63647  -0.63093  -0.62472  -0.61799  -0.61462
 Alpha  occ. eigenvalues --   -0.59445  -0.58917  -0.57678  -0.57268  -0.56215
 Alpha  occ. eigenvalues --   -0.55759  -0.55251  -0.54147  -0.54004  -0.52642
 Alpha  occ. eigenvalues --   -0.52532  -0.52129  -0.51399  -0.51120  -0.50989
 Alpha  occ. eigenvalues --   -0.50587  -0.50230  -0.48921  -0.44841  -0.43083
 Alpha  occ. eigenvalues --   -0.42122  -0.41614  -0.40498  -0.38429  -0.36935
 Alpha virt. eigenvalues --   -0.06343  -0.01702  -0.01649   0.03855   0.05018
 Alpha virt. eigenvalues --    0.07375   0.08463   0.08545   0.09873   0.09948
 Alpha virt. eigenvalues --    0.10914   0.11469   0.11852   0.12298   0.12636
 Alpha virt. eigenvalues --    0.13299   0.13611   0.13811   0.14183   0.14550
 Alpha virt. eigenvalues --    0.14904   0.15390   0.16483   0.16938   0.17257
 Alpha virt. eigenvalues --    0.17682   0.18249   0.18347   0.18396   0.18744
 Alpha virt. eigenvalues --    0.19313   0.19802   0.20002   0.20906   0.21298
 Alpha virt. eigenvalues --    0.21655   0.22142   0.22455   0.23091   0.24515
 Alpha virt. eigenvalues --    0.25209   0.25884   0.26128   0.26738   0.27109
 Alpha virt. eigenvalues --    0.27866   0.28210   0.29166   0.29406   0.30003
 Alpha virt. eigenvalues --    0.30594   0.31664   0.32112   0.32312   0.32837
 Alpha virt. eigenvalues --    0.33210   0.34467   0.34784   0.35222   0.35522
 Alpha virt. eigenvalues --    0.36151   0.36874   0.37329   0.37486   0.37723
 Alpha virt. eigenvalues --    0.38208   0.39504   0.39850   0.40454   0.40875
 Alpha virt. eigenvalues --    0.41382   0.41690   0.42052   0.42844   0.43116
 Alpha virt. eigenvalues --    0.43670   0.43902   0.44235   0.44656   0.45647
 Alpha virt. eigenvalues --    0.45781   0.46209   0.46605   0.46734   0.46836
 Alpha virt. eigenvalues --    0.46984   0.47655   0.47998   0.48379   0.48655
 Alpha virt. eigenvalues --    0.49343   0.49550   0.50195   0.50299   0.51374
 Alpha virt. eigenvalues --    0.51795   0.52624   0.52980   0.53169   0.53582
 Alpha virt. eigenvalues --    0.53924   0.54763   0.55087   0.55830   0.56331
 Alpha virt. eigenvalues --    0.56848   0.56939   0.57023   0.58255   0.58421
 Alpha virt. eigenvalues --    0.59992   0.60639   0.60791   0.61101   0.61199
 Alpha virt. eigenvalues --    0.62034   0.63199   0.63597   0.64323   0.65276
 Alpha virt. eigenvalues --    0.66456   0.66669   0.67115   0.68020   0.68353
 Alpha virt. eigenvalues --    0.68994   0.69906   0.70308   0.70658   0.71559
 Alpha virt. eigenvalues --    0.72710   0.73825   0.74182   0.74984   0.76772
 Alpha virt. eigenvalues --    0.77363   0.78460   0.79093   0.79511   0.81121
 Alpha virt. eigenvalues --    0.81700   0.82721   0.83183   0.83877   0.84118
 Alpha virt. eigenvalues --    0.85056   0.85509   0.85865   0.86361   0.86974
 Alpha virt. eigenvalues --    0.87326   0.88333   0.88717   0.89095   0.90409
 Alpha virt. eigenvalues --    0.90973   0.91600   0.91858   0.92447   0.92902
 Alpha virt. eigenvalues --    0.94045   0.94255   0.95723   0.96079   0.96671
 Alpha virt. eigenvalues --    0.97417   0.98173   0.99318   0.99911   1.00734
 Alpha virt. eigenvalues --    1.00931   1.01355   1.01712   1.02456   1.02781
 Alpha virt. eigenvalues --    1.02999   1.03977   1.04590   1.05040   1.05430
 Alpha virt. eigenvalues --    1.05771   1.05946   1.06278   1.07421   1.07916
 Alpha virt. eigenvalues --    1.08555   1.09563   1.09793   1.10405   1.10557
 Alpha virt. eigenvalues --    1.12471   1.12806   1.13977   1.14382   1.15600
 Alpha virt. eigenvalues --    1.15810   1.16335   1.16914   1.17052   1.17674
 Alpha virt. eigenvalues --    1.18618   1.18721   1.19999   1.21305   1.22055
 Alpha virt. eigenvalues --    1.22609   1.23687   1.24564   1.24888   1.25030
 Alpha virt. eigenvalues --    1.25325   1.25862   1.26292   1.27571   1.28143
 Alpha virt. eigenvalues --    1.28326   1.29500   1.29895   1.30392   1.31400
 Alpha virt. eigenvalues --    1.32233   1.32505   1.33254   1.33481   1.34095
 Alpha virt. eigenvalues --    1.35055   1.35127   1.35775   1.36483   1.36881
 Alpha virt. eigenvalues --    1.37650   1.38046   1.38871   1.39973   1.40295
 Alpha virt. eigenvalues --    1.40445   1.41002   1.42471   1.42854   1.43819
 Alpha virt. eigenvalues --    1.44710   1.44942   1.45771   1.46407   1.46917
 Alpha virt. eigenvalues --    1.47655   1.47945   1.48751   1.49566   1.49774
 Alpha virt. eigenvalues --    1.50754   1.51708   1.52069   1.52603   1.53740
 Alpha virt. eigenvalues --    1.54355   1.54607   1.55004   1.55359   1.56020
 Alpha virt. eigenvalues --    1.57003   1.57127   1.57676   1.58284   1.58907
 Alpha virt. eigenvalues --    1.59446   1.60319   1.61308   1.62361   1.62493
 Alpha virt. eigenvalues --    1.62680   1.63918   1.64450   1.65162   1.65759
 Alpha virt. eigenvalues --    1.66686   1.67743   1.68016   1.69202   1.69819
 Alpha virt. eigenvalues --    1.70297   1.72335   1.73156   1.73721   1.74702
 Alpha virt. eigenvalues --    1.75558   1.76940   1.77216   1.78023   1.78684
 Alpha virt. eigenvalues --    1.79539   1.79846   1.81178   1.82170   1.82584
 Alpha virt. eigenvalues --    1.84449   1.85503   1.86505   1.87118   1.89062
 Alpha virt. eigenvalues --    1.89992   1.90063   1.90802   1.92067   1.92192
 Alpha virt. eigenvalues --    1.93496   1.94815   1.95358   1.95648   1.96639
 Alpha virt. eigenvalues --    2.00038   2.01565   2.01794   2.04455   2.05020
 Alpha virt. eigenvalues --    2.05692   2.07190   2.08455   2.09564   2.10439
 Alpha virt. eigenvalues --    2.11638   2.14974   2.15540   2.15818   2.17238
 Alpha virt. eigenvalues --    2.17884   2.18089   2.20968   2.21234   2.22395
 Alpha virt. eigenvalues --    2.24387   2.24522   2.26462   2.26896   2.29514
 Alpha virt. eigenvalues --    2.30355   2.31088   2.32386   2.33453   2.34897
 Alpha virt. eigenvalues --    2.36743   2.38884   2.39480   2.41610   2.44701
 Alpha virt. eigenvalues --    2.46966   2.48453   2.52142   2.53208   2.55000
 Alpha virt. eigenvalues --    2.55864   2.56171   2.57336   2.58674   2.60583
 Alpha virt. eigenvalues --    2.61071   2.61155   2.62373   2.63735   2.64020
 Alpha virt. eigenvalues --    2.64403   2.64468   2.65181   2.65747   2.67989
 Alpha virt. eigenvalues --    2.68684   2.69103   2.69823   2.71275   2.73022
 Alpha virt. eigenvalues --    2.73310   2.74445   2.76002   2.76661   2.76803
 Alpha virt. eigenvalues --    2.77958   2.78708   2.79222   2.80538   2.81189
 Alpha virt. eigenvalues --    2.82417   2.82696   2.83132   2.84406   2.84629
 Alpha virt. eigenvalues --    2.84819   2.85554   2.86562   2.86931   2.87193
 Alpha virt. eigenvalues --    2.87885   2.88076   2.89430   2.90433   2.90790
 Alpha virt. eigenvalues --    2.91209   2.91727   2.92302   2.92352   2.93117
 Alpha virt. eigenvalues --    2.93790   2.94593   2.94901   2.96342   2.96871
 Alpha virt. eigenvalues --    2.97400   2.97550   2.98155   2.98217   2.98361
 Alpha virt. eigenvalues --    2.99097   2.99229   3.00295   3.01377   3.02143
 Alpha virt. eigenvalues --    3.03526   3.04437   3.04816   3.05063   3.05744
 Alpha virt. eigenvalues --    3.06058   3.07076   3.07787   3.08246   3.08354
 Alpha virt. eigenvalues --    3.09153   3.09726   3.10343   3.11745   3.12117
 Alpha virt. eigenvalues --    3.13116   3.14149   3.14864   3.15052   3.16029
 Alpha virt. eigenvalues --    3.16401   3.18503   3.18728   3.19469   3.20748
 Alpha virt. eigenvalues --    3.21328   3.21617   3.22745   3.22877   3.23177
 Alpha virt. eigenvalues --    3.23753   3.23970   3.25203   3.25936   3.26442
 Alpha virt. eigenvalues --    3.27014   3.28800   3.29051   3.29871   3.30210
 Alpha virt. eigenvalues --    3.31144   3.31360   3.31603   3.31971   3.32797
 Alpha virt. eigenvalues --    3.33761   3.34959   3.36131   3.36356   3.37075
 Alpha virt. eigenvalues --    3.37812   3.38324   3.38645   3.38894   3.39975
 Alpha virt. eigenvalues --    3.40667   3.40786   3.41226   3.41828   3.42390
 Alpha virt. eigenvalues --    3.43607   3.44011   3.44290   3.45264   3.45842
 Alpha virt. eigenvalues --    3.46773   3.47534   3.47646   3.48375   3.48450
 Alpha virt. eigenvalues --    3.49233   3.50064   3.50250   3.51099   3.51243
 Alpha virt. eigenvalues --    3.52302   3.52976   3.53278   3.54389   3.54867
 Alpha virt. eigenvalues --    3.55171   3.56350   3.56575   3.57757   3.58370
 Alpha virt. eigenvalues --    3.59711   3.60090   3.60698   3.61245   3.61425
 Alpha virt. eigenvalues --    3.61701   3.62284   3.63303   3.63477   3.64460
 Alpha virt. eigenvalues --    3.66180   3.66686   3.67174   3.68358   3.68721
 Alpha virt. eigenvalues --    3.68970   3.69024   3.70163   3.71005   3.71679
 Alpha virt. eigenvalues --    3.72367   3.73064   3.73543   3.74545   3.74995
 Alpha virt. eigenvalues --    3.75491   3.75695   3.76480   3.77066   3.77682
 Alpha virt. eigenvalues --    3.77942   3.78185   3.79110   3.79989   3.80466
 Alpha virt. eigenvalues --    3.81389   3.82366   3.82491   3.82911   3.83741
 Alpha virt. eigenvalues --    3.84670   3.85111   3.86127   3.87352   3.88475
 Alpha virt. eigenvalues --    3.88937   3.89891   3.90416   3.91458   3.92107
 Alpha virt. eigenvalues --    3.93088   3.94177   3.94628   3.95287   3.96208
 Alpha virt. eigenvalues --    3.96739   3.97190   3.97761   3.98337   3.98911
 Alpha virt. eigenvalues --    4.00628   4.01012   4.01132   4.02228   4.02422
 Alpha virt. eigenvalues --    4.03976   4.04946   4.05830   4.06643   4.06659
 Alpha virt. eigenvalues --    4.08757   4.09367   4.09526   4.10020   4.11382
 Alpha virt. eigenvalues --    4.11427   4.12943   4.13744   4.13974   4.14566
 Alpha virt. eigenvalues --    4.14792   4.15532   4.16329   4.17158   4.17516
 Alpha virt. eigenvalues --    4.17728   4.18237   4.18646   4.18837   4.18870
 Alpha virt. eigenvalues --    4.19363   4.19974   4.20764   4.21450   4.21925
 Alpha virt. eigenvalues --    4.22671   4.23000   4.23781   4.24880   4.25020
 Alpha virt. eigenvalues --    4.26087   4.26309   4.27098   4.27561   4.28135
 Alpha virt. eigenvalues --    4.29223   4.29749   4.29944   4.30764   4.31657
 Alpha virt. eigenvalues --    4.32393   4.32788   4.33341   4.34241   4.35416
 Alpha virt. eigenvalues --    4.35879   4.36337   4.37748   4.38354   4.39599
 Alpha virt. eigenvalues --    4.42638   4.42854   4.43487   4.44089   4.44526
 Alpha virt. eigenvalues --    4.45266   4.46568   4.47220   4.48427   4.49342
 Alpha virt. eigenvalues --    4.49950   4.51383   4.52532   4.54418   4.54930
 Alpha virt. eigenvalues --    4.57377   4.58205   4.63190   4.63687   4.64514
 Alpha virt. eigenvalues --    4.65543   4.66606   4.67179   4.68067   4.69827
 Alpha virt. eigenvalues --    4.70396   4.70925   4.73341   4.74200   4.74633
 Alpha virt. eigenvalues --    4.75021   4.75704   4.75821   4.76605   4.78873
 Alpha virt. eigenvalues --    4.80097   4.81186   4.82001   4.85073   4.85819
 Alpha virt. eigenvalues --    4.86575   4.86950   4.88385   4.90193   4.91549
 Alpha virt. eigenvalues --    4.93128   4.95311   4.96555   4.97234   4.97479
 Alpha virt. eigenvalues --    4.98558   5.00256   5.00552   5.02238   5.03279
 Alpha virt. eigenvalues --    5.03677   5.05281   5.06529   5.07475   5.08303
 Alpha virt. eigenvalues --    5.09557   5.11051   5.11423   5.12223   5.12806
 Alpha virt. eigenvalues --    5.13264   5.14232   5.16038   5.16549   5.17327
 Alpha virt. eigenvalues --    5.17901   5.18588   5.19404   5.20422   5.20613
 Alpha virt. eigenvalues --    5.20836   5.21269   5.22583   5.23971   5.25638
 Alpha virt. eigenvalues --    5.26416   5.26551   5.27054   5.28202   5.28975
 Alpha virt. eigenvalues --    5.30412   5.31405   5.31794   5.31925   5.33335
 Alpha virt. eigenvalues --    5.34355   5.34697   5.35429   5.35681   5.36031
 Alpha virt. eigenvalues --    5.37026   5.37708   5.38752   5.39215   5.40761
 Alpha virt. eigenvalues --    5.41948   5.43242   5.44927   5.45354   5.46064
 Alpha virt. eigenvalues --    5.47134   5.48411   5.49018   5.49923   5.50058
 Alpha virt. eigenvalues --    5.52399   5.52540   5.52756   5.55038   5.56761
 Alpha virt. eigenvalues --    5.57439   5.58177   5.59134   5.60057   5.60806
 Alpha virt. eigenvalues --    5.61599   5.63147   5.63997   5.64031   5.65243
 Alpha virt. eigenvalues --    5.67939   5.68128   5.69393   5.69449   5.71301
 Alpha virt. eigenvalues --    5.71789   5.72173   5.73118   5.73277   5.73533
 Alpha virt. eigenvalues --    5.74973   5.77831   5.78983   5.79636   5.87333
 Alpha virt. eigenvalues --    5.87876   5.97531   6.01406   6.03373   6.04898
 Alpha virt. eigenvalues --    6.06075   6.07388   6.07927   6.12802   6.13081
 Alpha virt. eigenvalues --    6.20218   6.24834   6.26364   6.28247   6.31844
 Alpha virt. eigenvalues --    6.61771   6.64076   6.79210   6.80212   6.93757
 Alpha virt. eigenvalues --    7.24397   7.32548   7.53463  22.81353  23.02500
 Alpha virt. eigenvalues --   23.27420  23.33029  23.40343  23.45160  23.64579
 Alpha virt. eigenvalues --   23.68108  23.72804  23.76349  23.76567  23.86026
 Alpha virt. eigenvalues --   30.46189  32.78758  32.79204  32.94345  37.28638
 Alpha virt. eigenvalues --   37.42538  44.09377  53.16126 285.13286
          Condensed to atoms (all electrons):
               1          2          3          4          5          6
     1  Pt  17.120572  -0.057487  -0.057584   0.000182   0.000374   0.000272
     2  C   -0.057487   5.060080  -0.054676   0.553863  -0.027008  -0.035213
     3  C   -0.057584  -0.054676   5.151309  -0.020470   0.430405  -0.016515
     4  C    0.000182   0.553863  -0.020470   4.897539  -0.006485   0.443263
     5  C    0.000374  -0.027008   0.430405  -0.006485   5.113332   0.424051
     6  C    0.000272  -0.035213  -0.016515   0.443263   0.424051   4.597224
     7  H   -0.000245  -0.014543  -0.001670   0.415660   0.008746  -0.034818
     8  H   -0.000241   0.000380   0.005666   0.002045   0.405510  -0.036901
     9  O    0.000140   0.001150   0.005821  -0.047372  -0.066677   0.390273
    10  N    0.243447   0.350697   0.361909  -0.075809  -0.084944  -0.003474
    11  C   -0.026734   0.228200  -0.006899  -0.063808   0.000128   0.007823
    12  H   -0.006019  -0.027689   0.000661  -0.000705   0.000310  -0.000458
    13  H    0.010298  -0.042508  -0.000122  -0.000907  -0.000247   0.000784
    14  C   -0.025859  -0.008693   0.212866   0.002764  -0.052041   0.002342
    15  H   -0.006149   0.000733  -0.025993   0.000178  -0.001772  -0.000247
    16  H    0.010389  -0.000092  -0.042070  -0.000257  -0.001411   0.000834
    17  N    0.211629  -0.017274   0.001348   0.004068  -0.000234  -0.000322
    18  N    0.211391   0.001434  -0.012717  -0.000491   0.004013   0.000056
    19  C    0.039616   0.000468   0.000469   0.000029   0.000035  -0.000003
    20  H    0.015725   0.000313   0.000344   0.000036   0.000051   0.000007
    21  H   -0.009016  -0.000049  -0.000021  -0.000001  -0.000001   0.000000
    22  H   -0.009025  -0.000019  -0.000050  -0.000001  -0.000001   0.000000
    23  C   -0.036341   0.011018  -0.000197  -0.000198   0.000049  -0.000002
    24  H   -0.014004  -0.000832  -0.000028   0.000032   0.000002  -0.000002
    25  H    0.011116   0.001899   0.000019  -0.000040  -0.000006   0.000004
    26  H   -0.008793  -0.001612   0.000028  -0.000156   0.000001   0.000008
    27  C   -0.028513   0.004585   0.000075   0.002551  -0.000313  -0.000241
    28  H    0.008893  -0.003666  -0.000018  -0.000093  -0.000002  -0.000008
    29  H   -0.009576  -0.000698   0.000147  -0.000099   0.000012   0.000014
    30  H   -0.008636   0.010808  -0.000830   0.003996   0.000403  -0.000677
    31  C   -0.036250  -0.000221   0.010288   0.000084  -0.000040  -0.000049
    32  H    0.011111   0.000018   0.001980  -0.000006  -0.000005   0.000004
    33  H   -0.013974  -0.000024  -0.000831   0.000002   0.000027  -0.000001
    34  H   -0.008671   0.000020  -0.001682   0.000003  -0.000153   0.000005
    35  C   -0.029109  -0.000091   0.004892  -0.000109   0.002693  -0.000351
    36  H   -0.009419   0.000149  -0.000675   0.000007  -0.000044   0.000013
    37  H    0.008906  -0.000019  -0.003704  -0.000002  -0.000173  -0.000001
    38  H   -0.008734  -0.000870   0.011252   0.000475   0.003573  -0.000693
    39  H    0.105228  -0.000153  -0.000227   0.000025   0.000012  -0.000009
    40  H   -0.000050  -0.000861   0.010494   0.001761  -0.025571  -0.048740
               7          8          9         10         11         12
     1  Pt  -0.000245  -0.000241   0.000140   0.243447  -0.026734  -0.006019
     2  C   -0.014543   0.000380   0.001150   0.350697   0.228200  -0.027689
     3  C   -0.001670   0.005666   0.005821   0.361909  -0.006899   0.000661
     4  C    0.415660   0.002045  -0.047372  -0.075809  -0.063808  -0.000705
     5  C    0.008746   0.405510  -0.066677  -0.084944   0.000128   0.000310
     6  C   -0.034818  -0.036901   0.390273  -0.003474   0.007823  -0.000458
     7  H    0.486140  -0.000107   0.003584   0.003033  -0.005816   0.000239
     8  H   -0.000107   0.503874  -0.001308   0.003128   0.000033   0.000001
     9  O    0.003584  -0.001308   7.555324   0.000489  -0.000074   0.000005
    10  N    0.003033   0.003128   0.000489   6.490688   0.010214  -0.006574
    11  C   -0.005816   0.000033  -0.000074   0.010214   4.912640   0.434040
    12  H    0.000239   0.000001   0.000005  -0.006574   0.434040   0.493313
    13  H    0.000240  -0.000003  -0.000005   0.003342   0.436044  -0.009821
    14  C    0.000085  -0.005951  -0.000277   0.012159  -0.002074  -0.000216
    15  H    0.000001   0.000155   0.000004  -0.006783  -0.000217  -0.000022
    16  H   -0.000003   0.000491   0.000007   0.003448   0.000073  -0.000001
    17  N    0.000137  -0.000001   0.000002  -0.022481   0.246388  -0.031066
    18  N   -0.000002   0.000075   0.000004  -0.023346   0.001193   0.000076
    19  C    0.000001   0.000000  -0.000000  -0.003912   0.000269  -0.000009
    20  H   -0.000000  -0.000000  -0.000000  -0.000509  -0.000484   0.000001
    21  H   -0.000000  -0.000000   0.000000   0.000122   0.000049  -0.000002
    22  H   -0.000000  -0.000000   0.000000   0.000122   0.000020  -0.000000
    23  C   -0.000018   0.000001  -0.000000  -0.002620  -0.039190  -0.002836
    24  H    0.000000   0.000000   0.000000   0.000076   0.007788   0.000377
    25  H    0.000003  -0.000000  -0.000000   0.000198  -0.009057  -0.002311
    26  H   -0.000005   0.000000  -0.000000  -0.000521  -0.003739   0.001891
    27  C   -0.000099   0.000001   0.000000  -0.001826  -0.031680   0.004241
    28  H   -0.000008  -0.000000   0.000000   0.000291  -0.006686  -0.000042
    29  H   -0.000004  -0.000000  -0.000000   0.000148   0.005854  -0.000113
    30  H    0.000262   0.000006  -0.000007  -0.003169  -0.011659   0.000226
    31  C    0.000001  -0.000010  -0.000000  -0.002576  -0.000268  -0.000007
    32  H   -0.000000   0.000003   0.000000   0.000192   0.000008  -0.000000
    33  H    0.000000  -0.000000   0.000000   0.000073  -0.000014   0.000000
    34  H    0.000000  -0.000005  -0.000000  -0.000500  -0.000049   0.000001
    35  C    0.000002  -0.000095   0.000002  -0.001876  -0.000062  -0.000010
    36  H   -0.000000  -0.000005  -0.000000   0.000136  -0.000030   0.000001
    37  H   -0.000000  -0.000009   0.000000   0.000297   0.000006  -0.000000
    38  H    0.000005   0.000264  -0.000006  -0.003126  -0.000015   0.000000
    39  H    0.000000   0.000000  -0.000000  -0.000867   0.000092  -0.000042
    40  H   -0.000805   0.007594   0.326059   0.000147   0.000031  -0.000001
              13         14         15         16         17         18
     1  Pt   0.010298  -0.025859  -0.006149   0.010389   0.211629   0.211391
     2  C   -0.042508  -0.008693   0.000733  -0.000092  -0.017274   0.001434
     3  C   -0.000122   0.212866  -0.025993  -0.042070   0.001348  -0.012717
     4  C   -0.000907   0.002764   0.000178  -0.000257   0.004068  -0.000491
     5  C   -0.000247  -0.052041  -0.001772  -0.001411  -0.000234   0.004013
     6  C    0.000784   0.002342  -0.000247   0.000834  -0.000322   0.000056
     7  H    0.000240   0.000085   0.000001  -0.000003   0.000137  -0.000002
     8  H   -0.000003  -0.005951   0.000155   0.000491  -0.000001   0.000075
     9  O   -0.000005  -0.000277   0.000004   0.000007   0.000002   0.000004
    10  N    0.003342   0.012159  -0.006783   0.003448  -0.022481  -0.023346
    11  C    0.436044  -0.002074  -0.000217   0.000073   0.246388   0.001193
    12  H   -0.009821  -0.000216  -0.000022  -0.000001  -0.031066   0.000076
    13  H    0.499925   0.000072  -0.000001  -0.000000  -0.023702  -0.000038
    14  C    0.000072   4.926133   0.432842   0.436143   0.001201   0.243720
    15  H   -0.000001   0.432842   0.492689  -0.009786   0.000083  -0.030535
    16  H   -0.000000   0.436143  -0.009786   0.500219  -0.000039  -0.023683
    17  N   -0.023702   0.001201   0.000083  -0.000039   6.334427  -0.009386
    18  N   -0.000038   0.243720  -0.030535  -0.023683  -0.009386   6.333658
    19  C    0.000001   0.000264  -0.000008   0.000000   0.001952   0.001943
    20  H    0.000002  -0.000511   0.000002   0.000001  -0.000303  -0.000295
    21  H   -0.000000   0.000021  -0.000000   0.000000  -0.000613  -0.000094
    22  H    0.000000   0.000051  -0.000002  -0.000000  -0.000094  -0.000618
    23  C   -0.004549  -0.000265  -0.000007   0.000002   0.255672   0.000837
    24  H   -0.000344  -0.000013   0.000000   0.000000  -0.027430   0.000060
    25  H    0.002967   0.000008  -0.000000   0.000000  -0.017542  -0.000015
    26  H   -0.000177  -0.000051   0.000001   0.000000  -0.032486   0.000099
    27  C   -0.011047  -0.000058  -0.000010   0.000007   0.254554   0.001138
    28  H    0.003955   0.000007  -0.000000  -0.000000  -0.019974  -0.000028
    29  H    0.000063  -0.000032   0.000001  -0.000000  -0.030355   0.000133
    30  H   -0.003201  -0.000012   0.000000  -0.000001  -0.028612   0.000240
    31  C    0.000002  -0.038467  -0.002864  -0.004577   0.000838   0.255489
    32  H    0.000000  -0.009293  -0.002277   0.002946  -0.000015  -0.017438
    33  H    0.000000   0.007798   0.000362  -0.000339   0.000059  -0.027357
    34  H    0.000000  -0.003670   0.001896  -0.000187   0.000098  -0.032455
    35  C    0.000007  -0.032401   0.004305  -0.011316   0.001133   0.254957
    36  H   -0.000000   0.005735  -0.000111   0.000052   0.000133  -0.030424
    37  H   -0.000000  -0.006626  -0.000047   0.004012  -0.000028  -0.019961
    38  H   -0.000001  -0.011677   0.000220  -0.003180   0.000235  -0.028568
    39  H    0.000003   0.000150  -0.000048   0.000004  -0.000661  -0.000655
    40  H    0.000000  -0.000506   0.000005   0.000020  -0.000001   0.000007
              19         20         21         22         23         24
     1  Pt   0.039616   0.015725  -0.009016  -0.009025  -0.036341  -0.014004
     2  C    0.000468   0.000313  -0.000049  -0.000019   0.011018  -0.000832
     3  C    0.000469   0.000344  -0.000021  -0.000050  -0.000197  -0.000028
     4  C    0.000029   0.000036  -0.000001  -0.000001  -0.000198   0.000032
     5  C    0.000035   0.000051  -0.000001  -0.000001   0.000049   0.000002
     6  C   -0.000003   0.000007   0.000000   0.000000  -0.000002  -0.000002
     7  H    0.000001  -0.000000  -0.000000  -0.000000  -0.000018   0.000000
     8  H    0.000000  -0.000000  -0.000000  -0.000000   0.000001   0.000000
     9  O   -0.000000  -0.000000   0.000000   0.000000  -0.000000   0.000000
    10  N   -0.003912  -0.000509   0.000122   0.000122  -0.002620   0.000076
    11  C    0.000269  -0.000484   0.000049   0.000020  -0.039190   0.007788
    12  H   -0.000009   0.000001  -0.000002  -0.000000  -0.002836   0.000377
    13  H    0.000001   0.000002  -0.000000   0.000000  -0.004549  -0.000344
    14  C    0.000264  -0.000511   0.000021   0.000051  -0.000265  -0.000013
    15  H   -0.000008   0.000002  -0.000000  -0.000002  -0.000007   0.000000
    16  H    0.000000   0.000001   0.000000  -0.000000   0.000002   0.000000
    17  N    0.001952  -0.000303  -0.000613  -0.000094   0.255672  -0.027430
    18  N    0.001943  -0.000295  -0.000094  -0.000618   0.000837   0.000060
    19  C    4.787840   0.371226   0.414155   0.414208  -0.001239   0.002992
    20  H    0.371226   0.520050  -0.010533  -0.010685  -0.000348  -0.000424
    21  H    0.414155  -0.010533   0.484344  -0.006944  -0.001829   0.000340
    22  H    0.414208  -0.010685  -0.006944   0.484410   0.000123   0.000160
    23  C   -0.001239  -0.000348  -0.001829   0.000123   4.794599   0.416853
    24  H    0.002992  -0.000424   0.000340   0.000160   0.416853   0.538478
    25  H   -0.000082  -0.000005   0.000011  -0.000000   0.409484  -0.016381
[...]
 31,0.00020995,0.00020685,-0.00086981,-0.00008221,0.00002093,-0.0000127
 5,-0.00002657,-0.00000235,-0.00002203,-0.00000391,0.00000093,0.0000123
 6,0.00000098,-0.00000135,-0.00000152,-0.00000216,-0.00000808,0.0000168
 7,0.00002691,0.00000886,0.00001644,0.00000073,0.00000432,-0.00002765,0
 .00000922,-0.00001404,-0.00001268,-0.00000624,0.00015215,-0.00025415,0
 .00058583,0.00017058,-0.00001438,-0.00010044,-0.00014947,0.00035256,0.
 00010068,-0.00012735,-0.00012841,-0.00003906,0.05981169,-0.06386188,0.
 02247522,-0.06274111,0.06638563,-0.00022403,0.00045670,-0.00018604,-0.
 00004663,-0.00004719,-0.00004500,0.00019033,0.00056821,-0.00044686,0.0
 0005200,-0.00008146,-0.00001124,-0.00020019,-0.00028695,0.00008887,0.0
 0005029,0.00015818,0.00002555,0.00000407,-0.00000304,0.00000693,0.0000
 1079,0.00000434,-0.00002501,-0.00007922,-0.00003179,-0.00000226,-0.000
 12450,-0.00004207,0.00012454,0.00000886,-0.00003654,0.00000683,0.00000
 125,-0.00000623,0.00000215,-0.00000613,-0.00000442,-0.00000397,0.00108
 175,-0.00118139,-0.00577033,-0.00183537,0.00003928,-0.00049544,0.00017
 243,-0.00001614,-0.00002031,-0.00005581,-0.00025036,-0.00010420,-0.032
 02953,0.00539874,-0.01642709,-0.00002322,-0.00004522,-0.00043095,-0.00
 008445,-0.00072495,0.00016390,0.00004082,0.00009450,0.00011717,0.00088
 789,-0.00039303,-0.00018352,-0.00004430,-0.00002226,0.00001802,0.00000
 634,-0.00001537,-0.00000227,0.00001848,-0.00000960,-0.00000910,0.00000
 239,-0.00000304,-0.00000475,-0.00000872,0.00002158,-0.00004132,0.00000
 301,-0.00000118,0.00000348,-0.00000380,-0.00000876,0.00001695,0.000005
 72,-0.00000034,0.00000525,-0.00214463,-0.00024272,0.00113660,0.0001811
 3,0.00002702,-0.00008257,0.00021543,0.00014936,-0.00126226,0.00015573,
 -0.00021258,0.00027569,-0.07814816,0.01911882,-0.07974268,0.09444286,-
 0.01765979,0.09405313,0.00087657,-0.00028861,-0.00012141,0.00007357,0.
 00007645,-0.00002175,-0.00026596,-0.00031420,0.00008381,-0.00005071,0.
 00002716,-0.00000264,0.00011704,0.00008677,0.00000594,-0.00002747,-0.0
 0010197,0.00000420,0.00000090,0.00000232,0.00000920,-0.00001769,-0.000
 00426,-0.00002281,0.00003317,0.00001406,-0.00000027,-0.00023022,0.0002
 7486,0.00004698,-0.00001208,-0.00001505,0.00000309,-0.00000113,-0.0000
 0015,0.00000064,0.00000247,0.00000643,0.00000360,0.00097173,-0.0020365
 7,-0.00046912,0.00004302,0.00007454,0.00010645,-0.00074862,0.00033525,
 -0.00059653,-0.00010680,0.00006932,-0.00001900,-0.00035938,-0.00217027
 ,-0.00060347,-0.00002103,0.00018125,-0.00014846,0.00004065,-0.00022627
 ,0.00014539,-0.00002209,0.00000186,0.00008147,0.00007277,-0.00007267,-
 0.00004987,0.00001367,0.00002492,-0.00002139,0.00000258,-0.00000610,-0
 .00000130,-0.00000167,0.00001053,0.00000909,0.00000028,-0.00000053,0.0
 0000208,-0.00001425,0.00000087,0.00003783,0.00000724,0.00000436,-0.000
 00751,-0.00000333,-0.00000860,0.00000296,0.00000553,0.00000332,-0.0000
 0133,-0.00004115,0.00082788,0.00021702,0.00040936,0.00012261,0.0001562
 8,-0.00009185,0.00018714,-0.00010467,-0.00009979,-0.00020077,-0.000066
 86,-0.05776065,0.04391364,0.00228917,-0.00263843,0.02850777,0.00214009
 ,0.05504521,-0.00005172,0.00096980,-0.00113788,0.00001718,0.00018008,-
 0.00004931,-0.00001135,-0.00006839,0.00010034,-0.00008951,0.00003221,0
 .00001131,-0.00008168,-0.00002753,0.00002024,0.00017445,-0.00001293,0.
 00000584,-0.00001358,0.00000006,0.00000270,-0.00002446,-0.00000558,-0.
 00000730,-0.00018271,0.00001370,0.00000420,0.00008423,0.00005867,-0.00
 008032,0.00015307,0.00000115,0.00007202,-0.00000331,0.00000550,-0.0000
 0587,-0.00003477,-0.00001458,-0.00000761,0.00066824,0.00080869,0.00102
 121,-0.00016756,0.00030532,0.00014196,-0.00042369,0.00005116,-0.000640
 20,0.00008819,-0.00017724,0.00019789,0.00121052,-0.01016931,-0.0054833
 0,-0.00006524,0.00005001,-0.00000847,-0.00007632,0.00005591,-0.0000436
 6,0.00001552,0.00000647,0.00000799,0.00001650,0.00000134,0.00001846,-0
 .00012677,0.00001322,0.00009305,0.00000829,0.00000976,0.00000055,0.000
 02162,-0.00004190,-0.00002213,0.00000505,0.00000578,0.00000153,-0.0000
 4102,-0.00011003,-0.00015843,-0.00000488,-0.00003014,0.00005285,0.0000
 0272,0.00001654,0.00000114,0.00000866,0.00002023,0.00000582,-0.0004779
 1,0.00128731,0.00097425,0.00043978,0.00012743,-0.00020387,0.00005148,-
 0.00013313,-0.00006708,-0.00003078,0.00033685,0.00007688,0.04301417,-0
 .30985655,-0.01385495,-0.00027062,-0.00437427,0.00021386,-0.04751778,0
 .33312426,-0.00037068,0.00137613,-0.00315863,0.00004430,0.00005877,-0.
 00000619,-0.00035499,-0.00003815,0.00007265,-0.00006250,0.00007157,0.0
 0000487,-0.00002970,0.00002888,0.00001807,0.00003651,-0.00004690,0.000
 00123,-0.00000584,-0.00000173,-0.00000611,-0.00001867,-0.00000388,0.00
 000878,-0.00006652,0.00001151,-0.00000300,0.00019980,0.00025583,-0.000
 04262,0.00026778,-0.00001838,0.00013102,-0.00001695,0.00000495,-0.0000
 1226,-0.00006000,-0.00001150,-0.00001436,0.00257480,-0.00201265,0.0005
 6209,0.00015272,0.00014312,0.00019695,-0.00117884,0.00043192,0.0005440
 0,0.00000627,-0.00086133,0.00081890,0.00472606,-0.03838154,-0.01469903
 ,-0.00004127,0.00020950,-0.00012959,0.00001664,-0.00015987,0.00002673,
 0.00000006,0.00001018,0.00006561,0.00009476,-0.00004995,-0.00000420,-0
 .00018311,0.00004196,0.00015328,0.00001616,-0.00000223,-0.00000416,0.0
 0003813,-0.00005305,-0.00004083,0.00001048,0.00001114,-0.00002023,-0.0
 0007890,-0.00029298,-0.00024761,-0.00000882,-0.00005311,0.00013471,0.0
 0001001,-0.00000089,0.00000334,-0.00001560,-0.00000804,0.00000273,-0.0
 0074537,-0.00267902,0.00179640,0.00018041,0.00100647,-0.00034009,0.000
 07142,0.00023646,-0.00011354,-0.00018225,0.00041889,0.00022585,0.00076
 744,-0.00602146,-0.05030899,-0.00045324,0.01079674,0.00158518,-0.00098
 403,0.01962878,0.06040926,0.00025522,0.00003388,0.00031366,0.00016800,
 0.00018973,-0.00007914,0.00080949,-0.00020820,0.00006067,-0.00015288,0
 .00008434,0.00000058,0.00010715,0.00021805,0.00004600,-0.00003390,-0.0
 0023779,-0.00002302,-0.00000741,0.00000494,0.00001824,-0.00001301,0.00
 000135,-0.00001208,0.00003090,0.00003720,0.00000555,-0.00042529,0.0003
 4540,-0.00037716,0.00003014,0.00000731,0.00002319,-0.00000950,0.000006
 56,-0.00000270,-0.00000236,0.00000031,0.00000470,0.00060762,0.00072097
 ,-0.00073379,0.00006907,0.00003254,0.00014199,0.00007909,0.00010438,-0
 .00007542,-0.00000490,0.00008834,-0.00005549,0.00260435,0.00282050,-0.
 00392373,-0.00008795,0.00001858,0.00006280,-0.00000980,-0.00007438,-0.
 00000851,0.00002452,0.00004514,0.00001617,0.00011375,-0.00004480,-0.00
 003591,-0.00001453,0.00000989,-0.00001241,-0.00000229,-0.00000165,0.00
 000262,0.00000160,-0.00000377,0.00000561,0.00000054,0.00000012,0.00000
 534,-0.00001570,-0.00000465,0.00001272,0.00000532,-0.00000743,-0.00001
 493,-0.00001391,0.00001391,0.00000575,0.00002980,0.00003467,0.00001711
 ,0.00022632,0.00019177,-0.00070435,-0.00005163,-0.00010224,0.00001840,
 0.00045227,0.00001576,-0.00010048,0.00053146,-0.00013902,-0.00002949,-
 0.18555163,-0.09843006,0.10211845,-0.01640099,-0.01483682,0.01539250,0
 .00484125,0.00380805,-0.00425015,0.19189029,0.00124841,-0.00103362,-0.
 00208406,-0.00008785,-0.00011591,-0.00000808,0.00021814,0.00039554,-0.
 00049798,0.00006604,-0.00004428,-0.00000466,0.00000865,-0.00002853,0.0
 0000447,-0.00009079,0.00004484,-0.00001285,0.00000480,-0.00000140,0.00
 000145,0.00002359,0.00000115,0.00001829,0.00008583,-0.00001712,-0.0000
 0398,-0.00010651,-0.00062906,0.00023678,-0.00004864,-0.00000754,-0.000
 01882,0.00000098,0.00000091,0.00000367,0.00000767,0.00000359,-0.000001
 90,0.00015171,0.00041605,0.00045550,0.00013406,-0.00014762,-0.00005878
 ,-0.00012773,-0.00038868,0.00004437,-0.00004079,0.00015841,0.00000858,
 0.00979689,0.00517253,-0.00804913,-0.00000439,0.00001630,-0.00005853,-
 0.00000393,0.00000446,0.00004352,-0.00001232,-0.00001048,0.00001375,-0
 .00003507,0.00001019,-0.00000299,0.00004444,0.00001190,-0.00002186,-0.
 00000197,-0.00000274,-0.00000136,-0.00001153,0.00001625,0.00000471,-0.
 00000306,0.00000306,0.00000230,0.00003406,0.00003534,0.00001934,-0.000
 00294,0.00001961,0.00000712,0.00000494,-0.00001180,0.00000027,-0.00003
 613,-0.00003465,-0.00001115,-0.00043346,-0.00005158,-0.00136197,0.0000
 8483,0.00041347,-0.00044955,-0.00008906,-0.00019289,-0.00004855,0.0001
 3815,0.00061046,-0.00037677,-0.10040087,-0.12140574,0.07529509,0.00588
 187,0.00385905,-0.00487623,-0.02174437,-0.01244733,0.01593898,0.105298
 22,0.12535691,0.00032144,0.00050465,-0.00063765,0.00001256,-0.00008580
 ,-0.00002914,-0.00064110,-0.00079178,0.00061047,0.00000266,0.00006307,
 -0.00001541,-0.00000907,0.00005390,0.00003489,-0.00019617,-0.00009587,
 -0.00001606,0.00000010,0.00000168,0.00000297,0.00000643,-0.00000177,0.
 00000562,0.00014853,0.00000921,-0.00000370,-0.00009298,-0.00016446,-0.
 00032880,0.00008911,-0.00003251,0.00005710,-0.00002112,0.00000482,-0.0
 0000622,-0.00002426,0.00000331,-0.00000579,0.00108995,0.00054563,0.000
 46495,0.00011230,0.00003533,0.00018403,-0.00022852,0.00017029,-0.00006
 441,-0.00003174,-0.00033749,-0.00004801,0.02406348,0.01593718,-0.02265
 824,-0.00003653,-0.00000997,-0.00003447,-0.00001060,-0.00004785,-0.000
 01626,-0.00000531,0.00000234,0.00001203,-0.00000375,0.00000472,-0.0000
 2675,-0.00004432,-0.00004021,0.00001597,0.00000003,-0.00000070,0.00000
 084,0.00001724,-0.00001204,-0.00001569,0.00000511,-0.00000009,-0.00001
 291,-0.00001518,0.00001085,-0.00004135,-0.00000148,-0.00000567,0.00000
 306,-0.00000325,0.00000650,0.00000524,0.00001701,0.00000935,0.00001449
 ,-0.00209935,-0.00327858,-0.00533758,-0.00012991,0.00002921,0.00005082
 ,0.00003288,-0.00014403,0.00018461,0.00124791,0.00110160,-0.00089501,0
 .09368152,0.06797117,-0.12118101,-0.00748776,-0.00646661,0.00771967,-0
 .00204391,-0.00087959,0.00237138,-0.10776683,-0.07416152,0.13959114,-0
 .01732271,-0.00004550,0.01351509,-0.00129651,0.00019595,-0.00006378,-0
 .00131022,-0.00016121,-0.00006318,0.00025314,-0.00076593,-0.00013591,0
 .00028839,0.00076747,-0.00013869,-0.00042157,-0.00004387,0.00003294,-0
 .00009731,0.00004269,-0.00000935,-0.00009816,-0.00003821,-0.00001156,0
 .00061660,-0.00003648,-0.00001209,-0.00667518,-0.00001001,0.00205413,-
 0.00051307,-0.00003715,-0.00012356,0.00001278,-0.00000541,0.00002047,0
 .00012674,0.00001101,0.00001841,-0.00050276,0.00004609,-0.00010788,0.0
 0001257,0.00000304,0.00002088,0.00012153,-0.00001162,0.00001696,-0.000
 66771,-0.00221620,-0.00236968,-0.00042668,0.00293284,-0.00197804,-0.07
 964484,0.00041407,-0.04298756,0.01796413,-0.00015014,0.01200532,-0.012
 07013,-0.00135644,-0.01818161,-0.01213563,0.00164168,-0.01830830,-0.00
 188250,-0.00214721,-0.00099787,-0.00030842,0.00007002,-0.00010862,-0.0
 0019612,0.00012887,0.00005815,-0.00004691,-0.00045244,0.00017739,0.000
 17393,0.00016827,0.00033430,-0.00003192,0.00010997,-0.00010960,0.00007
 630,0.00013338,-0.00002284,-0.00007190,-0.00005305,0.00006682,-0.00255
 304,0.00199321,-0.00129932,-0.00020357,-0.00012596,0.00005931,-0.00032
 093,-0.00012543,-0.00011115,-0.00000752,0.00040355,0.00022044,0.000184
 44,-0.00017566,0.00033004,0.00006838,-0.00012809,-0.00002381,-0.000034
 06,-0.00011006,-0.00010848,-0.00006580,0.00005188,0.00007061,0.1190428
 3,0.00017637,-0.00225531,-0.00057864,0.00028010,-0.00016511,0.00018170
 ,-0.00026947,-0.00013917,-0.00018135,0.00014572,-0.00001208,-0.0000286
 6,-0.00013646,-0.00001733,0.00003311,-0.00001307,0.00019146,-0.0000007
 4,0.00002110,-0.00000319,-0.00001940,-0.00002004,-0.00000132,0.0000202
 0,0.00001011,-0.00003733,0.00000071,0.00006429,0.00275592,-0.00002743,
 -0.00017663,0.00002267,-0.00014330,0.00000180,0.00000585,-0.00000381,0
 .00004315,0.00000558,0.00000847,0.00017506,0.00001805,0.00013677,-0.00
 000176,0.00000483,0.00000398,-0.00004088,0.00000358,-0.00000774,-0.001
 08171,0.00075927,0.00114987,0.00129633,0.00059095,-0.00062416,0.000605
 69,-0.02084146,0.00103240,-0.00001880,-0.00619434,-0.00003692,0.011229
 77,-0.00042111,0.01777799,-0.01110708,-0.00019167,-0.01761458,-0.00114
 125,0.00014789,-0.00004404,0.00026004,-0.00062824,0.00011852,0.0002875
 1,0.00010198,0.00001467,-0.00029780,-0.00138416,0.00002968,-0.00003124
 ,-0.00001606,0.00010693,0.00004475,0.00000800,-0.00002228,0.00009280,0
 .00005470,0.00004138,0.00003978,0.00000811,-0.00008094,0.00102424,0.00
 001515,-0.00011666,-0.00029500,0.00010255,-0.00001531,-0.00034701,-0.0
 0058728,-0.00016049,0.00030370,-0.00117808,-0.00004978,0.00003136,-0.0
 0001632,-0.00009743,-0.00009187,0.00005855,-0.00004320,-0.00004461,0.0
 0000591,0.00002074,-0.00003988,0.00000834,0.00008136,-0.00098578,0.029
 21611,0.04151041,-0.00000495,-0.01991210,-0.00088830,0.00071602,0.0001
 5699,-0.00089008,-0.00069938,0.00016114,-0.00022413,-0.00042379,-0.000
 24948,-0.00023757,0.00041333,-0.00025608,0.00048779,0.00000636,0.00005
 615,-0.00013077,0.00002960,-0.00003477,-0.00014799,-0.00001993,-0.0000
 3580,-0.00041268,0.00001510,0.00002080,-0.00469183,0.00000190,0.004346
 44,-0.00008768,-0.00007466,0.00024186,0.00001526,0.00000077,-0.0000016
 4,-0.00001482,-0.00006527,-0.00005089,-0.00008835,0.00007577,0.0002497
 9,0.00001493,-0.00000044,-0.00000214,-0.00001430,0.00006662,-0.0000519
 0,0.00099482,0.00107807,0.00022533,0.00102828,-0.00126845,0.00030911,-
 0.08219150,0.00112232,-0.17418582,-0.01123504,0.00004520,-0.00708727,-
 0.00089691,-0.00031858,-0.00167839,-0.00102072,0.00036038,-0.00186771,
 0.00051201,0.00074646,-0.00011680,-0.00020697,-0.00006624,-0.00010279,
 -0.00009176,-0.00002432,-0.00004957,0.00003696,0.00018086,0.00003610,0
 .00016942,0.00020107,-0.00017619,-0.00005663,0.00000063,0.00001622,-0.
 00006738,-0.00006044,-0.00004581,-0.00006402,-0.00000781,0.00004618,0.
 00081568,-0.00097971,0.00020413,-0.00009447,0.00002601,-0.00004830,-0.
 00020445,0.00007089,-0.00008930,0.00005356,-0.00012316,0.00004136,0.00
 017067,-0.00020386,-0.00017256,-0.00006579,0.00005905,-0.00004884,-0.0
 0005696,0.00000029,0.00001698,-0.00006365,0.00000790,0.00004718,0.0582
 7596,-0.00086069,0.20008756,-0.00017126,0.00003402,0.00004273,-0.00041
 656,0.00185373,0.00031499,-0.00138639,0.00114765,0.00010967,-0.0046485
 0,-0.00311204,0.00014570,0.00436311,0.00200422,-0.00028925,-0.03195507
 ,0.04631275,0.00036332,0.00010314,-0.00008365,-0.00005725,0.00104531,-
 0.00197352,0.00068292,-0.11486940,0.14372362,0.00052115,0.00118255,-0.
 00114467,-0.00015724,-0.00029342,-0.00020075,-0.00019110,0.00008123,-0
 .00003505,0.00003572,0.00003877,-0.00002891,0.00000495,-0.00000516,-0.
 00027766,-0.00013339,0.00012486,0.00004663,0.00002985,0.00002592,-0.00
 002317,0.00001982,-0.00006525,0.00001797,0.00002559,0.00016345,0.00013
 283,-0.00005148,0.00008341,0.00000976,-0.00000843,-0.00000498,0.000003
 44,-0.00004549,0.00003272,0.00000924,0.00001274,0.00003298,-0.00001114
 ,0.00001484,-0.00006631,0.00002608,0.00004851,0.00001022,0.00000791,0.
 00000279,0.00000209,-0.00001895,-0.00000512,-0.00000007,-0.00000370,0.
 00000591,-0.00000034,0.00000769,-0.00006306,-0.00000249,-0.00001977,0.
 00000491,0.00000860,0.00000703,0.00000409,0.00000142,0.00000982,-0.000
 01942,-0.00000350,-0.00008543,0.00013496,-0.00001114,0.00001560,-0.000
 00272,0.00004037,0.00001128,-0.00001339,-0.00000595,0.00000696,0.00000
 800,0.00002747,-0.00004265,-0.00010883,0.00001852,-0.00000267,0.000018
 34,-0.00000861,0.00001799,0.00000216,-0.00001467,-0.00000374,-0.000025
 74,-0.00003659,0.00000669,0.00005900,0.14657953,-0.00005258,0.00000528
 ,-0.00005308,0.00167900,0.00059344,-0.00005521,0.00113105,-0.00132218,
 -0.00002935,-0.00322702,0.00276638,0.00008270,-0.00622628,0.00277963,-
 0.00017812,-0.00074774,0.00352649,-0.00000085,-0.00017390,0.00031730,0
 .00004580,0.00027876,-0.00056780,0.00074807,0.19692021,-0.45296020,0.0
 0089568,-0.00099524,-0.00015665,0.00012208,0.00001302,-0.00004795,0.00
 007375,-0.00003941,-0.00000702,-0.00002030,-0.00001158,-0.00000341,-0.
 00000483,-0.00003261,0.00009084,0.00006449,-0.00003851,0.00000880,-0.0
 0001961,-0.00003576,-0.00003808,-0.00001143,-0.00003363,0.00002394,0.0
 0000840,-0.00002112,-0.00004333,0.00000572,-0.00005292,0.00000693,-0.0
 0003733,-0.00001385,0.00000136,0.00003479,-0.00002426,-0.00000852,-0.0
 0000720,-0.00002321,0.00000722,-0.00000507,0.00001793,-0.00003436,-0.0
 0005617,-0.00001533,-0.00000012,0.00000414,0.00000232,0.00001124,0.000
 00226,0.00000132,0.00000267,-0.00000457,-0.00001047,-0.00001234,0.0000
 6021,0.00000433,0.00001289,-0.00000471,-0.00000794,-0.00000368,-0.0000
 0507,0.00000380,-0.00000534,0.00001366,0.00002928,0.00002242,-0.000052
 25,-0.00000345,-0.00001633,0.00000306,-0.00001078,0.00000163,0.0000042
 9,0.00000015,-0.00000041,-0.00000482,-0.00000134,0.00000776,0.00006317
 ,-0.00000289,0.00000379,-0.00000474,-0.00000052,-0.00001842,-0.0000058
 6,-0.00000122,0.00001260,0.00001036,0.00006785,0.00000411,-0.00002293,
 -0.18834545,0.44503943,0.00000187,0.00000107,-0.00003123,0.00004265,-0
 .00020132,0.00186592,0.00001152,-0.00008342,-0.00064231,0.00039897,0.0
 0006804,0.00427876,0.00001854,-0.00006595,-0.00103821,0.00074928,-0.00
 109036,-0.00311443,-0.00002021,0.00005689,-0.00059022,0.00050920,0.000
 75766,-0.00044336,-0.00024528,0.00210168,-0.00848842,-0.00004457,0.000
 12825,0.00000508,-0.00003531,-0.00000919,-0.00049167,0.00008864,-0.000
 09635,-0.00000294,-0.00001962,0.00003881,0.00001910,0.00001985,0.00000
 512,0.00015200,-0.00001020,-0.00002683,-0.00000187,0.00001030,0.000007
 83,0.00000353,-0.00001443,0.00005121,-0.00005484,0.00000750,0.00001184
 ,0.00000112,-0.00000197,-0.00000074,-0.00000110,-0.00000017,0.00000103
 ,0.00000400,-0.00000121,-0.00000031,0.00000117,-0.00000119,0.00000111,
 0.00000290,0.00000078,0.00000096,-0.00000292,-0.00000085,-0.00000061,0
 .00000416,-0.00000007,0.00000043,0.00000063,0.00000029,0.00000066,0.00
 000234,-0.00001743,0.00000380,0.00002635,-0.00000042,0.00000247,-0.000
 00291,0.00000073,0.00000066,-0.00000479,0.00000419,-0.00000026,-0.0000
 0043,-0.00000672,-0.00000393,0.00000442,0.00000185,0.00000024,0.000002
 38,-0.00000061,0.00000098,-0.00000167,0.00000343,-0.00000266,-0.000005
 08,-0.00000157,0.00000140,0.00002268,0.00000214,-0.00000160,-0.0000038
 9,-0.00000203,-0.00000319,0.00000144,-0.00000278,0.00000464,-0.0000019
 8,-0.00000434,-0.00000091,0.00000085,-0.00144076,-0.00165913,0.0085254
 4\\0.00000359,0.00001447,0.00002482,0.00000839,-0.00000212,-0.00002788
 ,-0.00000279,-0.00000304,-0.00002865,0.00000614,-0.00001228,-0.0000397
 5,0.00000252,0.00000097,-0.00004269,-0.00001536,-0.00000902,-0.0000380
 7,0.00000966,-0.00000744,-0.00004486,0.00000264,-0.00000500,-0.0000456
 7,0.00001575,-0.00000717,-0.00006840,0.00000317,-0.00000381,-0.0000147
 9,0.00001232,-0.00000192,-0.00000980,0.00002557,-0.00000067,-0.0000081
 3,0.00000558,-0.00000462,-0.00001322,0.00000858,-0.00000171,-0.0000111
 1,0.00001415,-0.00000323,-0.00001148,-0.00000383,-0.00000119,-0.000016
 98,0.00000876,-0.00000714,0.00000018,-0.00001352,0.00001207,0.00001636
 ,-0.00001701,0.00000400,0.00006668,-0.00001763,0.00000029,0.00002724,0
 .00000148,0.00000961,0.00004630,-0.00000177,0.00000710,0.00004018,0.00
 001535,0.00000422,0.00001992,0.00000994,0.00000242,0.00003230,0.000017
 21,-0.00000018,0.00001835,0.00002718,0.00000040,0.00002302,-0.00001064
 ,0.00000845,0.00000617,-0.00001291,0.00000157,0.00000957,-0.00001889,0
 .00000268,0.00002735,-0.00002070,-0.00000004,0.00000305,0.00001125,-0.
 00000216,0.00001709,0.00000303,0.00000327,0.00001474,0.00000141,0.0000
 0359,0.00003336,0.00001766,0.00000156,0.00001896,-0.00002400,0.0000026
 6,-0.00000355,-0.00002861,0.00000420,0.00002245,-0.00002466,0.00000206
 ,0.00000518,-0.00002650,0.00000115,-0.00000032,0.00000884,-0.00000634,
 0.00002468,-0.00000135,-0.00000769,-0.00007259\\\@
 The archive entry for this job was punched.


 A successful marriage requires falling in love
 many times, always with the same person.
                           -- Mignon McLaughlin
 Job cpu time:       1 days 20 hours 12 minutes  1.6 seconds.
 Elapsed time:       0 days  7 hours 23 minutes 49.3 seconds.
 File lengths (MBytes):  RWF=   2019 Int=      0 D2E=      0 Chk=     72 Scr=      1
 Normal termination of Gaussian 16 at Fri Mar 29 13:20:19 2024.
