 Entering Gaussian System, Link 0=/cm/shared/apps//g16/g16
 Input=HZPtMeH.gjf
 Output=HZPtMeH.log
 Initial command:
 /cm/shared/apps//g16/l1.exe "/local/mvanvleet/pbs.14636.josephine/Gau-3328724.inp" -scrdir="/local/mvanvleet/pbs.14636.josephine/"
 Entering Link 1 = /cm/shared/apps//g16/l1.exe PID=   3328727.
  
 Copyright (c) 1988-2019, Gaussian, Inc.  All Rights Reserved.
  
 This is part of the Gaussian(R) 16 program.  It is based on
 the Gaussian(R) 09 system (copyright 2009, Gaussian, Inc.),
 the Gaussian(R) 03 system (copyright 2003, Gaussian, Inc.),
 the Gaussian(R) 98 system (copyright 1998, Gaussian, Inc.),
 the Gaussian(R) 94 system (copyright 1995, Gaussian, Inc.),
 the Gaussian 92(TM) system (copyright 1992, Gaussian, Inc.),
 the Gaussian 90(TM) system (copyright 1990, Gaussian, Inc.),
 the Gaussian 88(TM) system (copyright 1988, Gaussian, Inc.),
 the Gaussian 86(TM) system (copyright 1986, Carnegie Mellon
 University), and the Gaussian 82(TM) system (copyright 1983,
 Carnegie Mellon University). Gaussian is a federally registered
 trademark of Gaussian, Inc.
  
 This software contains proprietary and confidential information,
 including trade secrets, belonging to Gaussian, Inc.
  
 This software is provided under written license and may be
 used, copied, transmitted, or stored only in accord with that
 written license.
  
 The following legend is applicable only to US Government
 contracts under FAR:
  
                    RESTRICTED RIGHTS LEGEND
  
 Use, reproduction and disclosure by the US Government is
 subject to restrictions as set forth in subparagraphs (a)
 and (c) of the Commercial Computer Software - Restricted
 Rights clause in FAR 52.227-19.
  
 Gaussian, Inc.
 340 Quinnipiac St., Bldg. 40, Wallingford CT 06492
  
  
 ---------------------------------------------------------------
 Warning -- This program may not be used in any manner that
 competes with the business of Gaussian, Inc. or will provide
 assistance to any competitor of Gaussian, Inc.  The licensee
 of this program is prohibited from giving any competitor of
 Gaussian, Inc. access to this program.  By using this program,
 the user acknowledges that Gaussian, Inc. is engaged in the
 business of creating and licensing software in the field of
 computational chemistry and represents and warrants to the
 licensee that it is not a competitor of Gaussian, Inc. and that
 it will not use this program in any manner prohibited above.
 ---------------------------------------------------------------
  

 Cite this work as:
 Gaussian 16, Revision C.01,
 M. J. Frisch, G. W. Trucks, H. B. Schlegel, G. E. Scuseria, 
 M. A. Robb, J. R. Cheeseman, G. Scalmani, V. Barone, 
 G. A. Petersson, H. Nakatsuji, X. Li, M. Caricato, A. V. Marenich, 
 J. Bloino, B. G. Janesko, R. Gomperts, B. Mennucci, H. P. Hratchian, 
 J. V. Ortiz, A. F. Izmaylov, J. L. Sonnenberg, D. Williams-Young, 
 F. Ding, F. Lipparini, F. Egidi, J. Goings, B. Peng, A. Petrone, 
 T. Henderson, D. Ranasinghe, V. G. Zakrzewski, J. Gao, N. Rega, 
 G. Zheng, W. Liang, M. Hada, M. Ehara, K. Toyota, R. Fukuda, 
 J. Hasegawa, M. Ishida, T. Nakajima, Y. Honda, O. Kitao, H. Nakai, 
 T. Vreven, K. Throssell, J. A. Montgomery, Jr., J. E. Peralta, 
 F. Ogliaro, M. J. Bearpark, J. J. Heyd, E. N. Brothers, K. N. Kudin, 
 V. N. Staroverov, T. A. Keith, R. Kobayashi, J. Normand, 
 K. Raghavachari, A. P. Rendell, J. C. Burant, S. S. Iyengar, 
 J. Tomasi, M. Cossi, J. M. Millam, M. Klene, C. Adamo, R. Cammi, 
 J. W. Ochterski, R. L. Martin, K. Morokuma, O. Farkas, 
 J. B. Foresman, and D. J. Fox, Gaussian, Inc., Wallingford CT, 2019.
 
 ******************************************
 Gaussian 16:  ES64L-G16RevC.01  3-Jul-2019
                28-Mar-2024 
 ******************************************
 %nprocshared=6
 Will use up to    6 processors via shared memory.
 %chk=HZPtMeH.chk
 %mem=2GB
 ----------------------------------------------------------
 # wb97xd def2TZVPP SCRF=(solvent=dichloromethane) opt freq
 ----------------------------------------------------------
 1/18=20,19=15,26=3,38=1/1,3;
 2/9=110,12=2,17=6,18=5,40=1/2;
 3/5=44,7=202,11=2,25=1,30=1,70=2201,71=1,72=9,74=-58/1,2,3;
 4//1;
 5/5=2,38=5,53=9/2;
 6/7=2,8=2,9=2,10=2,28=1/1;
 7//1,2,3,16;
 1/18=20,19=15,26=3/3(2);
 2/9=110/2;
 99//99;
 2/9=110/2;
 3/5=44,7=202,11=2,25=1,30=1,70=2205,71=1,72=9,74=-58/1,2,3;
 4/5=5,16=3,69=1/1;
 5/5=2,38=5,53=9/2;
 7//1,2,3,16;
 1/18=20,19=15,26=3/3(-5);
 2/9=110/2;
 6/7=2,8=2,9=2,10=2,19=2,28=1/1;
 99/9=1/99;
 -------
 HZPtMeH
 -------
 Symbolic Z-matrix:
 Charge =  2 Multiplicity = 1
 Pt                   -0.90514   0.00001  -0.11853 
 C                     1.70073   1.20296  -0.29982 
 C                     1.70072  -1.20297  -0.29981 
 C                     3.02406   1.25088   0.00751 
 C                     3.02406  -1.25089   0.00752 
 C                     3.79103  -0.00001   0.21409 
 H                     3.5625    2.19872   0.09202 
 H                     3.56249  -2.19874   0.09204 
 O                     4.97741  -0.00001   0.52352 
 N                     1.03537  -0.00001  -0.42231 
 C                     0.7607    2.32837  -0.65663 
 H                     0.60673   2.32956  -1.75136 
 H                     1.12221   3.3244   -0.34499 
 C                     0.76069  -2.32838  -0.65661 
 H                     0.60673  -2.32958  -1.75134 
 H                     1.12219  -3.32441  -0.34496 
 N                    -0.60571   2.08398  -0.03534 
 N                    -0.60572  -2.08398  -0.03534 
 C                    -2.63302   0.00001   1.0826 
 H                    -2.17236   0.00014   2.0885 
 H                    -3.26747   0.89187   0.96792 
 H                    -3.26735  -0.89197   0.9681 
 C                    -1.62196   2.9085   -0.74205 
 H                    -2.59507   2.78195  -0.24552 
 H                    -1.32315   3.97208  -0.69984 
 H                    -1.68954   2.57948  -1.78907 
 C                    -0.54238   2.49493   1.39959 
 H                    -0.29882   3.57149   1.45285 
 H                    -1.51507   2.31695   1.87797 
 H                     0.24547   1.91526   1.9071 
 C                    -1.62197  -2.90849  -0.74207 
 H                    -1.32317  -3.97207  -0.69987 
 H                    -2.59509  -2.78194  -0.24555 
 H                    -1.68953  -2.57946  -1.78909 
 C                    -0.54242  -2.49494   1.39958 
 H                    -1.51513  -2.31702   1.87794 
 H                    -0.29882  -3.57149   1.45284 
 H                     0.24538  -1.91525   1.90713 
 H                    -0.99867   0.12216  -1.67755 
 H                     4.97741   0.99999   0.52352 
 

 GradGradGradGradGradGradGradGradGradGradGradGradGradGradGradGradGradGrad
 Berny optimization.
 Initialization pass.
                           ----------------------------
                           !    Initial Parameters    !
                           ! (Angstroms and Degrees)  !
 --------------------------                            --------------------------
 ! Name  Definition              Value          Derivative Info.                !
 --------------------------------------------------------------------------------
 ! R1    R(1,10)                 1.9641         estimate D2E/DX2                !
 ! R2    R(1,17)                 2.107          estimate D2E/DX2                !
 ! R3    R(1,18)                 2.107          estimate D2E/DX2                !
 ! R4    R(1,19)                 2.1043         estimate D2E/DX2                !
 ! R5    R(1,39)                 1.5666         estimate D2E/DX2                !
 ! R6    R(2,4)                  1.3594         estimate D2E/DX2                !
 ! R7    R(2,10)                 1.3802         estimate D2E/DX2                !
 ! R8    R(2,11)                 1.5091         estimate D2E/DX2                !
 ! R9    R(3,5)                  1.3594         estimate D2E/DX2                !
 ! R10   R(3,10)                 1.3801         estimate D2E/DX2                !
 ! R11   R(3,14)                 1.5091         estimate D2E/DX2                !
 ! R12   R(4,6)                  1.4818         estimate D2E/DX2                !
 ! R13   R(4,7)                  1.0934         estimate D2E/DX2                !
 ! R14   R(5,6)                  1.4818         estimate D2E/DX2                !
 ! R15   R(5,8)                  1.0934         estimate D2E/DX2                !
 ! R16   R(6,9)                  1.2261         estimate D2E/DX2                !
 ! R17   R(9,40)                 1.0            estimate D2E/DX2                !
 ! R18   R(11,12)                1.1055         estimate D2E/DX2                !
 ! R19   R(11,13)                1.1045         estimate D2E/DX2                !
 ! R20   R(11,17)                1.5208         estimate D2E/DX2                !
 ! R21   R(14,15)                1.1055         estimate D2E/DX2                !
 ! R22   R(14,16)                1.1045         estimate D2E/DX2                !
 ! R23   R(14,18)                1.5208         estimate D2E/DX2                !
 ! R24   R(17,23)                1.4873         estimate D2E/DX2                !
 ! R25   R(17,27)                1.494          estimate D2E/DX2                !
 ! R26   R(18,31)                1.4873         estimate D2E/DX2                !
 ! R27   R(18,35)                1.494          estimate D2E/DX2                !
 ! R28   R(19,20)                1.1064         estimate D2E/DX2                !
 ! R29   R(19,21)                1.1005         estimate D2E/DX2                !
 ! R30   R(19,22)                1.1005         estimate D2E/DX2                !
 ! R31   R(23,24)                1.0998         estimate D2E/DX2                !
 ! R32   R(23,25)                1.1056         estimate D2E/DX2                !
 ! R33   R(23,26)                1.0996         estimate D2E/DX2                !
 ! R34   R(27,28)                1.1051         estimate D2E/DX2                !
 ! R35   R(27,29)                1.0985         estimate D2E/DX2                !
 ! R36   R(27,30)                1.1019         estimate D2E/DX2                !
 ! R37   R(31,32)                1.1056         estimate D2E/DX2                !
 ! R38   R(31,33)                1.0998         estimate D2E/DX2                !
 ! R39   R(31,34)                1.0996         estimate D2E/DX2                !
 ! R40   R(35,36)                1.0985         estimate D2E/DX2                !
 ! R41   R(35,37)                1.1051         estimate D2E/DX2                !
 ! R42   R(35,38)                1.1019         estimate D2E/DX2                !
 ! A1    A(10,1,17)             82.2828         estimate D2E/DX2                !
 ! A2    A(10,1,18)             82.2819         estimate D2E/DX2                !
 ! A3    A(10,1,19)            154.0923         estimate D2E/DX2                !
 ! A4    A(10,1,39)             84.5529         estimate D2E/DX2                !
 ! A5    A(17,1,18)            163.0369         estimate D2E/DX2                !
 ! A6    A(17,1,19)             95.4025         estimate D2E/DX2                !
 ! A7    A(17,1,39)             88.3186         estimate D2E/DX2                !
 ! A8    A(18,1,19)             95.4022         estimate D2E/DX2                !
 ! A9    A(18,1,39)             97.1746         estimate D2E/DX2                !
 ! A10   A(19,1,39)            121.2653         estimate D2E/DX2                !
 ! A11   A(4,2,10)             121.3382         estimate D2E/DX2                !
 ! A12   A(4,2,11)             129.311          estimate D2E/DX2                !
 ! A13   A(10,2,11)            109.1909         estimate D2E/DX2                !
 ! A14   A(5,3,10)             121.3382         estimate D2E/DX2                !
 ! A15   A(5,3,14)             129.311          estimate D2E/DX2                !
 ! A16   A(10,3,14)            109.191          estimate D2E/DX2                !
 ! A17   A(2,4,6)              120.3733         estimate D2E/DX2                !
 ! A18   A(2,4,7)              121.8318         estimate D2E/DX2                !
 ! A19   A(6,4,7)              117.7845         estimate D2E/DX2                !
 ! A20   A(3,5,6)              120.3735         estimate D2E/DX2                !
 ! A21   A(3,5,8)              121.8312         estimate D2E/DX2                !
 ! A22   A(6,5,8)              117.785          estimate D2E/DX2                !
 ! A23   A(4,6,5)              115.1695         estimate D2E/DX2                !
 ! A24   A(4,6,9)              122.414          estimate D2E/DX2                !
 ! A25   A(5,6,9)              122.4141         estimate D2E/DX2                !
 ! A26   A(6,9,40)              90.0            estimate D2E/DX2                !
 ! A27   A(1,10,2)             117.5519         estimate D2E/DX2                !
 ! A28   A(1,10,3)             117.5528         estimate D2E/DX2                !
 ! A29   A(2,10,3)             121.294          estimate D2E/DX2                !
 ! A30   A(2,11,12)            108.7648         estimate D2E/DX2                !
 ! A31   A(2,11,13)            113.6977         estimate D2E/DX2                !
 ! A32   A(2,11,17)            110.0738         estimate D2E/DX2                !
 ! A33   A(12,11,13)           108.9065         estimate D2E/DX2                !
 ! A34   A(12,11,17)           106.2354         estimate D2E/DX2                !
 ! A35   A(13,11,17)           108.8889         estimate D2E/DX2                !
 ! A36   A(3,14,15)            108.7645         estimate D2E/DX2                !
 ! A37   A(3,14,16)            113.6981         estimate D2E/DX2                !
 ! A38   A(3,14,18)            110.074          estimate D2E/DX2                !
 ! A39   A(15,14,16)           108.9063         estimate D2E/DX2                !
 ! A40   A(15,14,18)           106.2353         estimate D2E/DX2                !
 ! A41   A(16,14,18)           108.8888         estimate D2E/DX2                !
 ! A42   A(1,17,11)            105.6938         estimate D2E/DX2                !
 ! A43   A(1,17,23)            115.6231         estimate D2E/DX2                !
 ! A44   A(1,17,27)            108.4219         estimate D2E/DX2                !
 ! A45   A(11,17,23)           109.3124         estimate D2E/DX2                !
 ! A46   A(11,17,27)           108.0651         estimate D2E/DX2                !
 ! A47   A(23,17,27)           109.4425         estimate D2E/DX2                !
 ! A48   A(1,18,14)            105.694          estimate D2E/DX2                !
 ! A49   A(1,18,31)            115.6229         estimate D2E/DX2                !
 ! A50   A(1,18,35)            108.4222         estimate D2E/DX2                !
 ! A51   A(14,18,31)           109.3123         estimate D2E/DX2                !
 ! A52   A(14,18,35)           108.0653         estimate D2E/DX2                !
 ! A53   A(31,18,35)           109.4422         estimate D2E/DX2                !
 ! A54   A(1,19,20)            100.1992         estimate D2E/DX2                !
 ! A55   A(1,19,21)            114.4497         estimate D2E/DX2                !
 ! A56   A(1,19,22)            114.4497         estimate D2E/DX2                !
 ! A57   A(20,19,21)           109.5539         estimate D2E/DX2                !
 ! A58   A(20,19,22)           109.5535         estimate D2E/DX2                !
 ! A59   A(21,19,22)           108.2832         estimate D2E/DX2                !
 ! A60   A(17,23,24)           109.0427         estimate D2E/DX2                !
 ! A61   A(17,23,25)           109.2994         estimate D2E/DX2                !
 ! A62   A(17,23,26)           109.1817         estimate D2E/DX2                !
 ! A63   A(24,23,25)           109.4274         estimate D2E/DX2                !
 ! A64   A(24,23,26)           109.9434         estimate D2E/DX2                !
 ! A65   A(25,23,26)           109.9273         estimate D2E/DX2                !
 ! A66   A(17,27,28)           108.8819         estimate D2E/DX2                !
 ! A67   A(17,27,29)           109.6444         estimate D2E/DX2                !
 ! A68   A(17,27,30)           109.1454         estimate D2E/DX2                !
 ! A69   A(28,27,29)           109.3917         estimate D2E/DX2                !
 ! A70   A(28,27,30)           109.4327         estimate D2E/DX2                !
 ! A71   A(29,27,30)           110.3216         estimate D2E/DX2                !
 ! A72   A(18,31,32)           109.2996         estimate D2E/DX2                !
 ! A73   A(18,31,33)           109.0428         estimate D2E/DX2                !
 ! A74   A(18,31,34)           109.1815         estimate D2E/DX2                !
 ! A75   A(32,31,33)           109.4273         estimate D2E/DX2                !
 ! A76   A(32,31,34)           109.927          estimate D2E/DX2                !
 ! A77   A(33,31,34)           109.9436         estimate D2E/DX2                !
 ! A78   A(18,35,36)           109.6452         estimate D2E/DX2                !
 ! A79   A(18,35,37)           108.882          estimate D2E/DX2                !
 ! A80   A(18,35,38)           109.1461         estimate D2E/DX2                !
 ! A81   A(36,35,37)           109.3907         estimate D2E/DX2                !
 ! A82   A(36,35,38)           110.3212         estimate D2E/DX2                !
 ! A83   A(37,35,38)           109.4325         estimate D2E/DX2                !
 ! D1    D(17,1,10,2)            7.0159         estimate D2E/DX2                !
 ! D2    D(17,1,10,3)          165.9266         estimate D2E/DX2                !
 ! D3    D(18,1,10,2)         -165.9272         estimate D2E/DX2                !
 ! D4    D(18,1,10,3)           -7.0166         estimate D2E/DX2                !
 ! D5    D(19,1,10,2)          -79.4568         estimate D2E/DX2                !
 ! D6    D(19,1,10,3)           79.4538         estimate D2E/DX2                !
 ! D7    D(39,1,10,2)           96.052          estimate D2E/DX2                !
 ! D8    D(39,1,10,3)         -105.0373         estimate D2E/DX2                !
 ! D9    D(10,1,17,11)          16.5381         estimate D2E/DX2                !
 ! D10   D(10,1,17,23)         137.5858         estimate D2E/DX2                !
 ! D11   D(10,1,17,27)         -99.1256         estimate D2E/DX2                !
 ! D12   D(18,1,17,11)          41.2004         estimate D2E/DX2                !
 ! D13   D(18,1,17,23)         162.2481         estimate D2E/DX2                !
 ! D14   D(18,1,17,27)         -74.4633         estimate D2E/DX2                !
 ! D15   D(19,1,17,11)         170.5592         estimate D2E/DX2                !
 ! D16   D(19,1,17,23)         -68.3932         estimate D2E/DX2                !
 ! D17   D(19,1,17,27)          54.8954         estimate D2E/DX2                !
 ! D18   D(39,1,17,11)         -68.1913         estimate D2E/DX2                !
 ! D19   D(39,1,17,23)          52.8563         estimate D2E/DX2                !
 ! D20   D(39,1,17,27)         176.1449         estimate D2E/DX2                !
 ! D21   D(10,1,18,14)         -16.5374         estimate D2E/DX2                !
 ! D22   D(10,1,18,31)        -137.5849         estimate D2E/DX2                !
 ! D23   D(10,1,18,35)          99.1268         estimate D2E/DX2                !
 ! D24   D(17,1,18,14)         -41.1997         estimate D2E/DX2                !
 ! D25   D(17,1,18,31)        -162.2472         estimate D2E/DX2                !
 ! D26   D(17,1,18,35)          74.4645         estimate D2E/DX2                !
 ! D27   D(19,1,18,14)        -170.5585         estimate D2E/DX2                !
 ! D28   D(19,1,18,31)          68.394          estimate D2E/DX2                !
 ! D29   D(19,1,18,35)         -54.8943         estimate D2E/DX2                !
 ! D30   D(39,1,18,14)          66.9391         estimate D2E/DX2                !
 ! D31   D(39,1,18,31)         -54.1084         estimate D2E/DX2                !
 ! D32   D(39,1,18,35)        -177.3967         estimate D2E/DX2                !
 ! D33   D(10,1,19,20)           0.0082         estimate D2E/DX2                !
 ! D34   D(10,1,19,21)         117.0968         estimate D2E/DX2                !
 ! D35   D(10,1,19,22)        -117.08           estimate D2E/DX2                !
 ! D36   D(17,1,19,20)         -83.4449         estimate D2E/DX2                !
 ! D37   D(17,1,19,21)          33.6437         estimate D2E/DX2                !
 ! D38   D(17,1,19,22)         159.467          estimate D2E/DX2                !
 ! D39   D(18,1,19,20)          83.4588         estimate D2E/DX2                !
 ! D40   D(18,1,19,21)        -159.4526         estimate D2E/DX2                !
 ! D41   D(18,1,19,22)         -33.6294         estimate D2E/DX2                !
 ! D42   D(39,1,19,20)        -174.7594         estimate D2E/DX2                !
 ! D43   D(39,1,19,21)         -57.6708         estimate D2E/DX2                !
 ! D44   D(39,1,19,22)          68.1524         estimate D2E/DX2                !
 ! D45   D(10,2,4,6)             0.2743         estimate D2E/DX2                !
 ! D46   D(10,2,4,7)           179.0805         estimate D2E/DX2                !
 ! D47   D(11,2,4,6)          -174.6079         estimate D2E/DX2                !
 ! D48   D(11,2,4,7)             4.1984         estimate D2E/DX2                !
 ! D49   D(4,2,10,1)           154.9861         estimate D2E/DX2                !
 ! D50   D(4,2,10,3)            -3.0929         estimate D2E/DX2                !
 ! D51   D(11,2,10,1)          -29.2048         estimate D2E/DX2                !
 ! D52   D(11,2,10,3)          172.7162         estimate D2E/DX2                !
 ! D53   D(4,2,11,12)          102.2646         estimate D2E/DX2                !
 ! D54   D(4,2,11,13)          -19.2588         estimate D2E/DX2                !
 ! D55   D(4,2,11,17)         -141.7253         estimate D2E/DX2                !
 ! D56   D(10,2,11,12)         -73.1081         estimate D2E/DX2                !
 ! D57   D(10,2,11,13)         165.3684         estimate D2E/DX2                !
 ! D58   D(10,2,11,17)          42.9019         estimate D2E/DX2                !
 ! D59   D(10,3,5,6)            -0.274          estimate D2E/DX2                !
 ! D60   D(10,3,5,8)          -179.0807         estimate D2E/DX2                !
 ! D61   D(14,3,5,6)           174.6079         estimate D2E/DX2                !
 ! D62   D(14,3,5,8)            -4.1988         estimate D2E/DX2                !
 ! D63   D(5,3,10,1)          -154.986          estimate D2E/DX2                !
 ! D64   D(5,3,10,2)             3.0928         estimate D2E/DX2                !
 ! D65   D(14,3,10,1)           29.2051         estimate D2E/DX2                !
 ! D66   D(14,3,10,2)         -172.7161         estimate D2E/DX2                !
 ! D67   D(5,3,14,15)         -102.264          estimate D2E/DX2                !
 ! D68   D(5,3,14,16)           19.2593         estimate D2E/DX2                !
 ! D69   D(5,3,14,18)          141.7261         estimate D2E/DX2                !
 ! D70   D(10,3,14,15)          73.1085         estimate D2E/DX2                !
 ! D71   D(10,3,14,16)        -165.3682         estimate D2E/DX2                !
 ! D72   D(10,3,14,18)         -42.9014         estimate D2E/DX2                !
 ! D73   D(2,4,6,5)              2.3165         estimate D2E/DX2                !
 ! D74   D(2,4,6,9)           -178.2238         estimate D2E/DX2                !
 ! D75   D(7,4,6,5)           -176.5371         estimate D2E/DX2                !
 ! D76   D(7,4,6,9)              2.9225         estimate D2E/DX2                !
 ! D77   D(3,5,6,4)             -2.3166         estimate D2E/DX2                !
 ! D78   D(3,5,6,9)            178.2237         estimate D2E/DX2                !
 ! D79   D(8,5,6,4)            176.5374         estimate D2E/DX2                !
 ! D80   D(8,5,6,9)             -2.9222         estimate D2E/DX2                !
 ! D81   D(4,6,9,40)             0.2899         estimate D2E/DX2                !
 ! D82   D(5,6,9,40)           179.7106         estimate D2E/DX2                !
 ! D83   D(2,11,17,1)          -35.8903         estimate D2E/DX2                !
 ! D84   D(2,11,17,23)        -160.9509         estimate D2E/DX2                !
 ! D85   D(2,11,17,27)          80.017          estimate D2E/DX2                !
 ! D86   D(12,11,17,1)          81.6988         estimate D2E/DX2                !
 ! D87   D(12,11,17,23)        -43.3618         estimate D2E/DX2                !
 ! D88   D(12,11,17,27)       -162.394          estimate D2E/DX2                !
 ! D89   D(13,11,17,1)        -161.1509         estimate D2E/DX2                !
 ! D90   D(13,11,17,23)         73.7886         estimate D2E/DX2                !
 ! D91   D(13,11,17,27)        -45.2436         estimate D2E/DX2                !
 ! D92   D(3,14,18,1)           35.8893         estimate D2E/DX2                !
 ! D93   D(3,14,18,31)         160.9497         estimate D2E/DX2                !
 ! D94   D(3,14,18,35)         -80.0184         estimate D2E/DX2                !
 ! D95   D(15,14,18,1)         -81.6994         estimate D2E/DX2                !
 ! D96   D(15,14,18,31)         43.3609         estimate D2E/DX2                !
 ! D97   D(15,14,18,35)        162.3928         estimate D2E/DX2                !
 ! D98   D(16,14,18,1)         161.1505         estimate D2E/DX2                !
 ! D99   D(16,14,18,31)        -73.7892         estimate D2E/DX2                !
 ! D100  D(16,14,18,35)         45.2427         estimate D2E/DX2                !
 ! D101  D(1,17,23,24)          64.8054         estimate D2E/DX2                !
 ! D102  D(1,17,23,25)        -175.6113         estimate D2E/DX2                !
 ! D103  D(1,17,23,26)         -55.3351         estimate D2E/DX2                !
 ! D104  D(11,17,23,24)       -176.119          estimate D2E/DX2                !
 ! D105  D(11,17,23,25)        -56.5358         estimate D2E/DX2                !
 ! D106  D(11,17,23,26)         63.7405         estimate D2E/DX2                !
 ! D107  D(27,17,23,24)        -57.9445         estimate D2E/DX2                !
 ! D108  D(27,17,23,25)         61.6387         estimate D2E/DX2                !
 ! D109  D(27,17,23,26)       -178.085          estimate D2E/DX2                !
 ! D110  D(1,17,27,28)         175.1752         estimate D2E/DX2                !
 ! D111  D(1,17,27,29)         -65.1761         estimate D2E/DX2                !
 ! D112  D(1,17,27,30)          55.7723         estimate D2E/DX2                !
 ! D113  D(11,17,27,28)         61.0624         estimate D2E/DX2                !
 ! D114  D(11,17,27,29)       -179.2888         estimate D2E/DX2                !
 ! D115  D(11,17,27,30)        -58.3404         estimate D2E/DX2                !
 ! D116  D(23,17,27,28)        -57.8871         estimate D2E/DX2                !
 ! D117  D(23,17,27,29)         61.7616         estimate D2E/DX2                !
 ! D118  D(23,17,27,30)       -177.29           estimate D2E/DX2                !
 ! D119  D(1,18,31,32)         175.6109         estimate D2E/DX2                !
 ! D120  D(1,18,31,33)         -64.8058         estimate D2E/DX2                !
 ! D121  D(1,18,31,34)          55.335          estimate D2E/DX2                !
 ! D122  D(14,18,31,32)         56.5353         estimate D2E/DX2                !
 ! D123  D(14,18,31,33)        176.1187         estimate D2E/DX2                !
 ! D124  D(14,18,31,34)        -63.7406         estimate D2E/DX2                !
 ! D125  D(35,18,31,32)        -61.6392         estimate D2E/DX2                !
 ! D126  D(35,18,31,33)         57.9442         estimate D2E/DX2                !
 ! D127  D(35,18,31,34)        178.085          estimate D2E/DX2                !
 ! D128  D(1,18,35,36)          65.1794         estimate D2E/DX2                !
 ! D129  D(1,18,35,37)        -175.1725         estimate D2E/DX2                !
 ! D130  D(1,18,35,38)         -55.7694         estimate D2E/DX2                !
 ! D131  D(14,18,35,36)        179.2926         estimate D2E/DX2                !
 ! D132  D(14,18,35,37)        -61.0593         estimate D2E/DX2                !
 ! D133  D(14,18,35,38)         58.3438         estimate D2E/DX2                !
 ! D134  D(31,18,35,36)        -61.758          estimate D2E/DX2                !
 ! D135  D(31,18,35,37)         57.8901         estimate D2E/DX2                !
 ! D136  D(31,18,35,38)        177.2932         estimate D2E/DX2                !
 --------------------------------------------------------------------------------
 Trust Radius=3.00D-01 FncErr=1.00D-07 GrdErr=1.00D-06 EigMax=2.50D+02 EigMin=1.00D-04
 Number of steps in this run=    240 maximum allowed number of steps=    240.
 GradGradGradGradGradGradGradGradGradGradGradGradGradGradGradGradGradGrad

                          Input orientation:                          
 ---------------------------------------------------------------------
 Center     Atomic      Atomic             Coordinates (Angstroms)
 Number     Number       Type             X           Y           Z
 ---------------------------------------------------------------------
      1         78           0       -0.905140    0.000010   -0.118530
      2          6           0        1.700730    1.202960   -0.299820
      3          6           0        1.700720   -1.202970   -0.299810
      4          6           0        3.024060    1.250880    0.007510
      5          6           0        3.024060   -1.250890    0.007520
      6          6           0        3.791030   -0.000010    0.214090
      7          1           0        3.562500    2.198720    0.092020
      8          1           0        3.562490   -2.198740    0.092040
      9          8           0        4.977410   -0.000010    0.523520
     10          7           0        1.035370   -0.000010   -0.422310
     11          6           0        0.760700    2.328370   -0.656630
     12          1           0        0.606730    2.329560   -1.751360
     13          1           0        1.122210    3.324400   -0.344990
     14          6           0        0.760690   -2.328380   -0.656610
     15          1           0        0.606730   -2.329580   -1.751340
     16          1           0        1.122190   -3.324410   -0.344960
     17          7           0       -0.605710    2.083980   -0.035340
     18          7           0       -0.605720   -2.083980   -0.035340
     19          6           0       -2.633020    0.000010    1.082600
     20          1           0       -2.172360    0.000140    2.088500
     21          1           0       -3.267470    0.891870    0.967920
     22          1           0       -3.267350   -0.891970    0.968100
     23          6           0       -1.621960    2.908500   -0.742050
     24          1           0       -2.595070    2.781950   -0.245520
     25          1           0       -1.323150    3.972080   -0.699840
     26          1           0       -1.689540    2.579480   -1.789070
     27          6           0       -0.542380    2.494930    1.399590
     28          1           0       -0.298820    3.571490    1.452850
     29          1           0       -1.515070    2.316950    1.877970
     30          1           0        0.245470    1.915260    1.907100
     31          6           0       -1.621970   -2.908490   -0.742070
     32          1           0       -1.323170   -3.972070   -0.699870
     33          1           0       -2.595090   -2.781940   -0.245550
     34          1           0       -1.689530   -2.579460   -1.789090
     35          6           0       -0.542420   -2.494940    1.399580
     36          1           0       -1.515130   -2.317020    1.877940
     37          1           0       -0.298820   -3.571490    1.452840
     38          1           0        0.245380   -1.915250    1.907130
     39          1           0       -0.998674    0.122159   -1.677547
     40          1           0        4.977410    0.999990    0.523520
 ---------------------------------------------------------------------
                    Distance matrix (angstroms):
                    1          2          3          4          5
     1  Pt   0.000000
     2  C    2.875850   0.000000
     3  C    2.875853   2.405930   0.000000
     4  C    4.125430   1.359393   2.804827   0.000000
     5  C    4.125440   2.804824   1.359403   2.501770   0.000000
     6  C    4.707935   2.465886   2.465888   1.481771   1.481761
     7  H    4.983820   2.147385   3.897595   1.093371   3.492401
     8  H    4.983830   3.897598   2.147392   3.492410   1.093376
     9  O    5.917484   3.586315   3.586319   2.376251   2.376243
    10  N    1.964144   1.380161   1.380148   2.388380   2.388377
    11  C    2.913046   1.509145   3.671692   2.593234   4.286607
    12  H    3.221597   2.138465   3.972730   3.178153   4.664415
    13  H    3.900385   2.199371   4.564405   2.835626   4.967351
    14  C    2.913060   3.671694   1.509142   4.286607   2.593241
    15  H    3.221616   3.972730   2.138458   4.664411   3.178151
    16  H    3.900398   4.564409   2.199373   4.967356   2.835637
    17  N    2.107014   2.483105   4.024128   3.724396   4.929343
    18  N    2.107033   4.024132   2.483101   4.929344   3.724403
    19  C    2.104348   4.705270   4.705265   5.892627   5.892631
    20  H    2.544961   4.706557   4.706617   5.735647   5.735707
    21  H    2.748889   5.136823   5.538809   6.374529   6.715440
    22  H    2.748896   5.538788   5.136734   6.715384   6.374432
    23  C    3.059726   3.760944   5.304712   4.989494   6.280755
    24  H    3.257481   4.577123   5.859722   5.829479   6.921160
    25  H    4.036086   4.119696   6.007076   5.177210   6.832131
    26  H    3.171696   3.950519   5.293268   5.216407   6.333837
    27  C    2.942942   3.096566   4.646926   4.025549   5.356167
    28  H    3.948712   3.560897   5.464929   4.302995   6.032069
    29  H    3.118692   4.040435   5.241552   5.023826   6.068918
    30  H    3.015835   2.737818   4.087978   3.430802   4.620982
    31  C    3.059742   5.304709   3.760939   6.280750   4.989501
    32  H    4.036103   6.007075   4.119693   6.832130   5.177222
    33  H    3.257501   5.859731   4.577125   6.921165   5.829494
    34  H    3.171704   5.293249   3.950503   6.333815   5.216401
    35  C    2.942958   4.646950   3.096577   5.356193   4.025577
    36  H    3.118751   5.241627   4.040469   6.068992   5.023878
    37  H    3.948726   5.464924   3.560875   6.032061   4.302983
    38  H    3.015828   4.088020   2.737872   4.621039   3.430883
    39  H    1.566590   3.217615   3.307696   4.505088   4.572429
    40  H    6.001382   3.384630   4.033312   2.035875   3.024615
                    6          7          8          9         10
     6  C    0.000000
     7  H    2.213942   0.000000
     8  H    2.213942   4.397460   0.000000
     9  O    1.226069   2.650014   2.650016   0.000000
    10  N    2.828191   3.389002   3.388998   4.053921   0.000000
    11  C    3.919491   2.902993   5.376361   4.959309   2.356205
    12  H    4.407908   3.485935   5.713155   5.450213   2.716064
    13  H    4.299636   2.722710   6.054010   5.164163   3.326443
    14  C    3.919488   5.376358   2.902993   4.959309   2.356194
    15  H    4.407899   5.713147   3.485927   5.450204   2.716054
    16  H    4.299637   6.054009   2.722713   5.164166   3.326433
    17  N    4.872017   4.171734   5.977609   5.985530   2.680654
    18  N    4.872018   5.977608   4.171735   5.985532   2.680644
    19  C    6.482494   6.648311   6.648312   7.630938   3.965077
    20  H    6.251035   6.458197   6.458284   7.319042   4.073536
    21  H    7.154448   7.008819   7.547674   8.304877   4.608972
    22  H    7.154359   7.547631   7.008698   8.304776   4.608930
    23  C    6.218850   5.298876   7.325171   7.322075   3.952603
    24  H    6.980889   6.194333   7.926964   8.103899   4.577188
    25  H    6.539694   5.257511   7.910472   7.547925   4.627865
    26  H    6.379895   5.591726   7.345324   7.513326   3.993361
    27  C    5.138928   4.318277   6.371043   6.120482   3.468911
    28  H    5.569292   4.318119   7.075102   6.438779   4.248753
    29  H    6.024242   5.383801   7.025854   7.025321   4.142986
    30  H    4.370988   3.791774   5.587670   5.289027   3.117427
    31  C    6.218848   7.325164   5.298878   7.322076   3.952589
    32  H    6.539696   7.910468   5.257518   7.547930   4.627852
    33  H    6.980898   7.926969   6.194343   8.103910   4.577185
    34  H    6.379877   7.345298   5.591718   7.513309   3.993336
    35  C    5.138954   6.371069   4.318296   6.120513   3.468916
    36  H    6.024306   7.025934   5.383833   7.025387   4.143035
    37  H    5.569277   7.075093   4.318094   6.438766   4.248732
    38  H    4.371060   5.587724   3.791851   5.289105   3.117454
    39  H    5.151163   5.314864   5.415000   6.369710   2.393299
    40  H    1.582164   1.903974   3.524209   1.000000   4.175437
                   11         12         13         14         15
    11  C    0.000000
    12  H    1.105505   0.000000
    13  H    1.104484   1.798139   0.000000
    14  C    4.656750   4.787336   5.672894   0.000000
    15  H    4.787337   4.659140   5.849020   1.105504   0.000000
    16  H    5.672895   5.849020   6.648810   1.104483   1.798135
    17  N    1.520791   2.115430   2.149473   4.660681   4.888167
    18  N    4.660680   4.888159   5.686141   1.520784   2.115422
    19  C    4.468055   4.894294   5.214531   4.468055   4.894301
    20  H    4.643192   5.281483   5.275108   4.643320   5.281601
    21  H    4.574806   4.946803   5.187507   5.406957   5.725517
    22  H    5.406988   5.725575   6.226574   4.574720   4.946774
    23  C    2.453756   2.514147   2.803765   5.754062   5.781281
    24  H    3.411149   3.567034   3.757967   6.127446   6.216652
    25  H    2.654445   2.743721   2.554446   6.636268   6.673905
    26  H    2.710932   2.310138   3.247493   5.601177   5.419700
    27  C    2.440041   3.358018   2.549988   5.402802   5.875773
    28  H    2.667927   3.553783   2.304910   6.354593   6.775654
    29  H    3.406385   4.204073   3.593293   5.760405   6.266113
    30  H    2.647420   3.699525   2.797545   4.984630   5.615457
    31  C    5.754052   5.781257   6.821812   2.453752   2.514133
    32  H    6.636259   6.673881   7.703525   2.654442   2.743698
    33  H    6.127445   6.216635   7.149517   3.411150   3.567027
    34  H    5.601151   5.419660   6.696781   2.710928   2.310124
    35  C    5.402818   5.875778   6.299146   2.440032   3.358003
    36  H    5.760477   6.266164   6.612307   3.406381   4.204060
    37  H    6.354588   6.775641   7.266692   2.667895   3.553749
    38  H    4.984650   5.615473   5.770165   2.647449   3.699547
    39  H    3.000839   2.730456   4.065490   3.184779   2.931517
    40  H    4.575805   5.103497   4.584731   5.500135   5.946753
                   16         17         18         19         20
    16  H    0.000000
    17  N    5.686140   0.000000
    18  N    2.149466   4.167960   0.000000
    19  C    5.214528   3.114917   3.114924   0.000000
    20  H    5.275265   3.362659   3.362828   1.106365   0.000000
    21  H    6.226539   3.084254   4.116689   1.100497   1.802817
    22  H    5.187384   4.116734   3.084162   1.100506   1.802820
    23  C    6.821818   1.487292   5.143641   3.579232   4.095548
    24  H    7.149513   2.118700   5.261080   3.082942   3.655790
    25  H    7.703531   2.126312   6.134503   4.546448   4.926693
    26  H    6.696805   2.120325   5.098833   3.973702   4.682057
    27  C    6.299124   1.493959   4.798901   3.270456   3.058661
    28  H    7.266693   2.126400   5.856043   4.282645   4.082737
    29  H    6.612224   2.131189   4.884246   2.692701   2.417429
    30  H    5.770143   2.127451   4.526756   3.554390   3.089740
    31  C    2.803765   5.143638   1.487296   3.579248   4.095752
    32  H    2.554449   6.134500   2.126316   4.546463   4.926924
    33  H    3.757968   5.261083   2.118709   3.082964   3.656017
    34  H    3.247496   5.098821   2.120326   3.973719   4.682218
    35  C    2.549974   4.798907   1.493951   3.270453   3.058879
    36  H    3.593268   4.884310   2.131191   2.692744   2.417750
    37  H    2.304865   5.856040   2.126394   4.282660   4.082984
    38  H    2.797577   4.526741   2.127447   3.554329   3.089835
    39  H    4.260598   2.588437   2.778184   3.210050   3.946586
    40  H    5.858107   5.714769   6.402698   7.696179   7.387021
                   21         22         23         24         25
    21  H    0.000000
    22  H    1.783840   0.000000
    23  C    3.114241   4.480568   0.000000
    24  H    2.344560   3.927152   1.099773   0.000000
    25  H    4.006182   5.497356   1.105564   1.800166   0.000000
    26  H    3.597066   4.705575   1.099578   1.800979   1.805547
    27  C    3.190965   4.368379   2.433753   2.646187   2.683129
    28  H    4.028449   5.382344   2.647233   2.963207   2.417395
    29  H    2.435149   3.767694   2.688096   2.427310   3.069429
    30  H    3.777583   4.593709   3.389958   3.667914   3.672494
    31  C    4.480454   3.114211   5.816990   5.794359   6.887185
    32  H    5.497248   4.006117   6.887184   6.887739   7.944150
    33  H    3.927020   2.344540   5.794359   5.563890   6.887743
    34  H    4.705436   3.597115   5.587357   5.652197   6.651569
    35  C    4.368376   3.190757   5.911781   5.896210   6.843935
    36  H    3.767732   2.434923   5.846522   5.628041   6.799602
    37  H    5.382343   4.028271   6.968394   6.965873   7.911304
    38  H    4.593708   3.777321   5.811512   5.896248   6.627008
    39  H    3.569088   3.629711   3.004553   3.416675   3.985359
    40  H    8.257556   8.470728   6.985396   7.817241   7.072976
                   26         27         28         29         30
    26  H    0.000000
    27  C    3.389790   0.000000
    28  H    3.664455   1.105052   0.000000
    29  H    3.680563   1.098476   1.798294   0.000000
    30  H    4.224586   1.101949   1.801581   1.806019   0.000000
    31  C    5.587360   5.911782   6.968396   5.846474   5.811540
    32  H    6.651571   6.843936   7.911308   6.799548   6.627034
    33  H    5.652194   5.896224   6.965881   5.628007   5.896301
    34  H    5.158940   6.101890   7.090729   6.119853   6.132581
    35  C    6.101894   4.989870   6.071553   4.932463   4.508682
    36  H    6.119893   4.932537   6.027824   4.633970   4.583967
    37  H    7.090734   6.071541   7.142980   6.027746   5.532362
    38  H    6.132569   4.508642   5.532345   4.583836   3.830510
    39  H    2.555026   3.912419   4.710315   4.210163   4.196761
    40  H    7.231257   5.785363   5.942632   6.761746   5.014306
                   31         32         33         34         35
    31  C    0.000000
    32  H    1.105561   0.000000
    33  H    1.099777   1.800166   0.000000
    34  H    1.099580   1.805542   1.800987   0.000000
    35  C    2.433745   2.683128   2.646181   3.389782   0.000000
    36  H    2.688067   3.069388   2.427277   3.680543   1.098476
    37  H    2.647249   2.417420   2.963237   3.664466   1.105051
    38  H    3.389953   3.672507   3.667895   4.224582   1.101942
    39  H    3.232406   4.221832   3.610118   2.790783   4.065229
    40  H    7.773657   8.118828   8.499248   7.912567   6.591702
                   36         37         38         39         40
    36  H    0.000000
    37  H    1.798281   0.000000
    38  H    1.806008   1.801573   0.000000
    39  H    4.342558   4.892051   4.306811   0.000000
    40  H    7.415530   7.042774   5.727574   6.428753   0.000000
 Stoichiometry    C12H23N3OPt(2+)
 Framework group  C1[X(C12H23N3OPt)]
 Deg. of freedom   114
 Full point group                 C1      NOp   1
 Largest Abelian subgroup         C1      NOp   1
 Largest concise Abelian subgroup C1      NOp   1
                         Standard orientation:                         
 ---------------------------------------------------------------------
 Center     Atomic      Atomic             Coordinates (Angstroms)
 Number     Number       Type             X           Y           Z
 ---------------------------------------------------------------------
      1         78           0       -0.936620    0.015902   -0.112991
      2          6           0        1.695460    1.158503   -0.305688
      3          6           0        1.640144   -1.246790   -0.303855
      4          6           0        3.020774    1.176192   -0.003728
      5          6           0        2.963265   -1.324917   -0.001822
      6          6           0        3.759616   -0.091863    0.200709
      7          1           0        3.581197    2.111458    0.077894
      8          1           0        3.480102   -2.284838    0.081247
      9          8           0        4.946924   -0.118932    0.505358
     10          7           0        1.002133   -0.028933   -0.424585
     11          6           0        0.780113    2.304990   -0.659561
     12          1           0        0.621785    2.308991   -1.753663
     13          1           0        1.165681    3.292653   -0.350135
     14          6           0        0.673057   -2.350528   -0.656013
     15          1           0        0.514684   -2.348916   -1.750112
     16          1           0        1.012823   -3.354398   -0.345067
     17          7           0       -0.589030    2.092492   -0.032587
     18          7           0       -0.684850   -2.074365   -0.029429
     19          6           0       -2.659171    0.056425    1.095089
     20          1           0       -2.194565    0.046633    2.099124
     21          1           0       -3.273410    0.962559    0.982289
     22          1           0       -3.314295   -0.820812    0.983821
     23          6           0       -1.588908    2.939688   -0.735823
     24          1           0       -2.562653    2.835873   -0.235281
     25          1           0       -1.265560    3.996145   -0.695623
     26          1           0       -1.668267    2.611612   -1.782312
     27          6           0       -0.510467    2.502831    1.401764
     28          1           0       -0.242011    3.573542    1.453227
     29          1           0       -1.485048    2.347579    1.884193
     30          1           0        0.265896    1.905539    1.906535
     31          6           0       -1.722635   -2.875764   -0.731435
     32          1           0       -1.448194   -3.945904   -0.689633
     33          1           0       -2.690573   -2.726545   -0.231095
     34          1           0       -1.786848   -2.545964   -1.778423
     35          6           0       -0.625211   -2.485718    1.405535
     36          1           0       -1.591631   -2.285164    1.887675
     37          1           0       -0.406209   -3.567548    1.458629
     38          1           0        0.177753   -1.923955    1.909468
     39          1           0       -1.033626    0.139132   -1.671712
     40          1           0        4.969911    0.880803    0.504600
 ---------------------------------------------------------------------
 Rotational constants (GHZ):           0.5234681           0.3467961           0.2355788
 Standard basis: def2TZVPP (5D, 7F)
 There are   992 symmetry adapted cartesian basis functions of A   symmetry.
 There are   874 symmetry adapted basis functions of A   symmetry.
   874 basis functions,  1307 primitive gaussians,   992 cartesian basis functions
    70 alpha electrons       70 beta electrons
       nuclear repulsion energy      1581.6064580077 Hartrees.
 NAtoms=   40 NActive=   40 NUniq=   40 SFac= 1.00D+00 NAtFMM=   60 NAOKFM=F Big=F
 Integral buffers will be    131072 words long.
 Raffenetti 2 integral format.
 Two-electron integral symmetry is turned on.
 Nuclear repulsion after empirical dispersion term =     1581.5607633785 Hartrees.
 ------------------------------------------------------------------------------
 Polarizable Continuum Model (PCM)
 =================================
 Model                : PCM.
 Atomic radii         : UFF (Universal Force Field).
 Polarization charges : Total charges.
 Charge compensation  : None.
 Solution method      : On-the-fly selection.
 Cavity type          : Scaled VdW (van der Waals Surface) (Alpha=1.100).
 Cavity algorithm     : GePol (No added spheres)
                        Default sphere list used, NSphG=   40.
                        Lebedev-Laikov grids with approx.  5.0 points / Ang**2.
                        Smoothing algorithm: York/Karplus (Gamma=1.0000).
                        Polarization charges: spherical gaussians, with
                                              point-specific exponents (IZeta= 3).
                        Self-potential: point-specific (ISelfS= 7).
                        Self-field    : sphere-specific E.n sum rule (ISelfD= 2).
 1st derivatives      : Analytical E(r).r(x)/FMM algorithm (CHGder, D1EAlg=3).
                        Cavity 1st derivative terms included.
 Solvent              : Dichloromethane, Eps=   8.930000 Eps(inf)=   2.028346
 ------------------------------------------------------------------------------
 One-electron integrals computed using PRISM.
   1 Symmetry operations used in ECPInt.
 ECPInt:  NShTT=   54615 NPrTT=  140092 LenC2=   49550 LenP2D=   97223.
 LDataN:  DoStor=T MaxTD1= 9 Len=  602
 NBasis=   874 RedAO= T EigKep=  1.98D-05  NBF=   874
 NBsUse=   874 1.00D-06 EigRej= -1.00D+00 NBFU=   874
 Defaulting to unpruned grid for atomic number  78.
 ExpMin= 4.92D-02 ExpMax= 2.70D+04 ExpMxC= 9.22D+02 IAcc=3 IRadAn=         5 AccDes= 0.00D+00
 Harris functional with IExCor= 4639 and IRadAn=       5 diagonalized for initial guess.
 HarFok:  IExCor= 4639 AccDes= 0.00D+00 IRadAn=         5 IDoV= 1 UseB2=F ITyADJ=14
 ICtDFT=  3500011 ScaDFX=  1.000000  1.000000  1.000000  1.000000
 Defaulting to unpruned grid for atomic number  78.
 FoFCou: FMM=F IPFlag=           0 FMFlag=      100000 FMFlg1=           0
         NFxFlg=           0 DoJE=T BraDBF=F KetDBF=T FulRan=T
         wScrn=  0.000000 ICntrl=       500 IOpCl=  0 I1Cent=   200000004 NGrid=           0
         NMat0=    1 NMatS0=      1 NMatT0=    0 NMatD0=    1 NMtDS0=    0 NMtDT0=    0
 Petite list used in FoFCou.
 Requested convergence on RMS density matrix=1.00D-08 within 128 cycles.
 Requested convergence on MAX density matrix=1.00D-06.
 Requested convergence on             energy=1.00D-06.
 No special actions if energy rises.
 Defaulting to unpruned grid for atomic number  78.
 Defaulting to unpruned grid for atomic number  78.
 Defaulting to unpruned grid for atomic number  78.
 Defaulting to unpruned grid for atomic number  78.
 Defaulting to unpruned grid for atomic number  78.
 Defaulting to unpruned grid for atomic number  78.
 Inv3:  Mode=1 IEnd=    18840108.
 Iteration    1 A*A^-1 deviation from unit magnitude is 3.11D-15 for    558.
 Iteration    1 A*A^-1 deviation from orthogonality  is 1.79D-15 for   2023   1376.
 Iteration    1 A^-1*A deviation from unit magnitude is 3.22D-15 for    756.
 Iteration    1 A^-1*A deviation from orthogonality  is 1.89D-15 for   2218   1264.
 Error on total polarization charges =  0.02166
 SCF Done:  E(RwB97XD) =  -829.688003631     A.U. after   18 cycles
            NFock= 18  Conv=0.41D-08     -V/T= 2.1120

 **********************************************************************

            Population analysis using the SCF Density.

 **********************************************************************

 Orbital symmetries:
       Occupied  (A) (A) (A) (A) (A) (A) (A) (A) (A) (A) (A) (A)
                 (A) (A) (A) (A) (A) (A) (A) (A) (A) (A) (A) (A)
                 (A) (A) (A) (A) (A) (A) (A) (A) (A) (A) (A) (A)
                 (A) (A) (A) (A) (A) (A) (A) (A) (A) (A) (A) (A)
                 (A) (A) (A) (A) (A) (A) (A) (A) (A) (A) (A) (A)
                 (A) (A) (A) (A) (A) (A) (A) (A) (A) (A)
       Virtual   (A) (A) (A) (A) (A) (A) (A) (A) (A) (A) (A) (A)
                 (A) (A) (A) (A) (A) (A) (A) (A) (A) (A) (A) (A)
                 (A) (A) (A) (A) (A) (A) (A) (A) (A) (A) (A) (A)
                 (A) (A) (A) (A) (A) (A) (A) (A) (A) (A) (A) (A)
                 (A) (A) (A) (A) (A) (A) (A) (A) (A) (A) (A) (A)
                 (A) (A) (A) (A) (A) (A) (A) (A) (A) (A) (A) (A)
                 (A) (A) (A) (A) (A) (A) (A) (A) (A) (A) (A) (A)
                 (A) (A) (A) (A) (A) (A) (A) (A) (A) (A) (A) (A)
                 (A) (A) (A) (A) (A) (A) (A) (A) (A) (A) (A) (A)
                 (A) (A) (A) (A) (A) (A) (A) (A) (A) (A) (A) (A)
                 (A) (A) (A) (A) (A) (A) (A) (A) (A) (A) (A) (A)
                 (A) (A) (A) (A) (A) (A) (A) (A) (A) (A) (A) (A)
                 (A) (A) (A) (A) (A) (A) (A) (A) (A) (A) (A) (A)
                 (A) (A) (A) (A) (A) (A) (A) (A) (A) (A) (A) (A)
                 (A) (A) (A) (A) (A) (A) (A) (A) (A) (A) (A) (A)
                 (A) (A) (A) (A) (A) (A) (A) (A) (A) (A) (A) (A)
                 (A) (A) (A) (A) (A) (A) (A) (A) (A) (A) (A) (A)
                 (A) (A) (A) (A) (A) (A) (A) (A) (A) (A) (A) (A)
                 (A) (A) (A) (A) (A) (A) (A) (A) (A) (A) (A) (A)
                 (A) (A) (A) (A) (A) (A) (A) (A) (A) (A) (A) (A)
                 (A) (A) (A) (A) (A) (A) (A) (A) (A) (A) (A) (A)
                 (A) (A) (A) (A) (A) (A) (A) (A) (A) (A) (A) (A)
                 (A) (A) (A) (A) (A) (A) (A) (A) (A) (A) (A) (A)
                 (A) (A) (A) (A) (A) (A) (A) (A) (A) (A) (A) (A)
                 (A) (A) (A) (A) (A) (A) (A) (A) (A) (A) (A) (A)
                 (A) (A) (A) (A) (A) (A) (A) (A) (A) (A) (A) (A)
                 (A) (A) (A) (A) (A) (A) (A) (A) (A) (A) (A) (A)
                 (A) (A) (A) (A) (A) (A) (A) (A) (A) (A) (A) (A)
                 (A) (A) (A) (A) (A) (A) (A) (A) (A) (A) (A) (A)
                 (A) (A) (A) (A) (A) (A) (A) (A) (A) (A) (A) (A)
                 (A) (A) (A) (A) (A) (A) (A) (A) (A) (A) (A) (A)
                 (A) (A) (A) (A) (A) (A) (A) (A) (A) (A) (A) (A)
                 (A) (A) (A) (A) (A) (A) (A) (A) (A) (A) (A) (A)
                 (A) (A) (A) (A) (A) (A) (A) (A) (A) (A) (A) (A)
                 (A) (A) (A) (A) (A) (A) (A) (A) (A) (A) (A) (A)
                 (A) (A) (A) (A) (A) (A) (A) (A) (A) (A) (A) (A)
                 (A) (A) (A) (A) (A) (A) (A) (A) (A) (A) (A) (A)
                 (A) (A) (A) (A) (A) (A) (A) (A) (A) (A) (A) (A)
                 (A) (A) (A) (A) (A) (A) (A) (A) (A) (A) (A) (A)
                 (A) (A) (A) (A) (A) (A) (A) (A) (A) (A) (A) (A)
                 (A) (A) (A) (A) (A) (A) (A) (A) (A) (A) (A) (A)
                 (A) (A) (A) (A) (A) (A) (A) (A) (A) (A) (A) (A)
                 (A) (A) (A) (A) (A) (A) (A) (A) (A) (A) (A) (A)
                 (A) (A) (A) (A) (A) (A) (A) (A) (A) (A) (A) (A)
                 (A) (A) (A) (A) (A) (A) (A) (A) (A) (A) (A) (A)
                 (A) (A) (A) (A) (A) (A) (A) (A) (A) (A) (A) (A)
                 (A) (A) (A) (A) (A) (A) (A) (A) (A) (A) (A) (A)
                 (A) (A) (A) (A) (A) (A) (A) (A) (A) (A) (A) (A)
                 (A) (A) (A) (A) (A) (A) (A) (A) (A) (A) (A) (A)
                 (A) (A) (A) (A) (A) (A) (A) (A) (A) (A) (A) (A)
                 (A) (A) (A) (A) (A) (A) (A) (A) (A) (A) (A) (A)
                 (A) (A) (A) (A) (A) (A) (A) (A) (A) (A) (A) (A)
                 (A) (A) (A) (A) (A) (A) (A) (A) (A) (A) (A) (A)
                 (A) (A) (A) (A) (A) (A) (A) (A) (A) (A) (A) (A)
                 (A) (A) (A) (A) (A) (A) (A) (A) (A) (A) (A) (A)
                 (A) (A) (A) (A) (A) (A) (A) (A) (A) (A) (A) (A)
                 (A) (A) (A) (A) (A) (A) (A) (A) (A) (A) (A) (A)
                 (A) (A) (A) (A) (A) (A) (A) (A) (A) (A) (A) (A)
                 (A) (A) (A) (A) (A) (A) (A) (A) (A) (A) (A) (A)
                 (A) (A) (A) (A) (A) (A) (A) (A) (A) (A) (A) (A)
                 (A) (A) (A) (A) (A) (A) (A) (A) (A) (A) (A) (A)
                 (A) (A) (A) (A) (A) (A) (A) (A) (A) (A) (A) (A)
                 (A) (A) (A) (A) (A) (A) (A) (A) (A) (A) (A) (A)
                 (A) (A) (A) (A) (A) (A) (A) (A) (A) (A) (A) (A)
                 (A) (A) (A) (A) (A) (A) (A) (A) (A) (A) (A) (A)
                 (A) (A) (A) (A) (A) (A) (A) (A) (A) (A) (A) (A)
                 (A) (A) (A) (A) (A) (A) (A) (A) (A) (A) (A) (A)
 The electronic state is 1-A.
 Alpha  occ. eigenvalues --  -19.38241 -14.58633 -14.58437 -14.54541 -10.46071
 Alpha  occ. eigenvalues --  -10.41997 -10.41628 -10.40028 -10.39799 -10.37102
 Alpha  occ. eigenvalues --  -10.37067 -10.36803 -10.36717 -10.36572 -10.36130
 Alpha  occ. eigenvalues --  -10.31582  -4.17255  -2.41094  -2.40563  -2.39809
 Alpha  occ. eigenvalues --   -1.32000  -1.14992  -1.12476  -1.11118  -0.97721
 Alpha  occ. eigenvalues --   -0.95159  -0.89532  -0.87797  -0.87429  -0.87336
 Alpha  occ. eigenvalues --   -0.81551  -0.80752  -0.79546  -0.76735  -0.76427
 Alpha  occ. eigenvalues --   -0.72871  -0.69278  -0.66618  -0.66189  -0.64420
 Alpha  occ. eigenvalues --   -0.64273  -0.63798  -0.63000  -0.62171  -0.61303
 Alpha  occ. eigenvalues --   -0.59025  -0.58877  -0.58256  -0.57618  -0.56849
 Alpha  occ. eigenvalues --   -0.55171  -0.54892  -0.54645  -0.53484  -0.53420
 Alpha  occ. eigenvalues --   -0.53280  -0.52492  -0.51953  -0.51677  -0.51520
 Alpha  occ. eigenvalues --   -0.50986  -0.50440  -0.49074  -0.47215  -0.46746
 Alpha  occ. eigenvalues --   -0.45866  -0.42286  -0.41284  -0.40573  -0.36561
 Alpha virt. eigenvalues --   -0.07969  -0.04359  -0.02487  -0.01741   0.05830
 Alpha virt. eigenvalues --    0.07590   0.08259   0.08770   0.09447   0.10313
 Alpha virt. eigenvalues --    0.11059   0.11219   0.11963   0.12094   0.12817
 Alpha virt. eigenvalues --    0.13069   0.13577   0.13695   0.14041   0.14149
 Alpha virt. eigenvalues --    0.14809   0.15220   0.16424   0.17026   0.17268
 Alpha virt. eigenvalues --    0.17923   0.18090   0.18210   0.18340   0.18490
 Alpha virt. eigenvalues --    0.18547   0.20039   0.20377   0.21166   0.21451
 Alpha virt. eigenvalues --    0.21908   0.22013   0.23251   0.24121   0.24925
 Alpha virt. eigenvalues --    0.25762   0.25960   0.26066   0.26194   0.27012
 Alpha virt. eigenvalues --    0.27822   0.27990   0.28834   0.29613   0.29667
 Alpha virt. eigenvalues --    0.30955   0.31546   0.31868   0.32156   0.32366
 Alpha virt. eigenvalues --    0.32829   0.33916   0.34300   0.35087   0.35106
 Alpha virt. eigenvalues --    0.35431   0.36151   0.36565   0.37274   0.37938
 Alpha virt. eigenvalues --    0.38446   0.39360   0.39575   0.40064   0.40426
 Alpha virt. eigenvalues --    0.41746   0.41871   0.42108   0.42555   0.42815
 Alpha virt. eigenvalues --    0.43061   0.43540   0.44180   0.45168   0.45698
 Alpha virt. eigenvalues --    0.45984   0.46117   0.46705   0.46894   0.47272
 Alpha virt. eigenvalues --    0.47486   0.47779   0.47890   0.48133   0.48472
 Alpha virt. eigenvalues --    0.48612   0.49158   0.49846   0.50156   0.50441
 Alpha virt. eigenvalues --    0.51156   0.51429   0.51627   0.52405   0.53109
 Alpha virt. eigenvalues --    0.53290   0.53618   0.54323   0.55024   0.55630
 Alpha virt. eigenvalues --    0.55713   0.56082   0.57149   0.57804   0.58093
 Alpha virt. eigenvalues --    0.59299   0.60287   0.60607   0.61076   0.61870
 Alpha virt. eigenvalues --    0.61948   0.62683   0.63636   0.64624   0.65347
 Alpha virt. eigenvalues --    0.66067   0.66238   0.67726   0.67947   0.68304
 Alpha virt. eigenvalues --    0.68933   0.70016   0.70552   0.71482   0.72574
 Alpha virt. eigenvalues --    0.72742   0.72868   0.74897   0.75426   0.77020
 Alpha virt. eigenvalues --    0.77279   0.77742   0.78905   0.79315   0.80892
 Alpha virt. eigenvalues --    0.80988   0.81879   0.82730   0.83656   0.83858
 Alpha virt. eigenvalues --    0.84291   0.84997   0.85381   0.85702   0.86075
 Alpha virt. eigenvalues --    0.87249   0.87576   0.88232   0.89881   0.90525
 Alpha virt. eigenvalues --    0.91178   0.91786   0.92279   0.93078   0.93340
 Alpha virt. eigenvalues --    0.94024   0.94276   0.95423   0.96386   0.97079
 Alpha virt. eigenvalues --    0.97706   0.98228   0.98998   0.99329   0.99859
 Alpha virt. eigenvalues --    1.00371   1.00615   1.01091   1.01915   1.02356
 Alpha virt. eigenvalues --    1.03016   1.03756   1.04775   1.04957   1.05545
 Alpha virt. eigenvalues --    1.05671   1.06315   1.06631   1.07956   1.08627
 Alpha virt. eigenvalues --    1.08740   1.10072   1.10454   1.11330   1.11940
 Alpha virt. eigenvalues --    1.12661   1.13580   1.14255   1.14521   1.15221
 Alpha virt. eigenvalues --    1.15785   1.16157   1.16832   1.17576   1.17844
 Alpha virt. eigenvalues --    1.18490   1.19428   1.20206   1.20779   1.21251
 Alpha virt. eigenvalues --    1.22549   1.23218   1.24006   1.24211   1.24542
 Alpha virt. eigenvalues --    1.24845   1.25459   1.26319   1.27412   1.28169
 Alpha virt. eigenvalues --    1.28568   1.29979   1.30069   1.30723   1.32246
 Alpha virt. eigenvalues --    1.32475   1.32815   1.33055   1.33403   1.34206
 Alpha virt. eigenvalues --    1.34634   1.35840   1.35887   1.36420   1.37361
 Alpha virt. eigenvalues --    1.37750   1.38144   1.38484   1.40312   1.40555
 Alpha virt. eigenvalues --    1.41266   1.42016   1.42659   1.43216   1.43470
 Alpha virt. eigenvalues --    1.44109   1.44888   1.45202   1.46014   1.46664
 Alpha virt. eigenvalues --    1.47528   1.47968   1.48791   1.49307   1.50301
 Alpha virt. eigenvalues --    1.50470   1.52360   1.52925   1.53319   1.53476
 Alpha virt. eigenvalues --    1.54609   1.54780   1.55505   1.56064   1.56340
 Alpha virt. eigenvalues --    1.56999   1.57740   1.57870   1.58468   1.58965
 Alpha virt. eigenvalues --    1.59881   1.60852   1.61002   1.62050   1.62238
 Alpha virt. eigenvalues --    1.62636   1.62844   1.63886   1.64815   1.65902
 Alpha virt. eigenvalues --    1.66476   1.67956   1.68782   1.69441   1.69874
 Alpha virt. eigenvalues --    1.70933   1.71489   1.71778   1.72950   1.73545
 Alpha virt. eigenvalues --    1.75381   1.76103   1.77366   1.77632   1.78577
 Alpha virt. eigenvalues --    1.78864   1.79407   1.80905   1.81187   1.83183
 Alpha virt. eigenvalues --    1.84017   1.84888   1.86275   1.86702   1.86938
 Alpha virt. eigenvalues --    1.87736   1.87845   1.89441   1.90303   1.91172
 Alpha virt. eigenvalues --    1.92247   1.92952   1.93977   1.95865   1.98475
 Alpha virt. eigenvalues --    2.00479   2.01169   2.03419   2.04336   2.05307
 Alpha virt. eigenvalues --    2.06808   2.07818   2.08581   2.10396   2.12416
 Alpha virt. eigenvalues --    2.13817   2.14976   2.15508   2.16641   2.17428
 Alpha virt. eigenvalues --    2.17462   2.20502   2.21493   2.22546   2.22831
 Alpha virt. eigenvalues --    2.24303   2.25487   2.27038   2.28982   2.29352
 Alpha virt. eigenvalues --    2.29901   2.30554   2.32301   2.33465   2.35753
 Alpha virt. eigenvalues --    2.36983   2.40197   2.41177   2.43975   2.44617
 Alpha virt. eigenvalues --    2.47500   2.49387   2.51463   2.52978   2.54368
 Alpha virt. eigenvalues --    2.54703   2.55047   2.55439   2.56842   2.58878
 Alpha virt. eigenvalues --    2.59558   2.60082   2.61340   2.62718   2.63972
 Alpha virt. eigenvalues --    2.64142   2.64532   2.65665   2.67473   2.68241
 Alpha virt. eigenvalues --    2.68637   2.69335   2.70223   2.71903   2.73176
 Alpha virt. eigenvalues --    2.73566   2.73684   2.74771   2.75134   2.76807
 Alpha virt. eigenvalues --    2.77455   2.79594   2.79887   2.81100   2.81228
 Alpha virt. eigenvalues --    2.81493   2.82696   2.82791   2.84329   2.85350
 Alpha virt. eigenvalues --    2.85663   2.85862   2.86808   2.87053   2.87345
 Alpha virt. eigenvalues --    2.88918   2.89104   2.89375   2.90663   2.90968
 Alpha virt. eigenvalues --    2.91049   2.91576   2.92333   2.92870   2.93326
 Alpha virt. eigenvalues --    2.93862   2.95197   2.95851   2.96000   2.96615
 Alpha virt. eigenvalues --    2.96683   2.97272   2.97814   2.98631   2.99216
 Alpha virt. eigenvalues --    3.00342   3.00914   3.01464   3.01639   3.02214
 Alpha virt. eigenvalues --    3.03482   3.03863   3.03931   3.04808   3.05277
 Alpha virt. eigenvalues --    3.05902   3.07668   3.07989   3.08380   3.09327
 Alpha virt. eigenvalues --    3.09696   3.09850   3.10525   3.11627   3.12270
 Alpha virt. eigenvalues --    3.12924   3.13855   3.14034   3.14983   3.16221
 Alpha virt. eigenvalues --    3.16614   3.17072   3.17588   3.18524   3.19429
 Alpha virt. eigenvalues --    3.19679   3.20363   3.20770   3.21341   3.22115
 Alpha virt. eigenvalues --    3.22812   3.23802   3.24698   3.25079   3.25338
 Alpha virt. eigenvalues --    3.26154   3.27292   3.27495   3.28417   3.29083
 Alpha virt. eigenvalues --    3.29707   3.29845   3.30373   3.31338   3.31840
 Alpha virt. eigenvalues --    3.32205   3.33312   3.33928   3.34937   3.35338
 Alpha virt. eigenvalues --    3.35961   3.37208   3.37560   3.38057   3.38728
 Alpha virt. eigenvalues --    3.39376   3.40110   3.40760   3.41297   3.42222
 Alpha virt. eigenvalues --    3.42412   3.43445   3.43810   3.44216   3.44415
 Alpha virt. eigenvalues --    3.45590   3.46174   3.46853   3.47361   3.47534
 Alpha virt. eigenvalues --    3.48188   3.48652   3.49245   3.49609   3.51082
 Alpha virt. eigenvalues --    3.51601   3.52026   3.53517   3.53730   3.54388
 Alpha virt. eigenvalues --    3.54767   3.55601   3.56190   3.57618   3.58110
 Alpha virt. eigenvalues --    3.58432   3.59478   3.60191   3.60843   3.61255
 Alpha virt. eigenvalues --    3.61678   3.62377   3.62922   3.63981   3.64148
 Alpha virt. eigenvalues --    3.65645   3.66003   3.66680   3.68414   3.68808
 Alpha virt. eigenvalues --    3.69224   3.69735   3.70347   3.71146   3.71495
 Alpha virt. eigenvalues --    3.71924   3.72454   3.73021   3.73827   3.74519
 Alpha virt. eigenvalues --    3.74759   3.75437   3.75912   3.76506   3.77448
 Alpha virt. eigenvalues --    3.78302   3.78718   3.79504   3.80077   3.80706
 Alpha virt. eigenvalues --    3.81295   3.82497   3.82592   3.83623   3.84165
 Alpha virt. eigenvalues --    3.84805   3.86365   3.87410   3.87699   3.88904
 Alpha virt. eigenvalues --    3.89087   3.89562   3.89903   3.90778   3.91414
 Alpha virt. eigenvalues --    3.93157   3.93730   3.93920   3.94856   3.95349
 Alpha virt. eigenvalues --    3.95882   3.97193   3.97413   3.98481   3.99326
 Alpha virt. eigenvalues --    3.99815   4.00052   4.01177   4.02098   4.03763
 Alpha virt. eigenvalues --    4.04557   4.05378   4.05786   4.06091   4.07589
 Alpha virt. eigenvalues --    4.08460   4.09583   4.10214   4.10531   4.11164
 Alpha virt. eigenvalues --    4.11243   4.11977   4.12589   4.13117   4.13632
 Alpha virt. eigenvalues --    4.14320   4.14430   4.15084   4.16294   4.16806
 Alpha virt. eigenvalues --    4.17653   4.17726   4.18449   4.19001   4.19601
 Alpha virt. eigenvalues --    4.20079   4.20726   4.21387   4.21691   4.22077
 Alpha virt. eigenvalues --    4.23578   4.23849   4.24203   4.25461   4.26178
 Alpha virt. eigenvalues --    4.26865   4.27263   4.27769   4.28573   4.29107
 Alpha virt. eigenvalues --    4.29453   4.30178   4.31424   4.31629   4.32377
 Alpha virt. eigenvalues --    4.33045   4.34075   4.34531   4.35247   4.35797
 Alpha virt. eigenvalues --    4.36051   4.36803   4.37727   4.38187   4.38403
 Alpha virt. eigenvalues --    4.40199   4.41476   4.42364   4.43263   4.43646
 Alpha virt. eigenvalues --    4.44657   4.45116   4.46957   4.47258   4.49030
 Alpha virt. eigenvalues --    4.49313   4.50343   4.50774   4.52891   4.54205
 Alpha virt. eigenvalues --    4.55186   4.56875   4.59111   4.59731   4.62573
 Alpha virt. eigenvalues --    4.63223   4.64242   4.65676   4.67504   4.67592
 Alpha virt. eigenvalues --    4.68761   4.69684   4.71086   4.71977   4.73329
 Alpha virt. eigenvalues --    4.73419   4.73883   4.74892   4.75525   4.76748
 Alpha virt. eigenvalues --    4.77136   4.78623   4.79569   4.79768   4.81232
 Alpha virt. eigenvalues --    4.82882   4.84203   4.86571   4.87376   4.87794
 Alpha virt. eigenvalues --    4.88728   4.89584   4.90758   4.93477   4.94394
 Alpha virt. eigenvalues --    4.96657   4.97441   4.98537   5.00525   5.01044
 Alpha virt. eigenvalues --    5.01603   5.02330   5.04857   5.05236   5.05906
 Alpha virt. eigenvalues --    5.07719   5.08262   5.10127   5.10298   5.11684
 Alpha virt. eigenvalues --    5.12480   5.12752   5.14521   5.15542   5.15956
 Alpha virt. eigenvalues --    5.17015   5.17416   5.17877   5.18303   5.19044
 Alpha virt. eigenvalues --    5.19805   5.20090   5.21789   5.22383   5.22922
 Alpha virt. eigenvalues --    5.23926   5.24892   5.26152   5.26415   5.26631
 Alpha virt. eigenvalues --    5.27136   5.27827   5.30314   5.30923   5.31384
 Alpha virt. eigenvalues --    5.31658   5.32327   5.32648   5.35247   5.35359
 Alpha virt. eigenvalues --    5.35799   5.37079   5.37586   5.38656   5.39241
 Alpha virt. eigenvalues --    5.40422   5.41062   5.42953   5.43371   5.44461
 Alpha virt. eigenvalues --    5.45003   5.46075   5.46706   5.48363   5.49165
 Alpha virt. eigenvalues --    5.50203   5.51852   5.52910   5.53454   5.55239
 Alpha virt. eigenvalues --    5.55877   5.57749   5.58194   5.60334   5.60656
 Alpha virt. eigenvalues --    5.61405   5.62266   5.64007   5.65540   5.66421
 Alpha virt. eigenvalues --    5.66518   5.67841   5.69105   5.70376   5.70729
 Alpha virt. eigenvalues --    5.71979   5.72489   5.73366   5.74168   5.74592
 Alpha virt. eigenvalues --    5.76286   5.76483   5.77609   5.79721   5.85960
 Alpha virt. eigenvalues --    5.86571   5.99442   6.02494   6.03427   6.05065
 Alpha virt. eigenvalues --    6.06447   6.06734   6.09435   6.14355   6.16171
 Alpha virt. eigenvalues --    6.21088   6.23770   6.26039   6.30799   6.32182
 Alpha virt. eigenvalues --    6.61485   6.64496   6.79546   6.80041   6.94015
 Alpha virt. eigenvalues --    7.24789   7.32793   7.53542  22.83542  23.03403
 Alpha virt. eigenvalues --   23.28870  23.34068  23.37379  23.43817  23.53470
 Alpha virt. eigenvalues --   23.67946  23.69137  23.72689  23.76071  23.80167
 Alpha virt. eigenvalues --   32.77125  32.80054  32.96655  34.29464  36.95453
 Alpha virt. eigenvalues --   37.50504  44.09796  53.21520 285.12938
          Condensed to atoms (all electrons):
               1          2          3          4          5          6
     1  Pt  16.638632  -0.043586  -0.040610   0.005085   0.005528  -0.003333
     2  C   -0.043586   5.190318  -0.062389   0.443000  -0.028605  -0.017142
     3  C   -0.040610  -0.062389   5.086228  -0.035617   0.564525  -0.037525
     4  C    0.005085   0.443000  -0.035617   5.117606  -0.002139   0.435556
     5  C    0.005528  -0.028605   0.564525  -0.002139   4.896531   0.454825
     6  C   -0.003333  -0.017142  -0.037525   0.435556   0.454825   4.599938
     7  H    0.000317   0.004254  -0.000159   0.406746   0.002547  -0.036588
     8  H    0.000279  -0.002235  -0.015970   0.009067   0.416794  -0.033951
     9  O    0.000109   0.005793   0.000927  -0.067712  -0.047975   0.386249
    10  N    0.123775   0.344891   0.339021  -0.071504  -0.065124  -0.011975
    11  C   -0.031690   0.166431   0.002051  -0.057342  -0.001385   0.004933
    12  H   -0.003673  -0.034980   0.000488  -0.002543   0.000364  -0.000122
    13  H    0.007721  -0.042590  -0.000003  -0.004121  -0.000240   0.000841
    14  C   -0.030926   0.002135   0.201932  -0.002837  -0.065899   0.009112
    15  H   -0.004175   0.000623  -0.031909   0.000361  -0.001865  -0.000207
    16  H    0.007755  -0.000046  -0.045441  -0.000239  -0.002913   0.000817
    17  N    0.189709  -0.003119   0.000951   0.004221   0.000016  -0.000161
    18  N    0.193578   0.000607  -0.011728   0.000111   0.004181  -0.000477
    19  C    0.268255   0.003261   0.003224   0.000197   0.000248  -0.000035
    20  H   -0.021446  -0.000160  -0.000158   0.000039   0.000038   0.000003
    21  H   -0.025307  -0.000289  -0.000062  -0.000006  -0.000004   0.000000
    22  H   -0.024924  -0.000064  -0.000272  -0.000005  -0.000007   0.000000
    23  C   -0.027178   0.011573  -0.000127  -0.000122   0.000051  -0.000035
    24  H   -0.013046  -0.000773  -0.000007   0.000031   0.000001  -0.000001
    25  H    0.009842   0.002012   0.000022  -0.000001  -0.000004   0.000003
    26  H   -0.007789  -0.001917  -0.000021  -0.000179   0.000007   0.000001
    27  C   -0.023559   0.000072  -0.000947   0.005198   0.000195  -0.000483
    28  H    0.006262  -0.004943   0.000010   0.000063   0.000005   0.000006
    29  H   -0.014450  -0.001257   0.000051  -0.000264  -0.000025   0.000021
    30  H    0.003595   0.012820  -0.000679   0.004302   0.000155  -0.000421
    31  C   -0.028141  -0.000099   0.012203   0.000029  -0.000210   0.000002
    32  H    0.010032   0.000020   0.001997  -0.000004  -0.000028   0.000003
    33  H   -0.012526  -0.000009  -0.000805   0.000002   0.000028  -0.000001
    34  H   -0.007098  -0.000008  -0.001813   0.000007  -0.000159   0.000004
    35  C   -0.024636  -0.000953   0.000229   0.000023   0.005152  -0.000425
    36  H   -0.014838   0.000044  -0.001188  -0.000023  -0.000280   0.000021
    37  H    0.006962   0.000010  -0.004902   0.000007   0.000070   0.000003
    38  H    0.003932  -0.000690   0.012334   0.000138   0.004524  -0.000471
    39  H    0.296024  -0.004931  -0.001821  -0.000487  -0.000450   0.000213
    40  H   -0.000039   0.010162  -0.001216  -0.025166   0.003063  -0.050530
               7          8          9         10         11         12
     1  Pt   0.000317   0.000279   0.000109   0.123775  -0.031690  -0.003673
     2  C    0.004254  -0.002235   0.005793   0.344891   0.166431  -0.034980
     3  C   -0.000159  -0.015970   0.000927   0.339021   0.002051   0.000488
     4  C    0.406746   0.009067  -0.067712  -0.071504  -0.057342  -0.002543
     5  C    0.002547   0.416794  -0.047975  -0.065124  -0.001385   0.000364
     6  C   -0.036588  -0.033951   0.386249  -0.011975   0.004933  -0.000122
     7  H    0.502522  -0.000092  -0.001317   0.003363  -0.007383   0.000087
     8  H   -0.000092   0.484830   0.003719   0.003266   0.000020   0.000002
     9  O   -0.001317   0.003719   7.566167   0.000719  -0.000280   0.000001
    10  N    0.003363   0.003266   0.000719   6.652822   0.001395  -0.006161
    11  C   -0.007383   0.000020  -0.000280   0.001395   4.977332   0.441606
    12  H    0.000087   0.000002   0.000001  -0.006161   0.441606   0.487611
    13  H    0.000249  -0.000003   0.000005   0.002763   0.441670  -0.009301
    14  C   -0.000022  -0.006945  -0.000076  -0.006729  -0.000457  -0.000388
    15  H    0.000001   0.000165   0.000002  -0.005437  -0.000371  -0.000013
    16  H   -0.000002   0.000004  -0.000005   0.002689   0.000075  -0.000002
    17  N    0.000175  -0.000000   0.000003  -0.021451   0.233827  -0.031064
    18  N    0.000001   0.000198   0.000001  -0.015781   0.000792   0.000098
    19  C    0.000007   0.000007  -0.000000  -0.029708  -0.002748  -0.000028
    20  H   -0.000001  -0.000001  -0.000000   0.002003  -0.000362   0.000005
    21  H   -0.000000  -0.000000   0.000000   0.000536   0.000609  -0.000009
    22  H   -0.000000  -0.000000   0.000000   0.000545   0.000077  -0.000002
    23  C   -0.000000   0.000001  -0.000000  -0.002170  -0.044137  -0.003940
    24  H   -0.000000   0.000000   0.000000   0.000178   0.007528   0.000264
    25  H    0.000004  -0.000000  -0.000000  -0.000040  -0.009353  -0.002329
    26  H   -0.000004   0.000000  -0.000000  -0.000189  -0.004277   0.002341
    27  C   -0.000045   0.000003   0.000001  -0.002833  -0.025184   0.003765
    28  H   -0.000012  -0.000000  -0.000000   0.000179  -0.003140   0.000083
    29  H   -0.000009  -0.000000   0.000000   0.000802   0.005965  -0.000129
    30  H    0.000164   0.000001  -0.000001  -0.001382  -0.016919   0.000089
    31  C    0.000000  -0.000005  -0.000000  -0.001791  -0.000172  -0.000011
    32  H   -0.000000   0.000004  -0.000000  -0.000025   0.000006  -0.000000
    33  H    0.000000  -0.000000   0.000000   0.000177  -0.000016   0.000000
    34  H    0.000000  -0.000004  -0.000000  -0.000210  -0.000044   0.000001
    35  C    0.000003  -0.000049  -0.000001  -0.002148   0.000067  -0.000004
    36  H   -0.000000  -0.000009  -0.000000   0.000803   0.000017  -0.000000
    37  H   -0.000000  -0.000009  -0.000000   0.000162   0.000002   0.000000
    38  H    0.000001   0.000170  -0.000002  -0.001179   0.000053  -0.000001
    39  H   -0.000022  -0.000018  -0.000000   0.002599   0.013273  -0.002387
    40  H    0.007703  -0.000785   0.326861   0.000174  -0.000522   0.000004
              13         14         15         16         17         18
     1  Pt   0.007721  -0.030926  -0.004175   0.007755   0.189709   0.193578
     2  C   -0.042590   0.002135   0.000623  -0.000046  -0.003119   0.000607
     3  C   -0.000003   0.201932  -0.031909  -0.045441   0.000951  -0.011728
     4  C   -0.004121  -0.002837   0.000361  -0.000239   0.004221   0.000111
     5  C   -0.000240  -0.065899  -0.001865  -0.002913   0.000016   0.004181
     6  C    0.000841   0.009112  -0.000207   0.000817  -0.000161  -0.000477
     7  H    0.000249  -0.000022   0.000001  -0.000002   0.000175   0.000001
     8  H   -0.000003  -0.006945   0.000165   0.000004  -0.000000   0.000198
     9  O    0.000005  -0.000076   0.000002  -0.000005   0.000003   0.000001
    10  N    0.002763  -0.006729  -0.005437   0.002689  -0.021451  -0.015781
    11  C    0.441670  -0.000457  -0.000371   0.000075   0.233827   0.000792
    12  H   -0.009301  -0.000388  -0.000013  -0.000002  -0.031064   0.000098
    13  H    0.494218   0.000074  -0.000001  -0.000000  -0.021788  -0.000039
    14  C    0.000074   4.929464   0.437170   0.444917   0.000651   0.246560
    15  H   -0.000001   0.437170   0.489606  -0.010018   0.000105  -0.029704
    16  H   -0.000000   0.444917  -0.010018   0.494893  -0.000040  -0.022730
    17  N   -0.021788   0.000651   0.000105  -0.000040   6.357336  -0.009840
    18  N   -0.000039   0.246560  -0.029704  -0.022730  -0.009840   6.341679
    19  C    0.000043  -0.002366  -0.000034   0.000052   0.004361   0.003386
    20  H    0.000004  -0.000377   0.000007   0.000004  -0.001972  -0.002199
    21  H   -0.000006   0.000074  -0.000003   0.000000  -0.001845   0.000284
    22  H    0.000000   0.000534  -0.000010  -0.000007   0.000276  -0.001652
    23  C   -0.004076  -0.000140  -0.000011   0.000001   0.257691   0.000621
    24  H   -0.000273  -0.000015   0.000000   0.000000  -0.025814   0.000052
    25  H    0.002899   0.000006  -0.000000  -0.000000  -0.014805  -0.000014
    26  H   -0.000275  -0.000043   0.000001   0.000000  -0.033208   0.000067
    27  C   -0.011701   0.000036  -0.000003   0.000004   0.247560   0.000932
    28  H    0.003452   0.000001   0.000000  -0.000000  -0.019330  -0.000031
    29  H    0.000135   0.000017  -0.000000   0.000000  -0.027599   0.000143
    30  H   -0.002227   0.000052  -0.000001   0.000001  -0.031796   0.000265
    31  C    0.000001  -0.043669  -0.003518  -0.004370   0.000606   0.258358
    32  H   -0.000000  -0.009582  -0.002309   0.003003  -0.000014  -0.015460
    33  H    0.000000   0.007458   0.000298  -0.000273   0.000054  -0.025914
    34  H    0.000000  -0.003709   0.001963  -0.000264   0.000070  -0.032525
    35  C    0.000004  -0.026204   0.003931  -0.011779   0.000982   0.249579
    36  H    0.000000   0.005774  -0.000124   0.000133   0.000138  -0.027129
    37  H   -0.000000  -0.003022   0.000097   0.003488  -0.000032  -0.019033
    38  H    0.000001  -0.017117   0.000085  -0.002194   0.000266  -0.031338
    39  H    0.000196   0.008556  -0.001574   0.000101   0.002974   0.000430
    40  H    0.000017   0.000024  -0.000001  -0.000000   0.000006  -0.000001
              19         20         21         22         23         24
     1  Pt   0.268255  -0.021446  -0.025307  -0.024924  -0.027178  -0.013046
     2  C    0.003261  -0.000160  -0.000289  -0.000064   0.011573  -0.000773
[...]
 3,-0.00000235,0.00002586,0.00006397,0.00026029,-0.00011548,0.03213070,
 -0.00448323,-0.01816803,0.00038226,0.00038677,-0.00006512,-0.00076499,
 0.00042791,0.00009663,0.00000608,-0.00006854,0.00007281,-0.00018219,0.
 00006678,-0.00002349,0.00004384,0.00001460,0.00002563,-0.00000550,0.00
 001022,0.00000156,-0.00001830,0.00001139,-0.00000924,-0.00000140,0.000
 00468,-0.00000546,0.00001530,0.00000650,-0.00003457,-0.00000050,0.0000
 0240,0.00000055,0.00000625,-0.00000753,0.00001867,-0.00000933,-0.00000
 327,0.00000963,0.00219896,0.00044302,0.00112459,-0.00015721,-0.0000402
 7,-0.00007274,-0.00100216,-0.00056778,-0.00045572,-0.00018787,0.000223
 97,0.00026854,0.08496024,-0.01759159,-0.08480915,-0.10095004,0.0164606
 4,0.09905996,-0.00026457,0.00035774,-0.00045449,0.00010286,0.00014087,
 -0.00000278,-0.00025579,-0.00029554,-0.00003305,-0.00008968,0.00004700
 ,-0.00001021,0.00012953,0.00009797,-0.00002827,-0.00003248,-0.00015284
 ,-0.00000500,0.00000069,0.00000452,-0.00000379,-0.00002305,-0.00000833
 ,0.00002020,0.00003524,0.00002689,0.00000151,-0.00011128,0.00005757,0.
 00026579,-0.00000621,-0.00000588,0.00000322,-0.00000060,0.00000022,-0.
 00000006,0.00000173,0.00001014,-0.00000789,0.00067453,-0.00188403,0.00
 070754,0.00002759,0.00005969,-0.00009806,-0.00038495,0.00078579,0.0002
 6149,-0.00010209,0.00008125,0.00000893,-0.00063931,-0.00004586,-0.0002
 5945,-0.00005918,0.00017366,-0.00001397,0.00021618,-0.00012406,-0.0001
 2909,-0.00004356,-0.00000826,-0.00007869,0.00002633,-0.00007005,0.0000
 0512,0.00002077,0.00003235,0.00002538,0.00000132,-0.00000506,-0.000000
 91,-0.00000301,0.00001339,-0.00001045,-0.00000052,-0.00000200,-0.00000
 115,-0.00001706,-0.00001156,-0.00004681,0.00001259,-0.00000495,0.00001
 264,-0.00000654,-0.00000577,0.00000035,0.00002187,0.00000274,0.0000015
 5,0.00007359,0.00092656,-0.00023467,-0.00018080,-0.00003519,0.00016308
 ,-0.00009758,0.00017392,0.00009898,-0.00007693,-0.00025294,0.00010178,
 -0.06348300,0.06164645,-0.00524136,-0.00433782,0.02780845,-0.00336238,
 0.06275288,-0.00017822,0.00206485,0.00073085,0.00008243,0.00010163,0.0
 0005796,0.00002664,-0.00024397,-0.00005700,-0.00007552,0.00005396,-0.0
 0000713,-0.00002869,-0.00001568,-0.00001169,0.00011259,-0.00004005,-0.
 00000948,-0.00000690,-0.00000221,-0.00000441,-0.00001579,-0.00000487,0
 .00001176,-0.00011673,0.00000344,-0.00000593,0.00000671,0.00014788,0.0
 0008248,0.00012281,-0.00002741,-0.00008736,-0.00001066,0.00000308,0.00
 000611,-0.00003646,-0.00001367,0.00001245,0.00042963,0.00052981,-0.001
 00216,-0.00017253,0.00034300,-0.00015632,-0.00016709,-0.00083766,0.000
 33478,0.00000699,-0.00020317,-0.00028104,0.00152928,-0.00740338,0.0048
 9471,-0.00008250,0.00008907,0.00001834,-0.00002363,0.00002805,0.000002
 62,0.00002541,-0.00000926,0.00000035,0.00002680,0.00001344,0.00000576,
 -0.00012341,0.00001950,-0.00008538,0.00000765,0.00000609,0.00000068,0.
 00001980,-0.00003793,0.00001916,0.00001146,0.00001211,0.00001187,-0.00
 010126,-0.00021816,0.00011753,0.00000638,-0.00002595,-0.00005240,-0.00
 000496,0.00002137,-0.00000372,0.00003106,0.00001494,-0.00000143,-0.000
 48616,0.00145768,-0.00098051,0.00064627,-0.00045847,-0.00071089,0.0000
 4435,-0.00013520,0.00006943,-0.00004924,0.00027480,-0.00007872,0.06150
 700,-0.30596720,0.02512146,-0.00036061,-0.00285117,-0.00009022,-0.0675
 7223,0.32781785,0.00029992,-0.00150670,-0.00460113,-0.00002769,0.00004
 878,-0.00002258,0.00031846,-0.00004834,0.00001972,0.00005421,-0.000094
 36,-0.00000514,0.00002839,-0.00002174,0.00001413,-0.00001722,0.0000541
 0,0.00000763,0.00000210,0.00000257,-0.00000335,0.00001410,0.00000467,0
 .00000469,0.00004764,-0.00001164,0.00000102,-0.00032791,-0.00016921,0.
 00017082,-0.00030362,0.00005937,0.00019977,0.00002428,-0.00000624,-0.0
 0001497,0.00009453,0.00001829,-0.00002970,-0.00241593,0.00195761,0.000
 67436,-0.00015616,-0.00019696,0.00023796,0.00068522,-0.00081834,0.0003
 4971,0.00015233,0.00099599,0.00090188,-0.00792164,0.03759681,-0.016230
 17,0.00037213,-0.00039111,-0.00011220,-0.00017870,0.00011004,0.0001257
 4,-0.00003109,0.00001631,0.00007808,-0.00015384,0.00007518,0.00004316,
 0.00025594,-0.00004844,0.00019063,-0.00002283,-0.00000177,-0.00000505,
 -0.00005509,0.00007764,-0.00004398,-0.00002131,-0.00001842,-0.00003085
 ,0.00006836,0.00035056,-0.00029703,0.00000878,0.00005208,0.00017387,-0
 .00001130,0.00000500,-0.00000180,0.00001949,0.00001453,-0.00000213,0.0
 0064884,0.00256744,0.00153542,0.00055376,-0.00153489,0.00005333,-0.000
 05805,-0.00022287,-0.00008781,0.00022139,-0.00035659,0.00026272,-0.003
 75271,0.01657013,-0.04938668,0.00135104,-0.01162212,0.00223514,0.00567
 368,-0.02925458,0.06089407,-0.00167023,0.00081388,-0.00177393,0.000296
 91,0.00031689,0.00003612,0.00006464,-0.00066470,0.00027514,-0.00022734
 ,0.00011520,-0.00001629,0.00012775,0.00020892,-0.00005107,0.00000414,-
 0.00030556,0.00000948,-0.00000808,0.00000548,-0.00001061,-0.00001512,0
 .00000179,0.00000079,-0.00001062,0.00004512,0.00000233,-0.00242448,-0.
 00079990,0.00074608,0.00005276,0.00001692,-0.00002827,-0.00001107,0.00
 000264,0.00000423,-0.00000170,0.00000057,-0.00000761,0.00065420,0.0004
 5255,0.00030911,0.00004535,0.00005988,-0.00013073,0.00006043,0.0001298
 8,0.00000629,-0.00001726,0.00005433,-0.00007151,0.00117131,0.00259696,
 0.00223997,0.00019919,0.00002523,-0.00010546,0.00003973,-0.00006063,0.
 00004994,0.00002882,0.00005462,0.00000594,0.00008715,-0.00001872,0.000
 08344,-0.00003106,0.00003417,0.00000057,-0.00000269,-0.00000064,-0.000
 00354,0.00000030,-0.00000477,-0.00000374,0.00000472,0.00000630,0.00000
 156,-0.00015525,-0.00006136,0.00000175,0.00002054,-0.00002981,0.000020
 10,-0.00002262,0.00003530,-0.00001164,0.00015104,0.00002598,-0.0000218
 6,0.00027869,0.00028899,0.00027469,-0.00004564,-0.00011935,0.00001146,
 0.00048708,0.00006637,0.00011175,0.00048708,-0.00020868,-0.00001542,-0
 .17942336,-0.10659305,-0.08691434,-0.01555213,-0.01656466,-0.01384212,
 0.00597694,0.00507130,0.00462045,0.18942464,-0.00149772,0.00026379,-0.
 00244806,-0.00001938,0.00001999,-0.00004225,-0.00004334,0.00024964,-0.
 00019904,0.00001838,-0.00003419,-0.00000089,0.00004647,-0.00005251,0.0
 0001686,0.00003130,0.00004004,-0.00000712,0.00000220,-0.00000112,-0.00
 000562,0.00001775,0.00000095,-0.00002786,-0.00001139,-0.00001437,0.000
 01208,0.00017367,0.00156244,0.00174065,-0.00005219,0.00000456,0.000020
 63,0.00000976,-0.00000443,-0.00000481,0.00000915,-0.00000027,-0.000003
 96,-0.00009738,0.00021259,-0.00054856,0.00014654,-0.00011221,0.0000451
 1,-0.00012918,-0.00030210,-0.00000269,-0.00002647,0.00016898,0.0000126
 9,0.00895719,0.00608304,0.00685967,-0.00030706,-0.00000464,-0.00005089
 ,0.00002803,0.00002352,-0.00006422,-0.00000050,-0.00000259,-0.00002722
 ,-0.00004290,0.00000743,-0.00000246,0.00002744,0.00002108,0.00000915,-
 0.00000013,-0.00000208,0.00000107,-0.00001042,0.00000856,-0.00000604,-
 0.00000281,0.00000031,-0.00000209,0.00009246,0.00015879,-0.00014134,0.
 00000114,0.00000960,-0.00000993,0.00000803,-0.00001458,0.00000663,0.00
 001068,-0.00009676,0.00000205,-0.00031169,-0.00008061,0.00120235,0.000
 06183,0.00044144,0.00034881,-0.00003979,-0.00018272,0.00007482,0.00011
 554,0.00063811,0.00031324,-0.10599637,-0.13902116,-0.07155119,0.005156
 88,0.00400544,0.00413376,-0.02182098,-0.01427763,-0.01419006,0.1153552
 4,0.14042007,-0.00155791,-0.00037198,0.00036905,-0.00005668,0.00009305
 ,-0.00001721,0.00070482,0.00005745,-0.00136914,0.00000971,-0.00008229,
 -0.00002096,0.00001704,-0.00007183,0.00005236,0.00023283,0.00014500,-0
 .00000943,-0.00000493,-0.00000420,0.00000297,-0.00000186,-0.00000316,0
 .00000610,-0.00017183,-0.00003123,-0.00001040,0.00076754,0.00016408,0.
 00208780,-0.00010308,0.00004831,0.00008286,0.00002512,-0.00000700,-0.0
 0000911,0.00003128,-0.00000277,-0.00000968,-0.00157074,-0.00042994,0.0
 0060045,-0.00008317,0.00000697,0.00015646,0.00019382,-0.00014069,-0.00
 008039,0.00005063,0.00035149,-0.00016186,-0.02466108,-0.01959748,-0.02
 150421,-0.00003039,-0.00005033,-0.00007242,0.00000595,0.00005150,-0.00
 001701,0.00001096,0.00000758,0.00001272,0.00003329,-0.00001953,-0.0000
 0943,0.00006227,0.00004487,0.00001915,-0.00000059,-0.00000152,0.000001
 82,-0.00002271,0.00001898,-0.00001408,-0.00000644,0.00000582,-0.000010
 01,0.00002988,-0.00000933,-0.00004020,-0.00000182,0.00000539,-0.000006
 18,0.00000009,-0.00000703,0.00000886,-0.00003339,-0.00002745,0.0000696
 6,0.00175411,0.00319469,-0.00573571,0.00015258,-0.00002650,0.00006374,
 -0.00004724,0.00013100,0.00014354,-0.00130473,-0.00125252,-0.00077510,
 -0.07904990,-0.06578657,-0.10580405,0.00768435,0.00798385,0.00755420,0
 .00266942,0.00150034,0.00265607,0.09414148,0.07455574,0.12176183,-0.03
 236262,-0.00020914,-0.08118186,0.00101658,0.00153872,0.00032943,0.0009
 6133,-0.00150885,0.00026233,-0.00038933,0.00030316,-0.00013143,-0.0003
 7717,-0.00028620,-0.00012490,0.00052525,-0.00003594,0.00006748,0.00000
 030,-0.00001683,-0.00003135,0.00000250,0.00001712,-0.00002985,-0.00053
 624,-0.00002938,-0.00002979,-0.00360067,0.00021495,-0.00085992,-0.0007
 4967,-0.00017036,-0.00077679,0.00024545,0.00015676,0.00016950,0.000051
 23,0.00006984,-0.00002722,-0.00134497,0.00011861,-0.00077637,0.0002416
 9,-0.00009780,0.00014688,0.00005135,-0.00006816,-0.00001295,-0.0002834
 9,-0.00104779,-0.00061372,-0.00021163,0.00082887,-0.00038760,-0.003826
 24,-0.00034726,0.00530491,0.00144962,-0.00002615,-0.00057671,-0.000017
 73,-0.00050381,-0.00003152,-0.00029325,0.00056119,0.00030325,0.0005785
 2,-0.00000449,0.00006741,-0.00001373,0.00005113,0.00007293,-0.00007652
 ,0.00006637,0.00005071,-0.00010700,-0.00090068,-0.00014281,0.00034108,
 -0.00047087,-0.00033659,0.00013960,0.00012082,-0.00006284,0.00022589,-
 0.00007759,0.00002623,-0.00005259,-0.00013217,0.00011061,0.00050018,0.
 00000505,0.00021787,-0.00008648,-0.00006672,0.00003892,-0.00002102,-0.
 00006818,0.00007886,0.00030894,0.00079055,-0.00016865,0.00032976,0.000
 49820,-0.00037685,0.00021610,0.00009256,0.00001775,0.00014373,-0.00011
 509,-0.00005558,-0.00005141,0.00013443,0.00011228,0.03703651,-0.000178
 25,-0.02622040,0.00022436,-0.00020033,0.00015964,-0.00031106,0.0001931
 4,0.00013997,0.00030784,0.00026831,-0.00020990,0.00003039,-0.00026957,
 -0.00021796,-0.00003343,0.00001279,0.00038122,0.00000109,-0.00000824,0
 .00000189,0.00001865,0.00000945,0.00000121,-0.00001868,-0.00000905,-0.
 00006124,0.00000315,-0.00003580,0.00049549,-0.00004781,0.00041701,0.00
 088405,0.00091683,0.00036425,0.00026976,0.00028130,0.00022234,0.000042
 03,0.00001811,-0.00017931,0.00035995,-0.00092797,-0.00040670,0.0002739
 7,-0.00019334,-0.00022535,0.00004449,-0.00001345,-0.00220702,0.0028353
 5,-0.00566549,0.00212101,0.00294113,0.00563274,-0.00016341,0.00054798,
 0.00003449,0.00001658,-0.00025330,-0.00003708,0.00046022,0.00021253,-0
 .00053751,-0.00044071,0.00013529,0.00056618,0.00005543,0.00029037,0.00
 004327,-0.00000166,0.00001798,0.00008494,-0.00008530,0.00030326,-0.000
 02082,-0.00093397,0.00013099,0.00035017,-0.00035292,-0.00026218,0.0004
 5049,0.00013804,-0.00023918,0.00006926,-0.00013682,0.00013250,0.000193
 43,0.00035349,-0.00009978,0.00046491,-0.00012652,0.00025190,0.00011638
 ,0.00008098,0.00030462,-0.00000216,-0.00000303,0.00002319,-0.00008526,
 0.00069802,0.00047242,0.00002020,0.00036267,-0.00024466,-0.00045215,0.
 00013080,0.00014035,-0.00019821,-0.00013699,-0.00023720,-0.00005902,-0
 .00035137,-0.00013991,-0.00045782,0.00055680,0.01638837,-0.07620635,0.
 00008674,-0.23453108,-0.00038749,-0.00076934,-0.00006040,-0.00041925,0
 .00073032,-0.00008189,0.00032487,-0.00014484,0.00001612,0.00030115,0.0
 0015245,0.00001737,-0.00053622,0.00002423,0.00000322,0.00003769,0.0000
 1038,0.00000795,0.00002722,-0.00000719,0.00000787,0.00058146,0.0000278
 0,0.00001681,-0.00131802,0.00033447,0.00014056,-0.00112006,-0.00018087
 ,0.00069016,-0.00005423,0.00004385,-0.00008839,0.00001234,0.00002322,-
 0.00001417,-0.00091296,-0.00017177,0.00020498,-0.00001239,-0.00001823,
 -0.00010723,0.00001228,-0.00002053,0.00000027,0.00029108,0.00015578,0.
 00063340,0.00030538,-0.00019235,0.00097931,0.00034226,0.00021908,-0.00
 563725,0.00164946,-0.00007020,0.00125892,-0.00008325,-0.00013515,0.000
 10189,0.00009034,0.00009190,-0.00037066,-0.00028337,0.00019748,-0.0000
 5179,-0.00003666,-0.00000093,-0.00002782,-0.00000758,0.00007342,0.0001
 1289,-0.00047136,0.00043499,-0.00006381,-0.00028140,-0.00098727,-0.000
 65623,-0.00000896,0.00011762,0.00004736,-0.00012319,0.00008709,0.00002
 194,0.00005502,-0.00000049,0.00001106,-0.00025797,-0.00015795,-0.00016
 192,0.00000819,-0.00007113,0.00012878,-0.00002912,0.00000341,-0.000027
 57,-0.00042802,0.00018619,0.00015362,-0.00031008,0.00096490,-0.0006404
 6,-0.00011125,-0.00009228,0.00002563,0.00000037,-0.00012062,0.00004770
 ,0.00006023,-0.00001135,0.00002586,0.07935211,-0.00076283,0.23786704,-
 0.00062331,-0.00006536,0.00018382,-0.00136837,-0.00118992,-0.00015557,
 -0.00044545,-0.00185055,-0.00029988,0.00406595,-0.00242574,-0.00020767
 ,-0.00470546,0.00306963,-0.00041501,-0.03162070,-0.04630997,-0.0013355
 1,0.00130594,0.00231440,-0.00084561,0.00010310,0.00007923,0.00005143,-
 0.11446485,-0.14331174,-0.00482175,0.00160519,0.00119051,0.00009272,-0
 .00003249,0.00030635,0.00014378,0.00012411,-0.00004594,-0.00002967,0.0
 0002291,0.00002428,-0.00002600,-0.00030841,0.00018007,0.00018793,0.000
 07471,0.00003098,-0.00004033,0.00003644,0.00002855,-0.00000465,0.00016
 009,-0.00012791,0.00002850,-0.00007213,-0.00001449,-0.00004510,0.00003
 828,-0.00002070,-0.00002928,0.00006666,0.00000068,-0.00001204,0.000057
 00,-0.00000067,-0.00001537,0.00005264,0.00000630,-0.00001147,0.0000135
 9,0.00009498,-0.00012773,0.00003660,-0.00001524,0.00001223,-0.00001203
 ,-0.00000805,0.00000615,-0.00000658,0.00000265,-0.00000045,0.00001952,
 0.00004604,0.00010404,-0.00000988,-0.00000946,-0.00000009,0.00001425,0
 .00000040,-0.00001724,-0.00000584,-0.00001100,0.00002987,-0.00005816,-
 0.00003373,-0.00004441,0.00000174,0.00001321,0.00000739,0.00000824,-0.
 00000709,-0.00000111,0.00000055,-0.00000585,0.00000208,-0.00001525,-0.
 00000775,0.00005912,0.00000950,-0.00000684,-0.00000298,-0.00000232,0.0
 0001311,-0.00000437,0.00000665,0.00000560,0.00001904,0.00003616,-0.000
 00902,-0.00005227,0.14589141,-0.00046925,0.00000695,0.00015148,-0.0011
 1174,-0.00142481,-0.00009624,-0.00163405,0.00058151,-0.00012771,0.0061
 5912,0.00321625,0.00030754,0.00307624,0.00272988,0.00007872,0.00069104
 ,0.00352630,-0.00004826,-0.00030177,-0.00062881,0.00057332,0.00016896,
 0.00033623,0.00002432,-0.19643075,-0.45330552,-0.00906517,0.00144164,-
 0.00013452,0.00008837,0.00001404,0.00010390,0.00005550,0.00003357,0.00
 000981,-0.00001591,0.00003623,-0.00003590,-0.00001001,-0.00003941,-0.0
 0006048,0.00007312,0.00003564,-0.00001008,-0.00001742,0.00001072,-0.00
 000379,-0.00000571,0.00001430,-0.00003945,-0.00001103,0.00003617,0.000
 02421,-0.00000674,0.00002085,0.00001537,-0.00003260,0.00005139,0.00000
 145,-0.00000491,0.00003887,-0.00000186,-0.00000444,0.00004187,-0.00000
 109,-0.00000833,-0.00002083,0.00003144,-0.00005091,0.00001086,-0.00000
 068,0.00000453,0.00000171,-0.00001163,0.00000302,-0.00000002,0.0000056
 9,0.00000017,-0.00001391,0.00000470,0.00005964,0.00000322,-0.00001391,
 -0.00000549,0.00000235,0.00000326,-0.00000528,0.00000774,0.00000451,0.
 00001394,-0.00001405,-0.00003896,-0.00005350,-0.00000239,0.00000719,0.
 00000419,0.00001344,0.00000133,0.00000371,-0.00000143,-0.00000472,0.00
 000108,-0.00000115,-0.00001386,0.00005823,0.00000841,-0.00000304,-0.00
 000380,-0.00000468,0.00000767,-0.00000372,-0.00000133,0.00000351,0.000
 01506,0.00005830,0.00000380,-0.00005002,0.18807006,0.44510813,-0.00003
 734,-0.00000201,0.00000336,-0.00009314,-0.00012269,-0.00065967,-0.0000
 0300,-0.00017991,0.00187130,-0.00014133,0.00005447,-0.00069214,-0.0005
 3521,0.00017250,0.00421787,-0.00142801,-0.00214840,-0.00332292,-0.0007
 0630,0.00064612,0.00002911,0.00003417,0.00002710,-0.00059867,-0.004802
 37,-0.00669610,-0.00805171,0.00011358,0.00017474,-0.00002914,-0.000010
 07,0.00001218,0.00014884,0.00002053,-0.00002811,-0.00000659,-0.0000085
 2,0.00000922,0.00000522,-0.00001568,-0.00003022,-0.00048360,-0.0000874
 8,-0.00008879,-0.00000006,0.00002111,0.00003923,0.00001712,-0.00000297
 ,0.00000425,0.00000821,0.00002633,0.00003524,-0.00004916,-0.00000559,-
 0.00000271,0.00000536,0.00000367,0.00000036,-0.00000330,0.00000409,0.0
 0000144,-0.00000060,0.00000488,0.00000083,-0.00000104,0.00000976,0.000
 00111,-0.00000302,0.00000269,0.00000004,-0.00000061,-0.00000251,-0.000
 00030,0.00000292,-0.00000450,-0.00000051,-0.00000365,0.00000533,0.0000
 0927,0.00002468,0.00000237,-0.00000308,0.00000228,-0.00000111,-0.00000
 089,-0.00000481,-0.00000105,0.00001241,-0.00000116,-0.00000208,0.00000
 040,-0.00000900,0.00000019,0.00000178,0.00000125,0.00000280,-0.0000005
 5,0.00000483,-0.00000056,-0.00000116,0.00000247,0.00001776,-0.00000047
 ,0.00002527,-0.00000049,0.00000136,-0.00000487,0.00000150,0.00000236,-
 0.00000307,-0.00000474,-0.00000767,0.00000109,0.00000586,-0.00000410,-
 0.00000005,0.00761748,0.00811128,0.00755767\\-0.00000329,0.00005587,0.
 00001160,-0.00000064,-0.00000062,0.00000213,0.00000443,-0.00000072,-0.
 00000064,0.00000087,0.00000253,-0.00000145,-0.00000168,0.00000117,-0.0
 0000321,-0.00000790,0.00000212,-0.00002512,-0.00000087,0.00000176,-0.0
 0000270,0.00000102,0.00000110,-0.00001162,0.00000940,-0.00000530,-0.00
 000506,-0.00000552,-0.00002070,-0.00000617,-0.00000803,-0.00000172,0.0
 0000702,-0.00000293,0.00000302,0.00000245,-0.00000013,0.00000120,0.000
 00344,-0.00000459,0.00000445,-0.00000158,-0.00000591,0.00000302,-0.000
 00701,-0.00000111,-0.00000038,-0.00000845,0.00000858,0.00000943,0.0000
 0429,0.00000427,-0.00000755,-0.00000649,0.00000431,-0.00003203,0.00000
 460,-0.00000311,0.00000045,0.00000914,-0.00000418,0.00000073,0.0000105
 4,-0.00000266,0.00000223,0.00000566,0.00000084,-0.00000098,0.00001123,
 -0.00000156,-0.00000002,0.00000866,-0.00000190,0.00000215,0.00000998,-
 0.00000591,0.00000358,0.00000680,0.00000755,0.00000058,0.00000316,0.00
 000220,-0.00000353,0.00000570,0.00000263,-0.00000518,0.00000658,0.0000
 0269,-0.00000392,0.00000427,0.00000034,0.00000226,0.00000257,-0.000000
 67,0.00000001,-0.00000562,-0.00000004,0.00000089,-0.00000235,-0.000003
 65,0.00000208,-0.00000360,0.00000944,-0.00001059,-0.00001114,0.0000031
 6,-0.00000476,-0.00000296,0.00000386,-0.00000472,-0.00000595,0.0000040
 8,-0.00000353,-0.00000360,-0.00000030,0.00000239,0.00000194,-0.0000031
 2,0.00000324,-0.00000705\\\@
 The archive entry for this job was punched.


 NOBODY LOSES ALL THE TIME
 I HAD AN UNCLE NAMED
 SOL WHO WAS A BORN FAILURE AND
 NEARLY EVERYBODY SAID HE SHOULD HAVE GONE
 INTO VAUDEVILLE PERHAPS BECAUSE MY UNCLE SOL COULD
 SING MCCANN HE WAS A DIVER ON XMAS EVE LIKE HELL ITSELF WHICH
 MAY OR MAY NOT ACCOUNT FOR THE FACT THAT MY UNCLE
 SOL INDULGED IN THAT POSSIBLY MOST INEXCUSABLE
 OF ALL TO USE A HIGHFALOOTIN PHRASE
 LUXURIES THAT IS OR TO
 WIT FARMING AND BE
 IT NEEDLESSLY
 ADDED
 MY UNCLE SOL'S FARM     
 FAILED BECAUSE THE CHICKENS
 ATE THE VEGETABLES SO
 MY UNCLE SOL HAD A
 CHICKEN FARM TILL THE
 SKUNKS ATE THE CHICKENS WHEN 
 MY UNCLE SOL
 HAD A SKUNK FARM BUT
 THE SKUNKS CAUGHT COLD AND
 DIED AND SO
 MY UNCLE SOL IMITATED THE
 SKUNKS IN A SUBTLE MANNER
 OR BY DROWNING HIMSELF IN THE WATERTANK
 BUT SOMEBODY WHO'D GIVEN MY UNCLE SOL A VICTOR     
 VICTROLA AND RECORDS WHILE HE LIVED PRESENTED TO
 HIM UPON THE AUSPICIOUS OCCASION OF HIS DECEASE A
 SCRUMPTIOUS NOT TO MENTION SPLENDIFEROUS FUNERAL WITH
 TALL BOYS IN BLACK GLOVES AND FLOWERS AND EVERYTHING AND
 I REMEMBER WE ALL CRIED LIKE THE MISSOURI
 WHEN MY UNCLE SOL'S COFFIN LURCHED BECAUSE     
 SOMEBODY PRESSED A BUTTON
 (AND DOWN WENT
 MY UNCLE
 SOL
 AND STARTED A WORM FARM)
           E. E. CUMMINGS
 Job cpu time:       2 days  3 hours 47 minutes 43.5 seconds.
 Elapsed time:       0 days  8 hours 40 minutes 29.9 seconds.
 File lengths (MBytes):  RWF=   2018 Int=      0 D2E=      0 Chk=     72 Scr=      1
 Normal termination of Gaussian 16 at Fri Mar 29 18:05:47 2024.
