 Entering Gaussian System, Link 0=/cm/shared/apps//g16/g16
 Input=HZPtMe.gjf
 Output=HZPtMe.log
 Initial command:
 /cm/shared/apps//g16/l1.exe "/local/mvanvleet/pbs.15220.josephine/Gau-1448200.inp" -scrdir="/local/mvanvleet/pbs.15220.josephine/"
 Entering Link 1 = /cm/shared/apps//g16/l1.exe PID=   1448203.
  
 Copyright (c) 1988-2019, Gaussian, Inc.  All Rights Reserved.
  
 This is part of the Gaussian(R) 16 program.  It is based on
 the Gaussian(R) 09 system (copyright 2009, Gaussian, Inc.),
 the Gaussian(R) 03 system (copyright 2003, Gaussian, Inc.),
 the Gaussian(R) 98 system (copyright 1998, Gaussian, Inc.),
 the Gaussian(R) 94 system (copyright 1995, Gaussian, Inc.),
 the Gaussian 92(TM) system (copyright 1992, Gaussian, Inc.),
 the Gaussian 90(TM) system (copyright 1990, Gaussian, Inc.),
 the Gaussian 88(TM) system (copyright 1988, Gaussian, Inc.),
 the Gaussian 86(TM) system (copyright 1986, Carnegie Mellon
 University), and the Gaussian 82(TM) system (copyright 1983,
 Carnegie Mellon University). Gaussian is a federally registered
 trademark of Gaussian, Inc.
  
 This software contains proprietary and confidential information,
 including trade secrets, belonging to Gaussian, Inc.
  
 This software is provided under written license and may be
 used, copied, transmitted, or stored only in accord with that
 written license.
  
 The following legend is applicable only to US Government
 contracts under FAR:
  
                    RESTRICTED RIGHTS LEGEND
  
 Use, reproduction and disclosure by the US Government is
 subject to restrictions as set forth in subparagraphs (a)
 and (c) of the Commercial Computer Software - Restricted
 Rights clause in FAR 52.227-19.
  
 Gaussian, Inc.
 340 Quinnipiac St., Bldg. 40, Wallingford CT 06492
  
  
 ---------------------------------------------------------------
 Warning -- This program may not be used in any manner that
 competes with the business of Gaussian, Inc. or will provide
 assistance to any competitor of Gaussian, Inc.  The licensee
 of this program is prohibited from giving any competitor of
 Gaussian, Inc. access to this program.  By using this program,
 the user acknowledges that Gaussian, Inc. is engaged in the
 business of creating and licensing software in the field of
 computational chemistry and represents and warrants to the
 licensee that it is not a competitor of Gaussian, Inc. and that
 it will not use this program in any manner prohibited above.
 ---------------------------------------------------------------
  

 Cite this work as:
 Gaussian 16, Revision C.01,
 M. J. Frisch, G. W. Trucks, H. B. Schlegel, G. E. Scuseria, 
 M. A. Robb, J. R. Cheeseman, G. Scalmani, V. Barone, 
 G. A. Petersson, H. Nakatsuji, X. Li, M. Caricato, A. V. Marenich, 
 J. Bloino, B. G. Janesko, R. Gomperts, B. Mennucci, H. P. Hratchian, 
 J. V. Ortiz, A. F. Izmaylov, J. L. Sonnenberg, D. Williams-Young, 
 F. Ding, F. Lipparini, F. Egidi, J. Goings, B. Peng, A. Petrone, 
 T. Henderson, D. Ranasinghe, V. G. Zakrzewski, J. Gao, N. Rega, 
 G. Zheng, W. Liang, M. Hada, M. Ehara, K. Toyota, R. Fukuda, 
 J. Hasegawa, M. Ishida, T. Nakajima, Y. Honda, O. Kitao, H. Nakai, 
 T. Vreven, K. Throssell, J. A. Montgomery, Jr., J. E. Peralta, 
 F. Ogliaro, M. J. Bearpark, J. J. Heyd, E. N. Brothers, K. N. Kudin, 
 V. N. Staroverov, T. A. Keith, R. Kobayashi, J. Normand, 
 K. Raghavachari, A. P. Rendell, J. C. Burant, S. S. Iyengar, 
 J. Tomasi, M. Cossi, J. M. Millam, M. Klene, C. Adamo, R. Cammi, 
 J. W. Ochterski, R. L. Martin, K. Morokuma, O. Farkas, 
 J. B. Foresman, and D. J. Fox, Gaussian, Inc., Wallingford CT, 2019.
 
 ******************************************
 Gaussian 16:  ES64L-G16RevC.01  3-Jul-2019
                20-May-2024 
 ******************************************
 %nprocshared=48
 Will use up to   48 processors via shared memory.
 %chk=HZPtMe.chk
 %mem=16GB
 ----------------------------------------------------------
 # wb97xd def2TZVPP SCRF=(solvent=dichloromethane) opt freq
 ----------------------------------------------------------
 1/18=20,19=15,26=3,38=1/1,3;
 2/9=110,12=2,17=6,18=5,40=1/2;
 3/5=44,7=202,11=2,25=1,30=1,70=2201,71=1,72=9,74=-58/1,2,3;
 4//1;
 5/5=2,38=5,53=9/2;
 6/7=2,8=2,9=2,10=2,28=1/1;
 7//1,2,3,16;
 1/18=20,19=15,26=3/3(2);
 2/9=110/2;
 99//99;
 2/9=110/2;
 3/5=44,7=202,11=2,25=1,30=1,70=2205,71=1,72=9,74=-58/1,2,3;
 4/5=5,16=3,69=1/1;
 5/5=2,38=5,53=9/2;
 7//1,2,3,16;
 1/18=20,19=15,26=3/3(-5);
 2/9=110/2;
 6/7=2,8=2,9=2,10=2,19=2,28=1/1;
 99/9=1/99;
 ------
 HZPtMe
 ------
 Symbolic Z-matrix:
 Charge =  1 Multiplicity = 1
 Pt                   -0.90514   0.00001  -0.11853 
 C                     1.70073   1.20296  -0.29982 
 C                     1.70072  -1.20297  -0.29981 
 C                     3.02406   1.25088   0.00751 
 C                     3.02406  -1.25089   0.00752 
 C                     3.79103  -0.00001   0.21409 
 H                     3.5625    2.19872   0.09202 
 H                     3.56249  -2.19874   0.09204 
 O                     4.97741  -0.00001   0.52352 
 N                     1.03537  -0.00001  -0.42231 
 C                     0.7607    2.32837  -0.65663 
 H                     0.60673   2.32956  -1.75136 
 H                     1.12221   3.3244   -0.34499 
 C                     0.76069  -2.32838  -0.65661 
 H                     0.60673  -2.32958  -1.75134 
 H                     1.12219  -3.32441  -0.34496 
 N                    -0.60571   2.08398  -0.03534 
 N                    -0.60572  -2.08398  -0.03534 
 C                    -2.63302   0.00001   1.0826 
 H                    -2.17236   0.00014   2.0885 
 H                    -3.26747   0.89187   0.96792 
 H                    -3.26735  -0.89197   0.9681 
 C                    -1.62196   2.9085   -0.74205 
 H                    -2.59507   2.78195  -0.24552 
 H                    -1.32315   3.97208  -0.69984 
 H                    -1.68954   2.57948  -1.78907 
 C                    -0.54238   2.49493   1.39959 
 H                    -0.29882   3.57149   1.45285 
 H                    -1.51507   2.31695   1.87797 
 H                     0.24547   1.91526   1.9071 
 C                    -1.62197  -2.90849  -0.74207 
 H                    -1.32317  -3.97207  -0.69987 
 H                    -2.59509  -2.78194  -0.24555 
 H                    -1.68953  -2.57946  -1.78909 
 C                    -0.54242  -2.49494   1.39958 
 H                    -1.51513  -2.31702   1.87794 
 H                    -0.29882  -3.57149   1.45284 
 H                     0.24538  -1.91525   1.90713 
 H                     4.97741   0.99999   0.52352 
 

 GradGradGradGradGradGradGradGradGradGradGradGradGradGradGradGradGradGrad
 Berny optimization.
 Initialization pass.
                           ----------------------------
                           !    Initial Parameters    !
                           ! (Angstroms and Degrees)  !
 --------------------------                            --------------------------
 ! Name  Definition              Value          Derivative Info.                !
 --------------------------------------------------------------------------------
 ! R1    R(1,10)                 1.9641         estimate D2E/DX2                !
 ! R2    R(1,17)                 2.107          estimate D2E/DX2                !
 ! R3    R(1,18)                 2.107          estimate D2E/DX2                !
 ! R4    R(1,19)                 2.1043         estimate D2E/DX2                !
 ! R5    R(2,4)                  1.3594         estimate D2E/DX2                !
 ! R6    R(2,10)                 1.3802         estimate D2E/DX2                !
 ! R7    R(2,11)                 1.5091         estimate D2E/DX2                !
 ! R8    R(3,5)                  1.3594         estimate D2E/DX2                !
 ! R9    R(3,10)                 1.3801         estimate D2E/DX2                !
 ! R10   R(3,14)                 1.5091         estimate D2E/DX2                !
 ! R11   R(4,6)                  1.4818         estimate D2E/DX2                !
 ! R12   R(4,7)                  1.0934         estimate D2E/DX2                !
 ! R13   R(5,6)                  1.4818         estimate D2E/DX2                !
 ! R14   R(5,8)                  1.0934         estimate D2E/DX2                !
 ! R15   R(6,9)                  1.2261         estimate D2E/DX2                !
 ! R16   R(9,39)                 1.0            estimate D2E/DX2                !
 ! R17   R(11,12)                1.1055         estimate D2E/DX2                !
 ! R18   R(11,13)                1.1045         estimate D2E/DX2                !
 ! R19   R(11,17)                1.5208         estimate D2E/DX2                !
 ! R20   R(14,15)                1.1055         estimate D2E/DX2                !
 ! R21   R(14,16)                1.1045         estimate D2E/DX2                !
 ! R22   R(14,18)                1.5208         estimate D2E/DX2                !
 ! R23   R(17,23)                1.4873         estimate D2E/DX2                !
 ! R24   R(17,27)                1.494          estimate D2E/DX2                !
 ! R25   R(18,31)                1.4873         estimate D2E/DX2                !
 ! R26   R(18,35)                1.494          estimate D2E/DX2                !
 ! R27   R(19,20)                1.1064         estimate D2E/DX2                !
 ! R28   R(19,21)                1.1005         estimate D2E/DX2                !
 ! R29   R(19,22)                1.1005         estimate D2E/DX2                !
 ! R30   R(23,24)                1.0998         estimate D2E/DX2                !
 ! R31   R(23,25)                1.1056         estimate D2E/DX2                !
 ! R32   R(23,26)                1.0996         estimate D2E/DX2                !
 ! R33   R(27,28)                1.1051         estimate D2E/DX2                !
 ! R34   R(27,29)                1.0985         estimate D2E/DX2                !
 ! R35   R(27,30)                1.1019         estimate D2E/DX2                !
 ! R36   R(31,32)                1.1056         estimate D2E/DX2                !
 ! R37   R(31,33)                1.0998         estimate D2E/DX2                !
 ! R38   R(31,34)                1.0996         estimate D2E/DX2                !
 ! R39   R(35,36)                1.0985         estimate D2E/DX2                !
 ! R40   R(35,37)                1.1051         estimate D2E/DX2                !
 ! R41   R(35,38)                1.1019         estimate D2E/DX2                !
 ! A1    A(10,1,17)             82.2828         estimate D2E/DX2                !
 ! A2    A(10,1,18)             82.2819         estimate D2E/DX2                !
 ! A3    A(10,1,19)            154.0923         estimate D2E/DX2                !
 ! A4    A(17,1,18)            163.0369         estimate D2E/DX2                !
 ! A5    A(17,1,19)             95.4025         estimate D2E/DX2                !
 ! A6    A(18,1,19)             95.4022         estimate D2E/DX2                !
 ! A7    A(4,2,10)             121.3382         estimate D2E/DX2                !
 ! A8    A(4,2,11)             129.311          estimate D2E/DX2                !
 ! A9    A(10,2,11)            109.1909         estimate D2E/DX2                !
 ! A10   A(5,3,10)             121.3382         estimate D2E/DX2                !
 ! A11   A(5,3,14)             129.311          estimate D2E/DX2                !
 ! A12   A(10,3,14)            109.191          estimate D2E/DX2                !
 ! A13   A(2,4,6)              120.3733         estimate D2E/DX2                !
 ! A14   A(2,4,7)              121.8318         estimate D2E/DX2                !
 ! A15   A(6,4,7)              117.7845         estimate D2E/DX2                !
 ! A16   A(3,5,6)              120.3735         estimate D2E/DX2                !
 ! A17   A(3,5,8)              121.8312         estimate D2E/DX2                !
 ! A18   A(6,5,8)              117.785          estimate D2E/DX2                !
 ! A19   A(4,6,5)              115.1695         estimate D2E/DX2                !
 ! A20   A(4,6,9)              122.414          estimate D2E/DX2                !
 ! A21   A(5,6,9)              122.4141         estimate D2E/DX2                !
 ! A22   A(6,9,39)              90.0            estimate D2E/DX2                !
 ! A23   A(1,10,2)             117.5519         estimate D2E/DX2                !
 ! A24   A(1,10,3)             117.5528         estimate D2E/DX2                !
 ! A25   A(2,10,3)             121.294          estimate D2E/DX2                !
 ! A26   A(2,11,12)            108.7648         estimate D2E/DX2                !
 ! A27   A(2,11,13)            113.6977         estimate D2E/DX2                !
 ! A28   A(2,11,17)            110.0738         estimate D2E/DX2                !
 ! A29   A(12,11,13)           108.9065         estimate D2E/DX2                !
 ! A30   A(12,11,17)           106.2354         estimate D2E/DX2                !
 ! A31   A(13,11,17)           108.8889         estimate D2E/DX2                !
 ! A32   A(3,14,15)            108.7645         estimate D2E/DX2                !
 ! A33   A(3,14,16)            113.6981         estimate D2E/DX2                !
 ! A34   A(3,14,18)            110.074          estimate D2E/DX2                !
 ! A35   A(15,14,16)           108.9063         estimate D2E/DX2                !
 ! A36   A(15,14,18)           106.2353         estimate D2E/DX2                !
 ! A37   A(16,14,18)           108.8888         estimate D2E/DX2                !
 ! A38   A(1,17,11)            105.6938         estimate D2E/DX2                !
 ! A39   A(1,17,23)            115.6231         estimate D2E/DX2                !
 ! A40   A(1,17,27)            108.4219         estimate D2E/DX2                !
 ! A41   A(11,17,23)           109.3124         estimate D2E/DX2                !
 ! A42   A(11,17,27)           108.0651         estimate D2E/DX2                !
 ! A43   A(23,17,27)           109.4425         estimate D2E/DX2                !
 ! A44   A(1,18,14)            105.694          estimate D2E/DX2                !
 ! A45   A(1,18,31)            115.6229         estimate D2E/DX2                !
 ! A46   A(1,18,35)            108.4222         estimate D2E/DX2                !
 ! A47   A(14,18,31)           109.3123         estimate D2E/DX2                !
 ! A48   A(14,18,35)           108.0653         estimate D2E/DX2                !
 ! A49   A(31,18,35)           109.4422         estimate D2E/DX2                !
 ! A50   A(1,19,20)            100.1992         estimate D2E/DX2                !
 ! A51   A(1,19,21)            114.4497         estimate D2E/DX2                !
 ! A52   A(1,19,22)            114.4497         estimate D2E/DX2                !
 ! A53   A(20,19,21)           109.5539         estimate D2E/DX2                !
 ! A54   A(20,19,22)           109.5535         estimate D2E/DX2                !
 ! A55   A(21,19,22)           108.2832         estimate D2E/DX2                !
 ! A56   A(17,23,24)           109.0427         estimate D2E/DX2                !
 ! A57   A(17,23,25)           109.2994         estimate D2E/DX2                !
 ! A58   A(17,23,26)           109.1817         estimate D2E/DX2                !
 ! A59   A(24,23,25)           109.4274         estimate D2E/DX2                !
 ! A60   A(24,23,26)           109.9434         estimate D2E/DX2                !
 ! A61   A(25,23,26)           109.9273         estimate D2E/DX2                !
 ! A62   A(17,27,28)           108.8819         estimate D2E/DX2                !
 ! A63   A(17,27,29)           109.6444         estimate D2E/DX2                !
 ! A64   A(17,27,30)           109.1454         estimate D2E/DX2                !
 ! A65   A(28,27,29)           109.3917         estimate D2E/DX2                !
 ! A66   A(28,27,30)           109.4327         estimate D2E/DX2                !
 ! A67   A(29,27,30)           110.3216         estimate D2E/DX2                !
 ! A68   A(18,31,32)           109.2996         estimate D2E/DX2                !
 ! A69   A(18,31,33)           109.0428         estimate D2E/DX2                !
 ! A70   A(18,31,34)           109.1815         estimate D2E/DX2                !
 ! A71   A(32,31,33)           109.4273         estimate D2E/DX2                !
 ! A72   A(32,31,34)           109.927          estimate D2E/DX2                !
 ! A73   A(33,31,34)           109.9436         estimate D2E/DX2                !
 ! A74   A(18,35,36)           109.6452         estimate D2E/DX2                !
 ! A75   A(18,35,37)           108.882          estimate D2E/DX2                !
 ! A76   A(18,35,38)           109.1461         estimate D2E/DX2                !
 ! A77   A(36,35,37)           109.3907         estimate D2E/DX2                !
 ! A78   A(36,35,38)           110.3212         estimate D2E/DX2                !
 ! A79   A(37,35,38)           109.4325         estimate D2E/DX2                !
 ! D1    D(17,1,10,2)            7.0159         estimate D2E/DX2                !
 ! D2    D(17,1,10,3)          165.9266         estimate D2E/DX2                !
 ! D3    D(18,1,10,2)         -165.9272         estimate D2E/DX2                !
 ! D4    D(18,1,10,3)           -7.0166         estimate D2E/DX2                !
 ! D5    D(19,1,10,2)          -79.4568         estimate D2E/DX2                !
 ! D6    D(19,1,10,3)           79.4538         estimate D2E/DX2                !
 ! D7    D(10,1,17,11)          16.5381         estimate D2E/DX2                !
 ! D8    D(10,1,17,23)         137.5858         estimate D2E/DX2                !
 ! D9    D(10,1,17,27)         -99.1256         estimate D2E/DX2                !
 ! D10   D(18,1,17,11)          41.2004         estimate D2E/DX2                !
 ! D11   D(18,1,17,23)         162.2481         estimate D2E/DX2                !
 ! D12   D(18,1,17,27)         -74.4633         estimate D2E/DX2                !
 ! D13   D(19,1,17,11)         170.5592         estimate D2E/DX2                !
 ! D14   D(19,1,17,23)         -68.3932         estimate D2E/DX2                !
 ! D15   D(19,1,17,27)          54.8954         estimate D2E/DX2                !
 ! D16   D(10,1,18,14)         -16.5374         estimate D2E/DX2                !
 ! D17   D(10,1,18,31)        -137.5849         estimate D2E/DX2                !
 ! D18   D(10,1,18,35)          99.1268         estimate D2E/DX2                !
 ! D19   D(17,1,18,14)         -41.1997         estimate D2E/DX2                !
 ! D20   D(17,1,18,31)        -162.2472         estimate D2E/DX2                !
 ! D21   D(17,1,18,35)          74.4645         estimate D2E/DX2                !
 ! D22   D(19,1,18,14)        -170.5585         estimate D2E/DX2                !
 ! D23   D(19,1,18,31)          68.394          estimate D2E/DX2                !
 ! D24   D(19,1,18,35)         -54.8943         estimate D2E/DX2                !
 ! D25   D(10,1,19,20)           0.0082         estimate D2E/DX2                !
 ! D26   D(10,1,19,21)         117.0968         estimate D2E/DX2                !
 ! D27   D(10,1,19,22)        -117.08           estimate D2E/DX2                !
 ! D28   D(17,1,19,20)         -83.4449         estimate D2E/DX2                !
 ! D29   D(17,1,19,21)          33.6437         estimate D2E/DX2                !
 ! D30   D(17,1,19,22)         159.467          estimate D2E/DX2                !
 ! D31   D(18,1,19,20)          83.4588         estimate D2E/DX2                !
 ! D32   D(18,1,19,21)        -159.4526         estimate D2E/DX2                !
 ! D33   D(18,1,19,22)         -33.6294         estimate D2E/DX2                !
 ! D34   D(10,2,4,6)             0.2743         estimate D2E/DX2                !
 ! D35   D(10,2,4,7)           179.0805         estimate D2E/DX2                !
 ! D36   D(11,2,4,6)          -174.6079         estimate D2E/DX2                !
 ! D37   D(11,2,4,7)             4.1984         estimate D2E/DX2                !
 ! D38   D(4,2,10,1)           154.9861         estimate D2E/DX2                !
 ! D39   D(4,2,10,3)            -3.0929         estimate D2E/DX2                !
 ! D40   D(11,2,10,1)          -29.2048         estimate D2E/DX2                !
 ! D41   D(11,2,10,3)          172.7162         estimate D2E/DX2                !
 ! D42   D(4,2,11,12)          102.2646         estimate D2E/DX2                !
 ! D43   D(4,2,11,13)          -19.2588         estimate D2E/DX2                !
 ! D44   D(4,2,11,17)         -141.7253         estimate D2E/DX2                !
 ! D45   D(10,2,11,12)         -73.1081         estimate D2E/DX2                !
 ! D46   D(10,2,11,13)         165.3684         estimate D2E/DX2                !
 ! D47   D(10,2,11,17)          42.9019         estimate D2E/DX2                !
 ! D48   D(10,3,5,6)            -0.274          estimate D2E/DX2                !
 ! D49   D(10,3,5,8)          -179.0807         estimate D2E/DX2                !
 ! D50   D(14,3,5,6)           174.6079         estimate D2E/DX2                !
 ! D51   D(14,3,5,8)            -4.1988         estimate D2E/DX2                !
 ! D52   D(5,3,10,1)          -154.986          estimate D2E/DX2                !
 ! D53   D(5,3,10,2)             3.0928         estimate D2E/DX2                !
 ! D54   D(14,3,10,1)           29.2051         estimate D2E/DX2                !
 ! D55   D(14,3,10,2)         -172.7161         estimate D2E/DX2                !
 ! D56   D(5,3,14,15)         -102.264          estimate D2E/DX2                !
 ! D57   D(5,3,14,16)           19.2593         estimate D2E/DX2                !
 ! D58   D(5,3,14,18)          141.7261         estimate D2E/DX2                !
 ! D59   D(10,3,14,15)          73.1085         estimate D2E/DX2                !
 ! D60   D(10,3,14,16)        -165.3682         estimate D2E/DX2                !
 ! D61   D(10,3,14,18)         -42.9014         estimate D2E/DX2                !
 ! D62   D(2,4,6,5)              2.3165         estimate D2E/DX2                !
 ! D63   D(2,4,6,9)           -178.2238         estimate D2E/DX2                !
 ! D64   D(7,4,6,5)           -176.5371         estimate D2E/DX2                !
 ! D65   D(7,4,6,9)              2.9225         estimate D2E/DX2                !
 ! D66   D(3,5,6,4)             -2.3166         estimate D2E/DX2                !
 ! D67   D(3,5,6,9)            178.2237         estimate D2E/DX2                !
 ! D68   D(8,5,6,4)            176.5374         estimate D2E/DX2                !
 ! D69   D(8,5,6,9)             -2.9222         estimate D2E/DX2                !
 ! D70   D(4,6,9,39)             0.2899         estimate D2E/DX2                !
 ! D71   D(5,6,9,39)           179.7106         estimate D2E/DX2                !
 ! D72   D(2,11,17,1)          -35.8903         estimate D2E/DX2                !
 ! D73   D(2,11,17,23)        -160.9509         estimate D2E/DX2                !
 ! D74   D(2,11,17,27)          80.017          estimate D2E/DX2                !
 ! D75   D(12,11,17,1)          81.6988         estimate D2E/DX2                !
 ! D76   D(12,11,17,23)        -43.3618         estimate D2E/DX2                !
 ! D77   D(12,11,17,27)       -162.394          estimate D2E/DX2                !
 ! D78   D(13,11,17,1)        -161.1509         estimate D2E/DX2                !
 ! D79   D(13,11,17,23)         73.7886         estimate D2E/DX2                !
 ! D80   D(13,11,17,27)        -45.2436         estimate D2E/DX2                !
 ! D81   D(3,14,18,1)           35.8893         estimate D2E/DX2                !
 ! D82   D(3,14,18,31)         160.9497         estimate D2E/DX2                !
 ! D83   D(3,14,18,35)         -80.0184         estimate D2E/DX2                !
 ! D84   D(15,14,18,1)         -81.6994         estimate D2E/DX2                !
 ! D85   D(15,14,18,31)         43.3609         estimate D2E/DX2                !
 ! D86   D(15,14,18,35)        162.3928         estimate D2E/DX2                !
 ! D87   D(16,14,18,1)         161.1505         estimate D2E/DX2                !
 ! D88   D(16,14,18,31)        -73.7892         estimate D2E/DX2                !
 ! D89   D(16,14,18,35)         45.2427         estimate D2E/DX2                !
 ! D90   D(1,17,23,24)          64.8054         estimate D2E/DX2                !
 ! D91   D(1,17,23,25)        -175.6113         estimate D2E/DX2                !
 ! D92   D(1,17,23,26)         -55.3351         estimate D2E/DX2                !
 ! D93   D(11,17,23,24)       -176.119          estimate D2E/DX2                !
 ! D94   D(11,17,23,25)        -56.5358         estimate D2E/DX2                !
 ! D95   D(11,17,23,26)         63.7405         estimate D2E/DX2                !
 ! D96   D(27,17,23,24)        -57.9445         estimate D2E/DX2                !
 ! D97   D(27,17,23,25)         61.6387         estimate D2E/DX2                !
 ! D98   D(27,17,23,26)       -178.085          estimate D2E/DX2                !
 ! D99   D(1,17,27,28)         175.1752         estimate D2E/DX2                !
 ! D100  D(1,17,27,29)         -65.1761         estimate D2E/DX2                !
 ! D101  D(1,17,27,30)          55.7723         estimate D2E/DX2                !
 ! D102  D(11,17,27,28)         61.0624         estimate D2E/DX2                !
 ! D103  D(11,17,27,29)       -179.2888         estimate D2E/DX2                !
 ! D104  D(11,17,27,30)        -58.3404         estimate D2E/DX2                !
 ! D105  D(23,17,27,28)        -57.8871         estimate D2E/DX2                !
 ! D106  D(23,17,27,29)         61.7616         estimate D2E/DX2                !
 ! D107  D(23,17,27,30)       -177.29           estimate D2E/DX2                !
 ! D108  D(1,18,31,32)         175.6109         estimate D2E/DX2                !
 ! D109  D(1,18,31,33)         -64.8058         estimate D2E/DX2                !
 ! D110  D(1,18,31,34)          55.335          estimate D2E/DX2                !
 ! D111  D(14,18,31,32)         56.5353         estimate D2E/DX2                !
 ! D112  D(14,18,31,33)        176.1187         estimate D2E/DX2                !
 ! D113  D(14,18,31,34)        -63.7406         estimate D2E/DX2                !
 ! D114  D(35,18,31,32)        -61.6392         estimate D2E/DX2                !
 ! D115  D(35,18,31,33)         57.9442         estimate D2E/DX2                !
 ! D116  D(35,18,31,34)        178.085          estimate D2E/DX2                !
 ! D117  D(1,18,35,36)          65.1794         estimate D2E/DX2                !
 ! D118  D(1,18,35,37)        -175.1725         estimate D2E/DX2                !
 ! D119  D(1,18,35,38)         -55.7694         estimate D2E/DX2                !
 ! D120  D(14,18,35,36)        179.2926         estimate D2E/DX2                !
 ! D121  D(14,18,35,37)        -61.0593         estimate D2E/DX2                !
 ! D122  D(14,18,35,38)         58.3438         estimate D2E/DX2                !
 ! D123  D(31,18,35,36)        -61.758          estimate D2E/DX2                !
 ! D124  D(31,18,35,37)         57.8901         estimate D2E/DX2                !
 ! D125  D(31,18,35,38)        177.2932         estimate D2E/DX2                !
 --------------------------------------------------------------------------------
 Trust Radius=3.00D-01 FncErr=1.00D-07 GrdErr=1.00D-06 EigMax=2.50D+02 EigMin=1.00D-04
 Number of steps in this run=    234 maximum allowed number of steps=    234.
 GradGradGradGradGradGradGradGradGradGradGradGradGradGradGradGradGradGrad

                          Input orientation:                          
 ---------------------------------------------------------------------
 Center     Atomic      Atomic             Coordinates (Angstroms)
 Number     Number       Type             X           Y           Z
 ---------------------------------------------------------------------
      1         78           0       -0.905140    0.000010   -0.118530
      2          6           0        1.700730    1.202960   -0.299820
      3          6           0        1.700720   -1.202970   -0.299810
      4          6           0        3.024060    1.250880    0.007510
      5          6           0        3.024060   -1.250890    0.007520
      6          6           0        3.791030   -0.000010    0.214090
      7          1           0        3.562500    2.198720    0.092020
      8          1           0        3.562490   -2.198740    0.092040
      9          8           0        4.977410   -0.000010    0.523520
     10          7           0        1.035370   -0.000010   -0.422310
     11          6           0        0.760700    2.328370   -0.656630
     12          1           0        0.606730    2.329560   -1.751360
     13          1           0        1.122210    3.324400   -0.344990
     14          6           0        0.760690   -2.328380   -0.656610
     15          1           0        0.606730   -2.329580   -1.751340
     16          1           0        1.122190   -3.324410   -0.344960
     17          7           0       -0.605710    2.083980   -0.035340
     18          7           0       -0.605720   -2.083980   -0.035340
     19          6           0       -2.633020    0.000010    1.082600
     20          1           0       -2.172360    0.000140    2.088500
     21          1           0       -3.267470    0.891870    0.967920
     22          1           0       -3.267350   -0.891970    0.968100
     23          6           0       -1.621960    2.908500   -0.742050
     24          1           0       -2.595070    2.781950   -0.245520
     25          1           0       -1.323150    3.972080   -0.699840
     26          1           0       -1.689540    2.579480   -1.789070
     27          6           0       -0.542380    2.494930    1.399590
     28          1           0       -0.298820    3.571490    1.452850
     29          1           0       -1.515070    2.316950    1.877970
     30          1           0        0.245470    1.915260    1.907100
     31          6           0       -1.621970   -2.908490   -0.742070
     32          1           0       -1.323170   -3.972070   -0.699870
     33          1           0       -2.595090   -2.781940   -0.245550
     34          1           0       -1.689530   -2.579460   -1.789090
     35          6           0       -0.542420   -2.494940    1.399580
     36          1           0       -1.515130   -2.317020    1.877940
     37          1           0       -0.298820   -3.571490    1.452840
     38          1           0        0.245380   -1.915250    1.907130
     39          1           0        4.977410    0.999990    0.523520
 ---------------------------------------------------------------------
                    Distance matrix (angstroms):
                    1          2          3          4          5
     1  Pt   0.000000
     2  C    2.875850   0.000000
     3  C    2.875853   2.405930   0.000000
     4  C    4.125430   1.359393   2.804827   0.000000
     5  C    4.125440   2.804824   1.359403   2.501770   0.000000
     6  C    4.707935   2.465886   2.465888   1.481771   1.481761
     7  H    4.983820   2.147385   3.897595   1.093371   3.492401
     8  H    4.983830   3.897598   2.147392   3.492410   1.093376
     9  O    5.917484   3.586315   3.586319   2.376251   2.376243
    10  N    1.964144   1.380161   1.380148   2.388380   2.388377
    11  C    2.913046   1.509145   3.671692   2.593234   4.286607
    12  H    3.221597   2.138465   3.972730   3.178153   4.664415
    13  H    3.900385   2.199371   4.564405   2.835626   4.967351
    14  C    2.913060   3.671694   1.509142   4.286607   2.593241
    15  H    3.221616   3.972730   2.138458   4.664411   3.178151
    16  H    3.900398   4.564409   2.199373   4.967356   2.835637
    17  N    2.107014   2.483105   4.024128   3.724396   4.929343
    18  N    2.107033   4.024132   2.483101   4.929344   3.724403
    19  C    2.104348   4.705270   4.705265   5.892627   5.892631
    20  H    2.544961   4.706557   4.706617   5.735647   5.735707
    21  H    2.748889   5.136823   5.538809   6.374529   6.715440
    22  H    2.748896   5.538788   5.136734   6.715384   6.374432
    23  C    3.059726   3.760944   5.304712   4.989494   6.280755
    24  H    3.257481   4.577123   5.859722   5.829479   6.921160
    25  H    4.036086   4.119696   6.007076   5.177210   6.832131
    26  H    3.171696   3.950519   5.293268   5.216407   6.333837
    27  C    2.942942   3.096566   4.646926   4.025549   5.356167
    28  H    3.948712   3.560897   5.464929   4.302995   6.032069
    29  H    3.118692   4.040435   5.241552   5.023826   6.068918
    30  H    3.015835   2.737818   4.087978   3.430802   4.620982
    31  C    3.059742   5.304709   3.760939   6.280750   4.989501
    32  H    4.036103   6.007075   4.119693   6.832130   5.177222
    33  H    3.257501   5.859731   4.577125   6.921165   5.829494
    34  H    3.171704   5.293249   3.950503   6.333815   5.216401
    35  C    2.942958   4.646950   3.096577   5.356193   4.025577
    36  H    3.118751   5.241627   4.040469   6.068992   5.023878
    37  H    3.948726   5.464924   3.560875   6.032061   4.302983
    38  H    3.015828   4.088020   2.737872   4.621039   3.430883
    39  H    6.001382   3.384630   4.033312   2.035875   3.024615
                    6          7          8          9         10
     6  C    0.000000
     7  H    2.213942   0.000000
     8  H    2.213942   4.397460   0.000000
     9  O    1.226069   2.650014   2.650016   0.000000
    10  N    2.828191   3.389002   3.388998   4.053921   0.000000
    11  C    3.919491   2.902993   5.376361   4.959309   2.356205
    12  H    4.407908   3.485935   5.713155   5.450213   2.716064
    13  H    4.299636   2.722710   6.054010   5.164163   3.326443
    14  C    3.919488   5.376358   2.902993   4.959309   2.356194
    15  H    4.407899   5.713147   3.485927   5.450204   2.716054
    16  H    4.299637   6.054009   2.722713   5.164166   3.326433
    17  N    4.872017   4.171734   5.977609   5.985530   2.680654
    18  N    4.872018   5.977608   4.171735   5.985532   2.680644
    19  C    6.482494   6.648311   6.648312   7.630938   3.965077
    20  H    6.251035   6.458197   6.458284   7.319042   4.073536
    21  H    7.154448   7.008819   7.547674   8.304877   4.608972
    22  H    7.154359   7.547631   7.008698   8.304776   4.608930
    23  C    6.218850   5.298876   7.325171   7.322075   3.952603
    24  H    6.980889   6.194333   7.926964   8.103899   4.577188
    25  H    6.539694   5.257511   7.910472   7.547925   4.627865
    26  H    6.379895   5.591726   7.345324   7.513326   3.993361
    27  C    5.138928   4.318277   6.371043   6.120482   3.468911
    28  H    5.569292   4.318119   7.075102   6.438779   4.248753
    29  H    6.024242   5.383801   7.025854   7.025321   4.142986
    30  H    4.370988   3.791774   5.587670   5.289027   3.117427
    31  C    6.218848   7.325164   5.298878   7.322076   3.952589
    32  H    6.539696   7.910468   5.257518   7.547930   4.627852
    33  H    6.980898   7.926969   6.194343   8.103910   4.577185
    34  H    6.379877   7.345298   5.591718   7.513309   3.993336
    35  C    5.138954   6.371069   4.318296   6.120513   3.468916
    36  H    6.024306   7.025934   5.383833   7.025387   4.143035
    37  H    5.569277   7.075093   4.318094   6.438766   4.248732
    38  H    4.371060   5.587724   3.791851   5.289105   3.117454
    39  H    1.582164   1.903974   3.524209   1.000000   4.175437
                   11         12         13         14         15
    11  C    0.000000
    12  H    1.105505   0.000000
    13  H    1.104484   1.798139   0.000000
    14  C    4.656750   4.787336   5.672894   0.000000
    15  H    4.787337   4.659140   5.849020   1.105504   0.000000
    16  H    5.672895   5.849020   6.648810   1.104483   1.798135
    17  N    1.520791   2.115430   2.149473   4.660681   4.888167
    18  N    4.660680   4.888159   5.686141   1.520784   2.115422
    19  C    4.468055   4.894294   5.214531   4.468055   4.894301
    20  H    4.643192   5.281483   5.275108   4.643320   5.281601
    21  H    4.574806   4.946803   5.187507   5.406957   5.725517
    22  H    5.406988   5.725575   6.226574   4.574720   4.946774
    23  C    2.453756   2.514147   2.803765   5.754062   5.781281
    24  H    3.411149   3.567034   3.757967   6.127446   6.216652
    25  H    2.654445   2.743721   2.554446   6.636268   6.673905
    26  H    2.710932   2.310138   3.247493   5.601177   5.419700
    27  C    2.440041   3.358018   2.549988   5.402802   5.875773
    28  H    2.667927   3.553783   2.304910   6.354593   6.775654
    29  H    3.406385   4.204073   3.593293   5.760405   6.266113
    30  H    2.647420   3.699525   2.797545   4.984630   5.615457
    31  C    5.754052   5.781257   6.821812   2.453752   2.514133
    32  H    6.636259   6.673881   7.703525   2.654442   2.743698
    33  H    6.127445   6.216635   7.149517   3.411150   3.567027
    34  H    5.601151   5.419660   6.696781   2.710928   2.310124
    35  C    5.402818   5.875778   6.299146   2.440032   3.358003
    36  H    5.760477   6.266164   6.612307   3.406381   4.204060
    37  H    6.354588   6.775641   7.266692   2.667895   3.553749
    38  H    4.984650   5.615473   5.770165   2.647449   3.699547
    39  H    4.575805   5.103497   4.584731   5.500135   5.946753
                   16         17         18         19         20
    16  H    0.000000
    17  N    5.686140   0.000000
    18  N    2.149466   4.167960   0.000000
    19  C    5.214528   3.114917   3.114924   0.000000
    20  H    5.275265   3.362659   3.362828   1.106365   0.000000
    21  H    6.226539   3.084254   4.116689   1.100497   1.802817
    22  H    5.187384   4.116734   3.084162   1.100506   1.802820
    23  C    6.821818   1.487292   5.143641   3.579232   4.095548
    24  H    7.149513   2.118700   5.261080   3.082942   3.655790
    25  H    7.703531   2.126312   6.134503   4.546448   4.926693
    26  H    6.696805   2.120325   5.098833   3.973702   4.682057
    27  C    6.299124   1.493959   4.798901   3.270456   3.058661
    28  H    7.266693   2.126400   5.856043   4.282645   4.082737
    29  H    6.612224   2.131189   4.884246   2.692701   2.417429
    30  H    5.770143   2.127451   4.526756   3.554390   3.089740
    31  C    2.803765   5.143638   1.487296   3.579248   4.095752
    32  H    2.554449   6.134500   2.126316   4.546463   4.926924
    33  H    3.757968   5.261083   2.118709   3.082964   3.656017
    34  H    3.247496   5.098821   2.120326   3.973719   4.682218
    35  C    2.549974   4.798907   1.493951   3.270453   3.058879
    36  H    3.593268   4.884310   2.131191   2.692744   2.417750
    37  H    2.304865   5.856040   2.126394   4.282660   4.082984
    38  H    2.797577   4.526741   2.127447   3.554329   3.089835
    39  H    5.858107   5.714769   6.402698   7.696179   7.387021
                   21         22         23         24         25
    21  H    0.000000
    22  H    1.783840   0.000000
    23  C    3.114241   4.480568   0.000000
    24  H    2.344560   3.927152   1.099773   0.000000
    25  H    4.006182   5.497356   1.105564   1.800166   0.000000
    26  H    3.597066   4.705575   1.099578   1.800979   1.805547
    27  C    3.190965   4.368379   2.433753   2.646187   2.683129
    28  H    4.028449   5.382344   2.647233   2.963207   2.417395
    29  H    2.435149   3.767694   2.688096   2.427310   3.069429
    30  H    3.777583   4.593709   3.389958   3.667914   3.672494
    31  C    4.480454   3.114211   5.816990   5.794359   6.887185
    32  H    5.497248   4.006117   6.887184   6.887739   7.944150
    33  H    3.927020   2.344540   5.794359   5.563890   6.887743
    34  H    4.705436   3.597115   5.587357   5.652197   6.651569
    35  C    4.368376   3.190757   5.911781   5.896210   6.843935
    36  H    3.767732   2.434923   5.846522   5.628041   6.799602
    37  H    5.382343   4.028271   6.968394   6.965873   7.911304
    38  H    4.593708   3.777321   5.811512   5.896248   6.627008
    39  H    8.257556   8.470728   6.985396   7.817241   7.072976
                   26         27         28         29         30
    26  H    0.000000
    27  C    3.389790   0.000000
    28  H    3.664455   1.105052   0.000000
    29  H    3.680563   1.098476   1.798294   0.000000
    30  H    4.224586   1.101949   1.801581   1.806019   0.000000
    31  C    5.587360   5.911782   6.968396   5.846474   5.811540
    32  H    6.651571   6.843936   7.911308   6.799548   6.627034
    33  H    5.652194   5.896224   6.965881   5.628007   5.896301
    34  H    5.158940   6.101890   7.090729   6.119853   6.132581
    35  C    6.101894   4.989870   6.071553   4.932463   4.508682
    36  H    6.119893   4.932537   6.027824   4.633970   4.583967
    37  H    7.090734   6.071541   7.142980   6.027746   5.532362
    38  H    6.132569   4.508642   5.532345   4.583836   3.830510
    39  H    7.231257   5.785363   5.942632   6.761746   5.014306
                   31         32         33         34         35
    31  C    0.000000
    32  H    1.105561   0.000000
    33  H    1.099777   1.800166   0.000000
    34  H    1.099580   1.805542   1.800987   0.000000
    35  C    2.433745   2.683128   2.646181   3.389782   0.000000
    36  H    2.688067   3.069388   2.427277   3.680543   1.098476
    37  H    2.647249   2.417420   2.963237   3.664466   1.105051
    38  H    3.389953   3.672507   3.667895   4.224582   1.101942
    39  H    7.773657   8.118828   8.499248   7.912567   6.591702
                   36         37         38         39
    36  H    0.000000
    37  H    1.798281   0.000000
    38  H    1.806008   1.801573   0.000000
    39  H    7.415530   7.042774   5.727574   0.000000
 Stoichiometry    C12H22N3OPt(1+)
 Framework group  C1[X(C12H22N3OPt)]
 Deg. of freedom   111
 Full point group                 C1      NOp   1
 Largest Abelian subgroup         C1      NOp   1
 Largest concise Abelian subgroup C1      NOp   1
                         Standard orientation:                         
 ---------------------------------------------------------------------
 Center     Atomic      Atomic             Coordinates (Angstroms)
 Number     Number       Type             X           Y           Z
 ---------------------------------------------------------------------
      1         78           0       -0.941401    0.017170   -0.124004
      2          6           0        1.692005    1.157849   -0.309861
      3          6           0        1.635026   -1.247405   -0.306777
      4          6           0        3.016464    1.174803   -0.004131
      5          6           0        2.957226   -1.326264   -0.000926
      6          6           0        3.753846   -0.093639    0.203154
      7          1           0        3.577297    2.109732    0.078542
      8          1           0        3.473162   -2.286491    0.084179
      9          8           0        4.940261   -0.121346    0.511204
     10          7           0        0.998201   -0.029180   -0.430040
     11          6           0        0.778461    2.304756   -0.667015
     12          1           0        0.623257    2.308224   -1.761565
     13          1           0        1.163826    3.292335   -0.357068
     14          6           0        0.668187   -2.350684   -0.661046
     15          1           0        0.512936   -2.349606   -1.755594
     16          1           0        1.006373   -3.354605   -0.348545
     17          7           0       -0.592610    2.093568   -0.043824
     18          7           0       -0.691311   -2.073220   -0.038500
     19          6           0       -2.667362    0.059587    1.079134
     20          1           0       -2.205629    0.050065    2.084496
     21          1           0       -3.280653    0.966076    0.964052
     22          1           0       -3.322771   -0.817265    0.966511
     23          6           0       -1.589894    2.941037   -0.750405
     24          1           0       -2.565135    2.838186   -0.252582
     25          1           0       -1.265934    3.997295   -0.709901
     26          1           0       -1.666495    2.612402   -1.796924
     27          6           0       -0.517856    2.504695    1.390505
     28          1           0       -0.248810    3.575252    1.442107
     29          1           0       -1.493916    2.350396    1.870243
     30          1           0        0.256652    1.907166    1.897839
     31          6           0       -1.727641   -2.874317   -0.742994
     32          1           0       -1.454059   -3.944620   -0.699783
     33          1           0       -2.696899   -2.724139   -0.245505
     34          1           0       -1.788640   -2.545088   -1.790354
     35          6           0       -0.636048   -2.483771    1.396869
     36          1           0       -1.603701   -2.282269    1.876132
     37          1           0       -0.417944   -3.565720    1.451221
     38          1           0        0.165862   -1.922265    1.902761
     39          1           0        4.963940    0.878373    0.509927
 ---------------------------------------------------------------------
 Rotational constants (GHZ):           0.5249636           0.3476806           0.2356876
 Standard basis: def2TZVPP (5D, 7F)
 There are   977 symmetry adapted cartesian basis functions of A   symmetry.
 There are   860 symmetry adapted basis functions of A   symmetry.
   860 basis functions,  1290 primitive gaussians,   977 cartesian basis functions
    70 alpha electrons       70 beta electrons
       nuclear repulsion energy      1556.9018023689 Hartrees.
 NAtoms=   39 NActive=   39 NUniq=   39 SFac= 1.00D+00 NAtFMM=   60 NAOKFM=F Big=F
 Integral buffers will be    131072 words long.
 Raffenetti 2 integral format.
 Two-electron integral symmetry is turned on.
 Nuclear repulsion after empirical dispersion term =     1556.8583794844 Hartrees.
 ------------------------------------------------------------------------------
 Polarizable Continuum Model (PCM)
 =================================
 Model                : PCM.
 Atomic radii         : UFF (Universal Force Field).
 Polarization charges : Total charges.
 Charge compensation  : None.
 Solution method      : On-the-fly selection.
 Cavity type          : Scaled VdW (van der Waals Surface) (Alpha=1.100).
 Cavity algorithm     : GePol (No added spheres)
                        Default sphere list used, NSphG=   39.
                        Lebedev-Laikov grids with approx.  5.0 points / Ang**2.
                        Smoothing algorithm: York/Karplus (Gamma=1.0000).
                        Polarization charges: spherical gaussians, with
                                              point-specific exponents (IZeta= 3).
                        Self-potential: point-specific (ISelfS= 7).
                        Self-field    : sphere-specific E.n sum rule (ISelfD= 2).
 1st derivatives      : Analytical E(r).r(x)/FMM algorithm (CHGder, D1EAlg=3).
                        Cavity 1st derivative terms included.
 Solvent              : Dichloromethane, Eps=   8.930000 Eps(inf)=   2.028346
 ------------------------------------------------------------------------------
 One-electron integrals computed using PRISM.
   1 Symmetry operations used in ECPInt.
 ECPInt:  NShTT=   52650 NPrTT=  135893 LenC2=   47643 LenP2D=   93856.
 LDataN:  DoStor=T MaxTD1= 9 Len=  602
 Number of processors reduced to  40 by ecpmxn.
 NBasis=   860 RedAO= T EigKep=  2.00D-05  NBF=   860
 NBsUse=   860 1.00D-06 EigRej= -1.00D+00 NBFU=   860
 Defaulting to unpruned grid for atomic number  78.
 ExpMin= 4.92D-02 ExpMax= 2.70D+04 ExpMxC= 9.22D+02 IAcc=3 IRadAn=         5 AccDes= 0.00D+00
 Harris functional with IExCor= 4639 and IRadAn=       5 diagonalized for initial guess.
 HarFok:  IExCor= 4639 AccDes= 0.00D+00 IRadAn=         5 IDoV= 1 UseB2=F ITyADJ=14
 ICtDFT=  3500011 ScaDFX=  1.000000  1.000000  1.000000  1.000000
 Defaulting to unpruned grid for atomic number  78.
 FoFCou: FMM=F IPFlag=           0 FMFlag=      100000 FMFlg1=           0
         NFxFlg=           0 DoJE=T BraDBF=F KetDBF=T FulRan=T
         wScrn=  0.000000 ICntrl=       500 IOpCl=  0 I1Cent=   200000004 NGrid=           0
         NMat0=    1 NMatS0=      1 NMatT0=    0 NMatD0=    1 NMtDS0=    0 NMtDT0=    0
 Petite list used in FoFCou.
 Requested convergence on RMS density matrix=1.00D-08 within 128 cycles.
 Requested convergence on MAX density matrix=1.00D-06.
 Requested convergence on             energy=1.00D-06.
 No special actions if energy rises.
 Defaulting to unpruned grid for atomic number  78.
 Defaulting to unpruned grid for atomic number  78.
 Defaulting to unpruned grid for atomic number  78.
 Defaulting to unpruned grid for atomic number  78.
 Defaulting to unpruned grid for atomic number  78.
 Defaulting to unpruned grid for atomic number  78.
 Defaulting to unpruned grid for atomic number  78.
 Defaulting to unpruned grid for atomic number  78.
 Defaulting to unpruned grid for atomic number  78.
 Defaulting to unpruned grid for atomic number  78.
 Defaulting to unpruned grid for atomic number  78.
 Defaulting to unpruned grid for atomic number  78.
 Defaulting to unpruned grid for atomic number  78.
 Defaulting to unpruned grid for atomic number  78.
 Defaulting to unpruned grid for atomic number  78.
 Defaulting to unpruned grid for atomic number  78.
 Defaulting to unpruned grid for atomic number  78.
 Defaulting to unpruned grid for atomic number  78.
 Defaulting to unpruned grid for atomic number  78.
 Defaulting to unpruned grid for atomic number  78.
 Defaulting to unpruned grid for atomic number  78.
 Defaulting to unpruned grid for atomic number  78.
 Defaulting to unpruned grid for atomic number  78.
 Defaulting to unpruned grid for atomic number  78.
 Defaulting to unpruned grid for atomic number  78.
 Defaulting to unpruned grid for atomic number  78.
 Defaulting to unpruned grid for atomic number  78.
 Defaulting to unpruned grid for atomic number  78.
 Defaulting to unpruned grid for atomic number  78.
 Defaulting to unpruned grid for atomic number  78.
 Defaulting to unpruned grid for atomic number  78.
 Defaulting to unpruned grid for atomic number  78.
 Defaulting to unpruned grid for atomic number  78.
 Defaulting to unpruned grid for atomic number  78.
 Defaulting to unpruned grid for atomic number  78.
 Defaulting to unpruned grid for atomic number  78.
 Defaulting to unpruned grid for atomic number  78.
 Defaulting to unpruned grid for atomic number  78.
 Defaulting to unpruned grid for atomic number  78.
 Defaulting to unpruned grid for atomic number  78.
 Defaulting to unpruned grid for atomic number  78.
 Defaulting to unpruned grid for atomic number  78.
 Defaulting to unpruned grid for atomic number  78.
 Defaulting to unpruned grid for atomic number  78.
 Defaulting to unpruned grid for atomic number  78.
 Defaulting to unpruned grid for atomic number  78.
 Defaulting to unpruned grid for atomic number  78.
 Defaulting to unpruned grid for atomic number  78.
 Inv3:  Mode=1 IEnd=    18825075.
 Iteration    1 A*A^-1 deviation from unit magnitude is 3.33D-15 for   1807.
 Iteration    1 A*A^-1 deviation from orthogonality  is 1.90D-15 for   1001    730.
 Iteration    1 A^-1*A deviation from unit magnitude is 3.44D-15 for   2162.
 Iteration    1 A^-1*A deviation from orthogonality  is 1.67D-15 for   2361    560.
 Error on total polarization charges =  0.01925
 SCF Done:  E(RwB97XD) =  -829.310642840     A.U. after   18 cycles
            NFock= 18  Conv=0.23D-08     -V/T= 2.1116

 **********************************************************************

            Population analysis using the SCF Density.

 **********************************************************************

 Orbital symmetries:
       Occupied  (A) (A) (A) (A) (A) (A) (A) (A) (A) (A) (A) (A)
                 (A) (A) (A) (A) (A) (A) (A) (A) (A) (A) (A) (A)
                 (A) (A) (A) (A) (A) (A) (A) (A) (A) (A) (A) (A)
                 (A) (A) (A) (A) (A) (A) (A) (A) (A) (A) (A) (A)
                 (A) (A) (A) (A) (A) (A) (A) (A) (A) (A) (A) (A)
                 (A) (A) (A) (A) (A) (A) (A) (A) (A) (A)
       Virtual   (A) (A) (A) (A) (A) (A) (A) (A) (A) (A) (A) (A)
                 (A) (A) (A) (A) (A) (A) (A) (A) (A) (A) (A) (A)
                 (A) (A) (A) (A) (A) (A) (A) (A) (A) (A) (A) (A)
                 (A) (A) (A) (A) (A) (A) (A) (A) (A) (A) (A) (A)
                 (A) (A) (A) (A) (A) (A) (A) (A) (A) (A) (A) (A)
                 (A) (A) (A) (A) (A) (A) (A) (A) (A) (A) (A) (A)
                 (A) (A) (A) (A) (A) (A) (A) (A) (A) (A) (A) (A)
                 (A) (A) (A) (A) (A) (A) (A) (A) (A) (A) (A) (A)
                 (A) (A) (A) (A) (A) (A) (A) (A) (A) (A) (A) (A)
                 (A) (A) (A) (A) (A) (A) (A) (A) (A) (A) (A) (A)
                 (A) (A) (A) (A) (A) (A) (A) (A) (A) (A) (A) (A)
                 (A) (A) (A) (A) (A) (A) (A) (A) (A) (A) (A) (A)
                 (A) (A) (A) (A) (A) (A) (A) (A) (A) (A) (A) (A)
                 (A) (A) (A) (A) (A) (A) (A) (A) (A) (A) (A) (A)
                 (A) (A) (A) (A) (A) (A) (A) (A) (A) (A) (A) (A)
                 (A) (A) (A) (A) (A) (A) (A) (A) (A) (A) (A) (A)
                 (A) (A) (A) (A) (A) (A) (A) (A) (A) (A) (A) (A)
                 (A) (A) (A) (A) (A) (A) (A) (A) (A) (A) (A) (A)
                 (A) (A) (A) (A) (A) (A) (A) (A) (A) (A) (A) (A)
                 (A) (A) (A) (A) (A) (A) (A) (A) (A) (A) (A) (A)
                 (A) (A) (A) (A) (A) (A) (A) (A) (A) (A) (A) (A)
                 (A) (A) (A) (A) (A) (A) (A) (A) (A) (A) (A) (A)
                 (A) (A) (A) (A) (A) (A) (A) (A) (A) (A) (A) (A)
                 (A) (A) (A) (A) (A) (A) (A) (A) (A) (A) (A) (A)
                 (A) (A) (A) (A) (A) (A) (A) (A) (A) (A) (A) (A)
                 (A) (A) (A) (A) (A) (A) (A) (A) (A) (A) (A) (A)
                 (A) (A) (A) (A) (A) (A) (A) (A) (A) (A) (A) (A)
                 (A) (A) (A) (A) (A) (A) (A) (A) (A) (A) (A) (A)
                 (A) (A) (A) (A) (A) (A) (A) (A) (A) (A) (A) (A)
                 (A) (A) (A) (A) (A) (A) (A) (A) (A) (A) (A) (A)
                 (A) (A) (A) (A) (A) (A) (A) (A) (A) (A) (A) (A)
                 (A) (A) (A) (A) (A) (A) (A) (A) (A) (A) (A) (A)
                 (A) (A) (A) (A) (A) (A) (A) (A) (A) (A) (A) (A)
                 (A) (A) (A) (A) (A) (A) (A) (A) (A) (A) (A) (A)
                 (A) (A) (A) (A) (A) (A) (A) (A) (A) (A) (A) (A)
                 (A) (A) (A) (A) (A) (A) (A) (A) (A) (A) (A) (A)
                 (A) (A) (A) (A) (A) (A) (A) (A) (A) (A) (A) (A)
                 (A) (A) (A) (A) (A) (A) (A) (A) (A) (A) (A) (A)
                 (A) (A) (A) (A) (A) (A) (A) (A) (A) (A) (A) (A)
                 (A) (A) (A) (A) (A) (A) (A) (A) (A) (A) (A) (A)
                 (A) (A) (A) (A) (A) (A) (A) (A) (A) (A) (A) (A)
                 (A) (A) (A) (A) (A) (A) (A) (A) (A) (A) (A) (A)
                 (A) (A) (A) (A) (A) (A) (A) (A) (A) (A) (A) (A)
                 (A) (A) (A) (A) (A) (A) (A) (A) (A) (A) (A) (A)
                 (A) (A) (A) (A) (A) (A) (A) (A) (A) (A) (A) (A)
                 (A) (A) (A) (A) (A) (A) (A) (A) (A) (A) (A) (A)
                 (A) (A) (A) (A) (A) (A) (A) (A) (A) (A) (A) (A)
                 (A) (A) (A) (A) (A) (A) (A) (A) (A) (A) (A) (A)
                 (A) (A) (A) (A) (A) (A) (A) (A) (A) (A) (A) (A)
                 (A) (A) (A) (A) (A) (A) (A) (A) (A) (A) (A) (A)
                 (A) (A) (A) (A) (A) (A) (A) (A) (A) (A) (A) (A)
                 (A) (A) (A) (A) (A) (A) (A) (A) (A) (A) (A) (A)
                 (A) (A) (A) (A) (A) (A) (A) (A) (A) (A) (A) (A)
                 (A) (A) (A) (A) (A) (A) (A) (A) (A) (A) (A) (A)
                 (A) (A) (A) (A) (A) (A) (A) (A) (A) (A) (A) (A)
                 (A) (A) (A) (A) (A) (A) (A) (A) (A) (A) (A) (A)
                 (A) (A) (A) (A) (A) (A) (A) (A) (A) (A) (A) (A)
                 (A) (A) (A) (A) (A) (A) (A) (A) (A) (A) (A) (A)
                 (A) (A) (A) (A) (A) (A) (A) (A) (A) (A) (A) (A)
                 (A) (A) (A) (A) (A) (A) (A) (A) (A) (A) (A) (A)
                 (A) (A) (A) (A) (A) (A) (A) (A) (A) (A) (A) (A)
                 (A) (A) (A) (A) (A) (A) (A) (A) (A) (A) (A) (A)
                 (A) (A) (A) (A) (A) (A) (A) (A) (A) (A) (A) (A)
                 (A) (A) (A) (A) (A) (A) (A) (A) (A) (A) (A) (A)
                 (A) (A) (A) (A) (A) (A) (A) (A) (A) (A) (A) (A)
                 (A) (A) (A) (A) (A) (A) (A) (A) (A) (A)
 The electronic state is 1-A.
 Alpha  occ. eigenvalues --  -19.35505 -14.53494 -14.53433 -14.50041 -10.42756
 Alpha  occ. eigenvalues --  -10.38150 -10.37849 -10.36584 -10.36443 -10.33800
 Alpha  occ. eigenvalues --  -10.33726 -10.33720 -10.33674 -10.33668 -10.33158
 Alpha  occ. eigenvalues --  -10.25943  -4.03444  -2.28199  -2.27713  -2.24993
 Alpha  occ. eigenvalues --   -1.29400  -1.10617  -1.08099  -1.06770  -0.94148
 Alpha  occ. eigenvalues --   -0.91775  -0.85962  -0.84479  -0.83912  -0.83858
 Alpha  occ. eigenvalues --   -0.77594  -0.76120  -0.75924  -0.73336  -0.72772
 Alpha  occ. eigenvalues --   -0.69565  -0.65422  -0.62923  -0.62084  -0.60787
 Alpha  occ. eigenvalues --   -0.60568  -0.60120  -0.59194  -0.58740  -0.58538
 Alpha  occ. eigenvalues --   -0.56027  -0.54714  -0.53869  -0.53147  -0.51663
 Alpha  occ. eigenvalues --   -0.51553  -0.50219  -0.50087  -0.49770  -0.49361
 Alpha  occ. eigenvalues --   -0.48505  -0.48363  -0.47801  -0.46913  -0.46583
 Alpha  occ. eigenvalues --   -0.46228  -0.45781  -0.40608  -0.39022  -0.38222
 Alpha  occ. eigenvalues --   -0.35536  -0.34969  -0.34139  -0.31860  -0.28953
 Alpha virt. eigenvalues --   -0.00793   0.01228   0.05093   0.07095   0.08608
 Alpha virt. eigenvalues --    0.09392   0.10384   0.11210   0.12006   0.13490
 Alpha virt. eigenvalues --    0.13552   0.13705   0.13912   0.14311   0.15281
 Alpha virt. eigenvalues --    0.15433   0.15889   0.16134   0.16402   0.16988
 Alpha virt. eigenvalues --    0.17435   0.18100   0.18957   0.19909   0.20076
 Alpha virt. eigenvalues --    0.20457   0.20708   0.20863   0.21016   0.21222
 Alpha virt. eigenvalues --    0.22144   0.22728   0.23175   0.24073   0.24475
 Alpha virt. eigenvalues --    0.25295   0.25408   0.26531   0.27163   0.27981
 Alpha virt. eigenvalues --    0.28413   0.28628   0.29029   0.29654   0.30148
 Alpha virt. eigenvalues --    0.30597   0.30830   0.31398   0.32085   0.33545
 Alpha virt. eigenvalues --    0.34050   0.34526   0.34733   0.35278   0.35782
 Alpha virt. eigenvalues --    0.36740   0.37156   0.37509   0.37815   0.38279
 Alpha virt. eigenvalues --    0.38904   0.39594   0.39960   0.40889   0.41053
 Alpha virt. eigenvalues --    0.41814   0.42644   0.43046   0.43262   0.44130
 Alpha virt. eigenvalues --    0.44304   0.44485   0.45238   0.45635   0.45918
 Alpha virt. eigenvalues --    0.45999   0.46359   0.47729   0.48323   0.48554
 Alpha virt. eigenvalues --    0.48669   0.49239   0.49716   0.49927   0.50160
 Alpha virt. eigenvalues --    0.50339   0.50508   0.50605   0.51496   0.51867
 Alpha virt. eigenvalues --    0.52056   0.52831   0.53127   0.53486   0.53971
 Alpha virt. eigenvalues --    0.54071   0.54891   0.55706   0.56027   0.56419
 Alpha virt. eigenvalues --    0.57413   0.57603   0.58002   0.58403   0.58892
 Alpha virt. eigenvalues --    0.59633   0.60827   0.61334   0.61922   0.62575
 Alpha virt. eigenvalues --    0.63446   0.63648   0.64116   0.65304   0.65698
 Alpha virt. eigenvalues --    0.66578   0.66911   0.67932   0.68788   0.68869
 Alpha virt. eigenvalues --    0.69570   0.70129   0.71593   0.71851   0.72437
 Alpha virt. eigenvalues --    0.72896   0.73629   0.74568   0.75553   0.75708
 Alpha virt. eigenvalues --    0.76410   0.78214   0.79044   0.80400   0.81759
 Alpha virt. eigenvalues --    0.82564   0.83671   0.83931   0.84364   0.85056
 Alpha virt. eigenvalues --    0.85474   0.85946   0.86563   0.87505   0.87936
 Alpha virt. eigenvalues --    0.88668   0.89317   0.89434   0.90134   0.90704
 Alpha virt. eigenvalues --    0.92297   0.92443   0.93935   0.94154   0.95093
 Alpha virt. eigenvalues --    0.95221   0.96187   0.96836   0.97855   0.98634
 Alpha virt. eigenvalues --    0.98938   0.99841   1.01099   1.01343   1.02102
 Alpha virt. eigenvalues --    1.02305   1.02668   1.03071   1.03521   1.04480
 Alpha virt. eigenvalues --    1.04769   1.05137   1.05659   1.06548   1.07069
 Alpha virt. eigenvalues --    1.07628   1.08146   1.08565   1.09140   1.09676
 Alpha virt. eigenvalues --    1.09760   1.10381   1.10944   1.12645   1.12999
 Alpha virt. eigenvalues --    1.14240   1.14803   1.15195   1.16092   1.17514
 Alpha virt. eigenvalues --    1.18210   1.18366   1.18950   1.19144   1.20116
 Alpha virt. eigenvalues --    1.20983   1.21114   1.21510   1.22674   1.23144
 Alpha virt. eigenvalues --    1.23910   1.24387   1.25133   1.26086   1.26922
 Alpha virt. eigenvalues --    1.27709   1.27884   1.28046   1.28884   1.29802
 Alpha virt. eigenvalues --    1.30233   1.30731   1.31252   1.32339   1.33061
 Alpha virt. eigenvalues --    1.33140   1.35382   1.35688   1.36471   1.36943
 Alpha virt. eigenvalues --    1.37482   1.37829   1.38059   1.39004   1.39223
 Alpha virt. eigenvalues --    1.39765   1.40669   1.41330   1.41809   1.42545
 Alpha virt. eigenvalues --    1.43428   1.43725   1.44721   1.45530   1.45580
 Alpha virt. eigenvalues --    1.45681   1.46819   1.47299   1.47885   1.48826
 Alpha virt. eigenvalues --    1.50423   1.50779   1.50962   1.51905   1.53162
 Alpha virt. eigenvalues --    1.53604   1.53868   1.54039   1.54672   1.55587
 Alpha virt. eigenvalues --    1.56441   1.56920   1.57533   1.58483   1.59269
 Alpha virt. eigenvalues --    1.59406   1.60076   1.60709   1.61063   1.61196
 Alpha virt. eigenvalues --    1.62012   1.62775   1.64062   1.64924   1.65422
 Alpha virt. eigenvalues --    1.66052   1.66142   1.66470   1.66854   1.67327
 Alpha virt. eigenvalues --    1.68783   1.69816   1.70695   1.71103   1.71732
 Alpha virt. eigenvalues --    1.72784   1.73688   1.74318   1.74933   1.75924
 Alpha virt. eigenvalues --    1.76595   1.78774   1.79965   1.80717   1.81640
 Alpha virt. eigenvalues --    1.81852   1.82022   1.82494   1.83964   1.85178
 Alpha virt. eigenvalues --    1.86214   1.87399   1.88305   1.89574   1.89938
 Alpha virt. eigenvalues --    1.90699   1.91071   1.91574   1.93904   1.94541
 Alpha virt. eigenvalues --    1.95662   1.95903   1.96491   1.99791   2.00097
 Alpha virt. eigenvalues --    2.02536   2.02990   2.05687   2.08056   2.08795
 Alpha virt. eigenvalues --    2.09396   2.11112   2.11674   2.13702   2.15127
 Alpha virt. eigenvalues --    2.17003   2.18458   2.18731   2.19725   2.20635
 Alpha virt. eigenvalues --    2.20856   2.24068   2.25027   2.26070   2.26566
 Alpha virt. eigenvalues --    2.27336   2.29050   2.29822   2.31516   2.32826
 Alpha virt. eigenvalues --    2.33380   2.34381   2.35770   2.37149   2.39268
 Alpha virt. eigenvalues --    2.40379   2.43501   2.45037   2.48217   2.49116
 Alpha virt. eigenvalues --    2.50046   2.52214   2.55419   2.56605   2.57657
 Alpha virt. eigenvalues --    2.58141   2.58377   2.60718   2.61930   2.63321
 Alpha virt. eigenvalues --    2.63848   2.64088   2.65263   2.65839   2.67072
 Alpha virt. eigenvalues --    2.67523   2.67875   2.70159   2.71185   2.71726
 Alpha virt. eigenvalues --    2.72058   2.73098   2.73465   2.76133   2.77109
 Alpha virt. eigenvalues --    2.77943   2.78090   2.79030   2.79890   2.80949
 Alpha virt. eigenvalues --    2.81161   2.83220   2.83380   2.84826   2.84940
 Alpha virt. eigenvalues --    2.85800   2.87278   2.87597   2.88379   2.88472
 Alpha virt. eigenvalues --    2.88995   2.89690   2.90980   2.91129   2.91742
 Alpha virt. eigenvalues --    2.92440   2.92894   2.93407   2.93775   2.94207
 Alpha virt. eigenvalues --    2.94584   2.95139   2.96384   2.96939   2.97723
 Alpha virt. eigenvalues --    2.98453   2.99040   2.99322   2.99659   3.00130
 Alpha virt. eigenvalues --    3.00617   3.01054   3.01246   3.02143   3.02829
 Alpha virt. eigenvalues --    3.04474   3.04563   3.05211   3.05919   3.06385
 Alpha virt. eigenvalues --    3.06919   3.07954   3.08683   3.09219   3.09939
 Alpha virt. eigenvalues --    3.11065   3.11194   3.11968   3.12424   3.12984
 Alpha virt. eigenvalues --    3.13726   3.14396   3.15361   3.16121   3.16899
 Alpha virt. eigenvalues --    3.17759   3.18163   3.19344   3.19719   3.20093
 Alpha virt. eigenvalues --    3.21040   3.21973   3.23768   3.24049   3.24497
 Alpha virt. eigenvalues --    3.25087   3.25648   3.26057   3.26369   3.27651
 Alpha virt. eigenvalues --    3.28617   3.28975   3.29428   3.29518   3.29959
 Alpha virt. eigenvalues --    3.30752   3.31491   3.32924   3.33182   3.33555
 Alpha virt. eigenvalues --    3.33878   3.35370   3.36148   3.37013   3.38030
 Alpha virt. eigenvalues --    3.39068   3.39355   3.39904   3.40627   3.41466
 Alpha virt. eigenvalues --    3.41926   3.42343   3.42934   3.43455   3.44648
 Alpha virt. eigenvalues --    3.45380   3.45509   3.46219   3.47024   3.47619
 Alpha virt. eigenvalues --    3.48076   3.48315   3.49020   3.49746   3.50518
 Alpha virt. eigenvalues --    3.50610   3.51144   3.52056   3.52322   3.53012
 Alpha virt. eigenvalues --    3.54032   3.54697   3.55462   3.56374   3.57555
 Alpha virt. eigenvalues --    3.57933   3.58530   3.59055   3.60392   3.61077
 Alpha virt. eigenvalues --    3.61683   3.62767   3.63965   3.64148   3.64618
 Alpha virt. eigenvalues --    3.64840   3.65619   3.66123   3.66345   3.67689
 Alpha virt. eigenvalues --    3.68681   3.69787   3.69978   3.70716   3.71469
 Alpha virt. eigenvalues --    3.71913   3.72674   3.73269   3.73834   3.74772
 Alpha virt. eigenvalues --    3.75650   3.75878   3.76214   3.76379   3.77059
 Alpha virt. eigenvalues --    3.77532   3.77795   3.78583   3.78839   3.80282
 Alpha virt. eigenvalues --    3.80699   3.81176   3.81585   3.81777   3.82872
 Alpha virt. eigenvalues --    3.83321   3.83840   3.84584   3.84802   3.85839
 Alpha virt. eigenvalues --    3.87042   3.87516   3.88591   3.90851   3.91652
 Alpha virt. eigenvalues --    3.91909   3.92396   3.92656   3.93843   3.94174
 Alpha virt. eigenvalues --    3.95252   3.96098   3.96403   3.97233   3.97678
 Alpha virt. eigenvalues --    3.98872   3.99706   4.00015   4.00808   4.01356
 Alpha virt. eigenvalues --    4.02442   4.03172   4.03837   4.04499   4.04914
 Alpha virt. eigenvalues --    4.06373   4.06864   4.08198   4.08596   4.09867
 Alpha virt. eigenvalues --    4.09981   4.11514   4.11588   4.12453   4.13255
 Alpha virt. eigenvalues --    4.13967   4.14400   4.14898   4.16074   4.16237
 Alpha virt. eigenvalues --    4.16873   4.17114   4.17650   4.19234   4.19581
 Alpha virt. eigenvalues --    4.20046   4.20183   4.20727   4.21179   4.21739
 Alpha virt. eigenvalues --    4.22307   4.23288   4.23520   4.24027   4.24804
 Alpha virt. eigenvalues --    4.26061   4.26750   4.27477   4.28103   4.28356
 Alpha virt. eigenvalues --    4.29491   4.30149   4.30753   4.31004   4.31446
 Alpha virt. eigenvalues --    4.32258   4.33171   4.33268   4.34101   4.34331
 Alpha virt. eigenvalues --    4.35346   4.37064   4.37249   4.38299   4.39040
 Alpha virt. eigenvalues --    4.39655   4.39724   4.40852   4.41326   4.41738
 Alpha virt. eigenvalues --    4.43020   4.44568   4.44944   4.45961   4.46691
 Alpha virt. eigenvalues --    4.47679   4.48716   4.49807   4.50516   4.51512
 Alpha virt. eigenvalues --    4.52633   4.54123   4.55234   4.56744   4.58643
 Alpha virt. eigenvalues --    4.59234   4.62852   4.66100   4.66886   4.67996
 Alpha virt. eigenvalues --    4.68770   4.70380   4.70670   4.72732   4.74183
 Alpha virt. eigenvalues --    4.74384   4.74688   4.75361   4.76213   4.76525
 Alpha virt. eigenvalues --    4.78213   4.78762   4.78908   4.79549   4.81692
 Alpha virt. eigenvalues --    4.82653   4.83172   4.85630   4.87220   4.89364
 Alpha virt. eigenvalues --    4.89940   4.90798   4.91475   4.92671   4.93568
 Alpha virt. eigenvalues --    4.95398   4.97239   4.99572   5.00501   5.01206
 Alpha virt. eigenvalues --    5.03343   5.03632   5.04282   5.05147   5.07335
 Alpha virt. eigenvalues --    5.08279   5.09017   5.10977   5.11082   5.12860
 Alpha virt. eigenvalues --    5.14154   5.14924   5.15449   5.16115   5.17919
 Alpha virt. eigenvalues --    5.18940   5.19621   5.20464   5.20855   5.21325
 Alpha virt. eigenvalues --    5.22145   5.22293   5.23106   5.23695   5.24913
 Alpha virt. eigenvalues --    5.25594   5.26419   5.26979   5.27810   5.29464
 Alpha virt. eigenvalues --    5.29614   5.29772   5.30965   5.31384   5.33433
 Alpha virt. eigenvalues --    5.33904   5.34503   5.34921   5.35138   5.35711
 Alpha virt. eigenvalues --    5.38136   5.38754   5.38979   5.40484   5.41068
 Alpha virt. eigenvalues --    5.41962   5.43103   5.44154   5.46051   5.46677
 Alpha virt. eigenvalues --    5.47364   5.47435   5.48632   5.49506   5.51414
 Alpha virt. eigenvalues --    5.51795   5.52229   5.53782   5.54569   5.55895
 Alpha virt. eigenvalues --    5.58393   5.59311   5.60507   5.60649   5.63558
 Alpha virt. eigenvalues --    5.63954   5.64701   5.65605   5.65755   5.68139
 Alpha virt. eigenvalues --    5.69698   5.69821   5.71021   5.72274   5.73240
 Alpha virt. eigenvalues --    5.74021   5.75329   5.75724   5.76527   5.76755
 Alpha virt. eigenvalues --    5.77750   5.78978   5.79197   5.79897   5.82466
 Alpha virt. eigenvalues --    5.88732   5.90204   6.01389   6.06136   6.07080
 Alpha virt. eigenvalues --    6.08838   6.09286   6.10165   6.11373   6.16520
 Alpha virt. eigenvalues --    6.19252   6.24888   6.27793   6.28915   6.33116
 Alpha virt. eigenvalues --    6.34650   6.64142   6.66891   6.82028   6.82793
 Alpha virt. eigenvalues --    6.96446   7.27080   7.35221   7.55899  22.86544
 Alpha virt. eigenvalues --   23.06402  23.31490  23.37002  23.40358  23.47046
 Alpha virt. eigenvalues --   23.57205  23.68121  23.71959  23.74879  23.78879
 Alpha virt. eigenvalues --   23.82793  31.38245  32.81315  32.85638  33.07514
 Alpha virt. eigenvalues --   37.06001  37.50171  44.12462  53.20363 285.18178
          Condensed to atoms (all electrons):
               1          2          3          4          5          6
     1  Pt  17.302993  -0.070167  -0.067795   0.005549   0.004683   0.000375
     2  C   -0.070167   5.195529  -0.060258   0.395174  -0.032150  -0.022766
     3  C   -0.067795  -0.060258   5.082825  -0.037534   0.543733  -0.048181
     4  C    0.005549   0.395174  -0.037534   5.202552  -0.001297   0.439718
     5  C    0.004683  -0.032150   0.543733  -0.001297   4.940799   0.467168
     6  C    0.000375  -0.022766  -0.048181   0.439718   0.467168   4.633051
     7  H   -0.000210   0.004934   0.000177   0.405825   0.002188  -0.038902
     8  H   -0.000220  -0.002076  -0.018062   0.009639   0.418512  -0.037563
     9  O    0.000098   0.007561   0.001456  -0.075606  -0.051368   0.374308
    10  N    0.189795   0.394360   0.377783  -0.072770  -0.064960  -0.010868
    11  C   -0.038055   0.221148  -0.002110  -0.058568  -0.000464   0.004612
    12  H   -0.007561  -0.026914   0.000845  -0.002430   0.000306  -0.000223
    13  H    0.010334  -0.051648  -0.000158  -0.002548  -0.000313   0.001048
    14  C   -0.039277  -0.001379   0.240673  -0.002342  -0.068972   0.009648
    15  H   -0.007384   0.000799  -0.028376   0.000337  -0.001978  -0.000334
    16  H    0.010235  -0.000191  -0.052129  -0.000292  -0.001363   0.000945
    17  N    0.209100  -0.017776   0.000399   0.004299  -0.000097  -0.000066
    18  N    0.208962   0.000176  -0.021899   0.000155   0.004890  -0.000488
    19  C    0.281610  -0.000492   0.000073  -0.000230  -0.000082  -0.000014
    20  H   -0.040324   0.000009  -0.000010   0.000097   0.000074   0.000004
    21  H   -0.035488  -0.000075  -0.000020   0.000003  -0.000004   0.000000
    22  H   -0.035500  -0.000015  -0.000094  -0.000004  -0.000000   0.000000
    23  C   -0.040221   0.011202   0.000158  -0.000143   0.000094  -0.000053
    24  H   -0.013618  -0.000777  -0.000005   0.000025   0.000001  -0.000000
    25  H    0.012579   0.002084   0.000003   0.000032  -0.000006   0.000003
    26  H   -0.009755  -0.002189   0.000024  -0.000174   0.000004   0.000003
    27  C   -0.028018   0.002726  -0.000349   0.004358  -0.000029  -0.000385
    28  H    0.009930  -0.005656  -0.000038  -0.000234   0.000007   0.000013
    29  H   -0.018657  -0.000167   0.000071  -0.000097  -0.000006   0.000012
    30  H   -0.010664   0.014322  -0.000309   0.004886   0.000329  -0.000564
    31  C   -0.040205   0.000200   0.011868   0.000067  -0.000352   0.000003
    32  H    0.012580   0.000003   0.002016  -0.000005   0.000010   0.000002
    33  H   -0.013624  -0.000006  -0.000799   0.000002   0.000025  -0.000001
    34  H   -0.009815   0.000029  -0.002034   0.000002  -0.000170   0.000006
    35  C   -0.027762  -0.000266   0.002663  -0.000169   0.004194  -0.000340
    36  H   -0.018792   0.000076  -0.000227  -0.000002  -0.000147   0.000013
    37  H    0.009911  -0.000038  -0.005575   0.000007  -0.000140   0.000008
    38  H   -0.010495  -0.000306   0.013899   0.000335   0.004967  -0.000582
    39  H   -0.000040   0.011329  -0.001224  -0.027914   0.003152  -0.056763
               7          8          9         10         11         12
     1  Pt  -0.000210  -0.000220   0.000098   0.189795  -0.038055  -0.007561
     2  C    0.004934  -0.002076   0.007561   0.394360   0.221148  -0.026914
     3  C    0.000177  -0.018062   0.001456   0.377783  -0.002110   0.000845
     4  C    0.405825   0.009639  -0.075606  -0.072770  -0.058568  -0.002430
     5  C    0.002188   0.418512  -0.051368  -0.064960  -0.000464   0.000306
     6  C   -0.038902  -0.037563   0.374308  -0.010868   0.004612  -0.000223
     7  H    0.512644  -0.000106  -0.001451   0.003242  -0.005817   0.000127
     8  H   -0.000106   0.497290   0.003978   0.003130   0.000071   0.000001
     9  O   -0.001451   0.003978   7.611407   0.000683  -0.000354   0.000001
    10  N    0.003242   0.003130   0.000683   6.505978  -0.010473  -0.005619
    11  C   -0.005817   0.000071  -0.000354  -0.010473   4.943260   0.430732
    12  H    0.000127   0.000001   0.000001  -0.005619   0.430732   0.513828
    13  H    0.000309  -0.000004   0.000008   0.003571   0.445711  -0.013227
    14  C    0.000005  -0.005358  -0.000090  -0.010374  -0.000655  -0.000249
    15  H    0.000001   0.000215   0.000002  -0.005434  -0.000214  -0.000014
    16  H   -0.000003   0.000081  -0.000005   0.003471   0.000083  -0.000002
    17  N    0.000147  -0.000002   0.000003  -0.017662   0.255011  -0.031991
    18  N    0.000001   0.000177   0.000001  -0.016585   0.000579   0.000093
    19  C    0.000008   0.000008  -0.000000  -0.027832   0.000082  -0.000291
    20  H   -0.000000  -0.000000  -0.000000   0.000855  -0.000370   0.000012
    21  H   -0.000000  -0.000000   0.000000   0.000597   0.000174   0.000017
    22  H   -0.000000  -0.000000   0.000000   0.000605   0.000087  -0.000001
    23  C    0.000002   0.000001  -0.000000  -0.002344  -0.041168  -0.003488
    24  H   -0.000001   0.000000   0.000000   0.000105   0.008134   0.000303
    25  H    0.000008  -0.000000   0.000000   0.000013  -0.011800  -0.002593
    26  H   -0.000005   0.000000  -0.000000   0.000017  -0.003181   0.002701
    27  C   -0.000083   0.000001   0.000002   0.000261  -0.032930   0.005171
    28  H   -0.000005  -0.000000  -0.000000   0.000274  -0.005822  -0.000148
    29  H   -0.000008  -0.000000   0.000000   0.000434   0.006006  -0.000093
    30  H    0.000232   0.000003  -0.000004  -0.003374  -0.015441   0.000223
    31  C    0.000000  -0.000008  -0.000000  -0.002405  -0.000255  -0.000006
    32  H   -0.000000   0.000009  -0.000000   0.000018   0.000006  -0.000000
    33  H    0.000000  -0.000000   0.000000   0.000109  -0.000014   0.000000
    34  H    0.000000  -0.000006  -0.000000  -0.000007  -0.000036   0.000002
    35  C    0.000001  -0.000087   0.000000   0.000198   0.000122  -0.000005
    36  H   -0.000000  -0.000008  -0.000000   0.000449  -0.000001   0.000000
    37  H   -0.000000  -0.000004  -0.000000   0.000263   0.000000  -0.000000
    38  H    0.000004   0.000234  -0.000005  -0.003378   0.000043   0.000002
    39  H    0.008351  -0.000942   0.330933   0.000166  -0.000568   0.000004
              13         14         15         16         17         18
     1  Pt   0.010334  -0.039277  -0.007384   0.010235   0.209100   0.208962
     2  C   -0.051648  -0.001379   0.000799  -0.000191  -0.017776   0.000176
     3  C   -0.000158   0.240673  -0.028376  -0.052129   0.000399  -0.021899
     4  C   -0.002548  -0.002342   0.000337  -0.000292   0.004299   0.000155
     5  C   -0.000313  -0.068972  -0.001978  -0.001363  -0.000097   0.004890
     6  C    0.001048   0.009648  -0.000334   0.000945  -0.000066  -0.000488
     7  H    0.000309   0.000005   0.000001  -0.000003   0.000147   0.000001
     8  H   -0.000004  -0.005358   0.000215   0.000081  -0.000002   0.000177
     9  O    0.000008  -0.000090   0.000002  -0.000005   0.000003   0.000001
    10  N    0.003571  -0.010374  -0.005434   0.003471  -0.017662  -0.016585
    11  C    0.445711  -0.000655  -0.000214   0.000083   0.255011   0.000579
    12  H   -0.013227  -0.000249  -0.000014  -0.000002  -0.031991   0.000093
    13  H    0.516067   0.000084  -0.000002  -0.000000  -0.024703  -0.000042
    14  C    0.000084   4.921576   0.432570   0.445476   0.000570   0.258113
    15  H   -0.000002   0.432570   0.513700  -0.013095   0.000085  -0.032295
    16  H   -0.000000   0.445476  -0.013095   0.515447  -0.000041  -0.024887
    17  N   -0.024703   0.000570   0.000085  -0.000041   6.324381  -0.009028
    18  N   -0.000042   0.258113  -0.032295  -0.024887  -0.009028   6.323999
    19  C    0.000060  -0.000195  -0.000268   0.000053  -0.002571  -0.002591
    20  H   -0.000005  -0.000337   0.000012  -0.000004  -0.002356  -0.002345
    21  H   -0.000005   0.000086  -0.000001   0.000001  -0.000705   0.000793
    22  H    0.000000   0.000178   0.000015  -0.000005   0.000795  -0.000714
    23  C   -0.005301  -0.000247  -0.000006   0.000001   0.258599   0.000574
    24  H   -0.000336  -0.000014   0.000000   0.000000  -0.028414   0.000053
    25  H    0.004311   0.000006  -0.000000  -0.000000  -0.018136  -0.000016
    26  H   -0.000360  -0.000035   0.000002   0.000000  -0.034953   0.000080
    27  C   -0.012909   0.000115  -0.000006   0.000005   0.254979   0.000701
    28  H    0.005467  -0.000000  -0.000000  -0.000000  -0.022247  -0.000032
    29  H   -0.000092   0.000001   0.000000   0.000000  -0.029786   0.000166
    30  H   -0.002646   0.000045   0.000002  -0.000002  -0.033312   0.000267
    31  C    0.000001  -0.041803  -0.003558  -0.005254   0.000574   0.259176
    32  H   -0.000000  -0.011576  -0.002600   0.004311  -0.000016  -0.018294
    33  H    0.000000   0.008157   0.000314  -0.000338   0.000053  -0.028466
    34  H    0.000000  -0.003443   0.002682  -0.000354   0.000080  -0.034826
    35  C    0.000005  -0.032357   0.005103  -0.012680   0.000710   0.254956
    36  H    0.000000   0.006128  -0.000097  -0.000080   0.000165  -0.029695
    37  H   -0.000000  -0.005924  -0.000140   0.005411  -0.000032  -0.022257
    38  H   -0.000002  -0.015214   0.000219  -0.002650   0.000269  -0.033290
    39  H    0.000021   0.000031  -0.000001  -0.000000   0.000007  -0.000001
              19         20         21         22         23         24
     1  Pt   0.281610  -0.040324  -0.035488  -0.035500  -0.040221  -0.013618
     2  C   -0.000492   0.000009  -0.000075  -0.000015   0.011202  -0.000777
     3  C    0.000073  -0.000010  -0.000020  -0.000094   0.000158  -0.000005
     4  C   -0.000230   0.000097   0.000003  -0.000004  -0.000143   0.000025
     5  C   -0.000082   0.000074  -0.000004  -0.000000   0.000094   0.000001
     6  C   -0.000014   0.000004   0.000000   0.000000  -0.000053  -0.000000
[...]
 0.00050767,-0.00003646,-0.00029582,-0.00034294,0.00000347,0.00001148,0
 .00001246,0.00001052,-0.00000796,0.00000239,-0.00002560,0.00029613,0.0
 0008206,0.00001468,-0.00020245,-0.00012720,-0.00011047,0.00017674,0.00
 019143,-0.00007452,-0.00003258,0.00002700,0.00002124,0.00000580,0.0000
 1510,0.00000155,0.00155249,-0.00086664,-0.00454828,0.00184688,-0.00013
 385,-0.00148397,0.00192896,0.00163939,-0.00291936,-0.00007306,-0.00063
 068,-0.00291380,-0.00551159,-0.08937824,0.05012640,0.00083347,0.000603
 38,0.00054601,-0.00010631,-0.00000274,-0.00002047,0.00025227,-0.000145
 16,-0.00021945,0.00003466,-0.00031730,0.00003120,-0.00002028,0.0003804
 4,-0.00006564,0.00000386,-0.00000950,-0.00000361,-0.00004350,0.0000486
 9,-0.00000915,0.00000725,0.00004085,0.00002571,-0.00015114,-0.00075310
 ,0.00005349,-0.00001235,-0.00007078,-0.00022380,0.00001039,0.00000265,
 0.00001985,-0.00001961,0.00000067,0.00000810,-0.00044226,0.00394254,-0
 .02030879,-0.00125117,0.00084689,-0.00299349,0.00041398,0.00033711,0.0
 0005526,-0.00251716,-0.00157926,-0.00279682,0.00639945,0.58153620,-0.0
 0223245,0.01183176,-0.00022044,0.00005289,-0.00004195,0.00009556,-0.00
 008568,0.00158130,0.00119884,-0.00012547,-0.00001520,-0.00002958,-0.00
 072042,-0.00097330,-0.00010096,0.00045927,0.00034015,-0.00009004,-0.00
 003464,-0.00003155,0.00000385,0.00001147,0.00002657,0.00006847,-0.0006
 9589,-0.00013330,-0.00004519,0.00097895,-0.00027597,-0.00034035,0.0005
 4047,-0.00018392,-0.00035761,-0.00000940,0.00000095,0.00002673,-0.0001
 9199,-0.00010795,0.00006335,0.01116834,0.00316972,-0.02347502,0.001056
 14,0.00073928,0.00024195,-0.00270415,0.00087822,0.00100086,-0.00026498
 ,-0.00250750,0.00013099,0.00016433,0.01521128,-0.17943032,-0.00067692,
 0.00046423,-0.00031820,0.00014703,-0.00006170,-0.00015430,0.00007886,0
 .00024769,-0.00000433,0.00096211,-0.00018401,0.00012419,-0.00061920,-0
 .00008548,-0.00042171,0.00006002,0.00002554,-0.00000359,0.00015174,-0.
 00026357,0.00009947,0.00000982,0.00002033,0.00002651,-0.00004699,-0.00
 009694,0.00080751,-0.00004373,-0.00017296,-0.00021858,0.00004893,0.000
 01795,-0.00003517,-0.00003385,0.00000640,-0.00004262,-0.00928458,0.002
 85148,-0.03067823,0.00181588,0.00163954,0.00167067,0.00156188,0.000895
 33,0.00129630,-0.00125070,-0.00093592,-0.00016021,-0.00374766,0.054308
 99,0.48168269,0.00006030,0.00069398,-0.00019292,-0.00002126,0.00001928
 ,-0.00002197,0.00028467,0.00030818,-0.00014183,0.00001173,-0.00003705,
 -0.00000441,-0.00003627,-0.00009438,0.00000467,0.00008194,0.00008113,0
 .00001243,-0.00000317,-0.00000461,0.00000012,0.00001240,0.00000282,-0.
 00000849,-0.00007771,-0.00002351,-0.00000527,-0.00004215,-0.00004854,0
 .00003464,-0.00000325,-0.00001082,-0.00000827,0.00000454,-0.00000645,-
 0.00000063,-0.00000342,-0.00000676,0.00000521,0.00124666,0.00001990,-0
 .00040507,0.00013412,-0.00011267,0.00009845,0.00019686,-0.00029174,-0.
 00010121,-0.00002151,-0.00019515,-0.00005874,0.00150703,-0.00119140,-0
 .00117394,0.00007148,0.00073502,-0.00073610,-0.00006285,-0.00007376,0.
 00006204,-0.00013509,0.00001784,0.00008465,-0.00020803,-0.00003646,-0.
 00001658,-0.00002218,0.00000093,-0.00003286,0.00000473,0.00000751,0.00
 000201,0.00000346,-0.00000711,0.00000706,0.00000152,-0.00000085,0.0000
 0527,-0.00000220,-0.00001174,0.00004882,-0.00000010,-0.00000538,-0.000
 01672,0.00001432,-0.00000892,0.00000454,-0.00001687,-0.00000289,0.0000
 0391,0.00071728,0.00000219,-0.00087605,-0.00014196,-0.00000456,0.00003
 515,0.00032449,0.00012257,0.00003409,0.00029133,-0.00006705,0.00003261
 ,-0.27649356,0.05159282,0.10150084,0.29185082,-0.00109357,-0.00078258,
 0.00126072,-0.00001259,-0.00001863,-0.00000365,0.00019856,0.00031464,-
 0.00024596,0.00002873,-0.00003168,-0.00000219,0.00001654,-0.00008099,-
 0.00000153,-0.00001358,0.00004713,0.00000437,0.00000305,-0.00000005,0.
 00000207,0.00000527,-0.00000123,0.00000118,0.00001147,-0.00001415,-0.0
 0000206,0.00015715,0.00000955,-0.00000681,-0.00005683,0.00001144,0.000
 03346,0.00000311,-0.00000490,-0.00000558,0.00001484,0.00000204,-0.0000
 0023,0.00101697,0.00002599,0.00195303,-0.00067972,0.00037350,0.0002533
 1,-0.00032176,0.00032518,-0.00000254,0.00006382,0.00004552,-0.00006042
 ,-0.01131893,0.00057850,0.00640708,-0.00019498,-0.00049917,0.00016634,
 0.00002296,0.00009731,-0.00004152,-0.00001615,0.00016851,-0.00012187,0
 .00062871,-0.00012169,0.00011489,0.00002252,-0.00000233,0.00001453,0.0
 0000097,-0.00001327,0.00000064,-0.00000007,0.00001430,0.00000182,-0.00
 000163,-0.00000024,0.00000052,-0.00000183,0.00000403,-0.00001596,0.000
 00558,0.00001721,-0.00000247,0.00000915,-0.00001254,-0.00000313,-0.000
 01273,-0.00000447,0.00000404,0.00016215,-0.00022729,-0.00059166,0.0001
 8292,-0.00003247,0.00010195,-0.00005334,0.00022195,-0.00028184,-0.0001
 0087,-0.00012204,0.00005633,0.05546746,-0.06142677,-0.02543830,-0.0567
 9873,0.06178301,0.00073297,-0.00067217,-0.00035631,0.00003428,0.000044
 11,-0.00002139,-0.00024395,-0.00066014,-0.00038427,-0.00002513,0.00008
 313,-0.00000559,0.00016412,0.00028250,0.00008357,-0.00003703,-0.000134
 23,0.00001981,-0.00000251,0.00000310,0.00000158,-0.00001463,-0.0000032
 2,-0.00001713,0.00005458,0.00003695,0.00000430,-0.00012396,0.00018940,
 0.00010409,0.00001599,0.00002333,0.00000010,0.00000064,0.00000511,0.00
 000128,0.00000156,0.00000545,-0.00000408,-0.00147336,0.00121344,-0.005
 70138,0.00180023,-0.00001505,-0.00070851,-0.00018502,0.00000319,0.0000
 2314,0.00004012,0.00024518,-0.00004489,0.03108936,-0.00422807,-0.01832
 203,0.00029229,0.00019376,0.00000764,-0.00001862,-0.00023888,0.0000925
 8,0.00004307,-0.00020009,0.00011777,-0.00073615,0.00008835,0.00018040,
 0.00003198,0.00000717,0.00001203,-0.00000712,0.00001723,-0.00000032,-0
 .00001559,0.00000521,-0.00000729,-0.00000206,0.00000314,-0.00000493,0.
 00000082,-0.00001880,-0.00003635,-0.00000261,-0.00000171,0.00000064,0.
 00000476,0.00000268,0.00001570,-0.00000577,0.00000023,0.00000462,0.002
 15250,0.00015506,0.00103547,-0.00019875,-0.00001706,-0.00007303,-0.000
 70281,-0.00012258,-0.00063076,-0.00014317,0.00022525,0.00030067,0.0909
 0101,-0.02180706,-0.09033994,-0.10757813,0.02133870,0.10518634,0.00060
 719,0.00002928,-0.00035355,0.00002106,0.00005781,-0.00000658,-0.000211
 38,-0.00016597,-0.00007075,-0.00002706,0.00001381,-0.00000072,0.000091
 90,0.00006728,-0.00000101,-0.00004022,-0.00007496,-0.00000486,0.000002
 50,0.00000405,-0.00000159,-0.00001443,-0.00000599,0.00001442,0.0000511
 1,0.00001683,0.00000179,-0.00006681,0.00010799,0.00004286,-0.00002028,
 -0.00000745,0.00000416,-0.00000207,0.00000100,-0.00000060,0.00000569,0
 .00000962,-0.00000367,0.00081172,-0.00213259,0.00051909,0.00002110,0.0
 0007368,-0.00011019,-0.00051224,0.00019199,0.00019206,-0.00004714,0.00
 009319,0.00005896,-0.00075682,0.00042850,-0.00043727,-0.00001779,-0.00
 008914,-0.00017747,-0.00003755,0.00005587,-0.00001312,-0.00007877,0.00
 015028,-0.00004046,0.00035695,-0.00007640,0.00005300,0.00002148,0.0000
 0302,0.00002758,0.00000034,-0.00000346,0.00000184,-0.00000243,0.000014
 31,-0.00000913,0.00000137,-0.00000184,-0.00000512,-0.00001150,0.000014
 16,-0.00004439,0.00000966,0.00001050,0.00001237,-0.00000006,-0.0000057
 0,-0.00000266,0.00000476,0.00000223,0.00000333,0.00009256,0.00123909,-
 0.00016072,0.00003909,-0.00019159,-0.00033985,-0.00007411,0.00013645,0
 .00012816,-0.00007344,-0.00023674,0.00007625,-0.06033435,0.04640768,-0
 .00111517,-0.00258237,0.02746012,-0.00165116,0.05725037,-0.00051931,0.
 00042963,0.00190792,0.00004794,0.00007090,0.00005632,0.00001265,-0.000
 09079,-0.00008691,-0.00007633,0.00004830,-0.00000875,-0.00006461,-0.00
 007467,-0.00001343,0.00016902,-0.00000769,-0.00000826,-0.00001359,-0.0
 0000583,-0.00000419,-0.00001991,0.00000028,0.00001398,-0.00020087,-0.0
 0000697,-0.00001049,0.00028440,0.00017408,-0.00011391,0.00015373,0.000
 00972,-0.00008116,-0.00000101,0.00000825,0.00000767,-0.00004194,-0.000
 02389,0.00000941,0.00080986,0.00067590,-0.00110296,-0.00019781,0.00032
 941,-0.00010819,-0.00089791,0.00004925,0.00085070,0.00001813,-0.000248
 61,-0.00025063,0.00214836,-0.01184233,0.00614053,-0.00012819,0.0001597
 9,0.00016386,0.00006381,-0.00006021,-0.00002671,0.00012902,-0.00001351
 ,-0.00003073,-0.00001155,0.00007564,-0.00004275,-0.00013678,0.00005059
 ,-0.00009175,0.00000764,0.00001373,-0.00000232,0.00001676,-0.00006022,
 0.00001533,0.00000169,0.00001516,-0.00000075,-0.00003517,-0.00008208,0
 .00017563,-0.00001045,-0.00004816,-0.00005950,0.00000570,0.00001705,0.
 00000190,0.00000381,0.00001523,-0.00000367,-0.00077887,0.00161193,-0.0
 0111686,0.00055401,0.00049586,0.00068013,0.00005512,-0.00017018,0.0000
 3986,-0.00003443,0.00038036,-0.00006261,0.04620938,-0.30066946,0.00769
 007,-0.00024181,-0.00421020,-0.00027444,-0.05147791,0.32592970,0.00077
 279,-0.00125262,-0.00269004,0.00000685,0.00003332,-0.00001714,0.000256
 01,-0.00014408,0.00001454,0.00002580,-0.00005137,0.00000023,0.00003347
 ,0.00003244,0.00001714,-0.00000815,0.00002067,0.00000740,0.00000377,0.
 00000232,-0.00000245,0.00000858,0.00000198,0.00000154,0.00004831,-0.00
 000082,0.00000174,-0.00033000,-0.00006886,0.00006595,-0.00018077,-0.00
 000341,0.00010484,0.00001300,-0.00000488,-0.00001207,0.00004579,0.0000
 1529,-0.00001459,-0.00281909,0.00214940,0.00074209,-0.00011538,-0.0001
 8061,0.00021816,0.00063233,-0.00030467,0.00023408,0.00008672,0.0007463
 7,0.00076404,-0.00634337,0.03779023,-0.01391295,0.00016322,-0.00019476
 ,0.00000089,-0.00000356,-0.00000100,0.00003838,-0.00004242,-0.00009360
 ,0.00004878,-0.00030139,-0.00004394,0.00001661,0.00014660,-0.00007835,
 0.00011869,-0.00001369,-0.00000033,0.00000113,-0.00002448,0.00004556,-
 0.00002759,-0.00000590,-0.00001452,-0.00002021,0.00005016,0.00022700,-
 0.00020672,0.00001160,0.00005508,0.00011156,-0.00001646,0.00000293,0.0
 0000078,0.00001740,0.00000591,0.00000497,0.00100415,0.00319049,0.00172
 685,0.00003210,-0.00084968,0.00016942,-0.00008479,-0.00024760,-0.00009
 516,0.00018954,-0.00038132,0.00022074,-0.00000801,0.00116812,-0.050633
 43,0.00057810,-0.01231309,0.00144027,0.00176657,-0.01475843,0.05980243
 ,0.00006383,-0.00029121,0.00004135,0.00011238,0.00007774,0.00003796,0.
 00021925,-0.00020930,-0.00010530,-0.00009040,0.00007710,0.00000060,0.0
 0008156,0.00018635,-0.00003732,-0.00006044,-0.00018521,0.00002046,-0.0
 0000057,0.00000539,-0.00000658,-0.00000707,0.00000224,0.00000213,0.000
 05241,0.00003620,0.00000159,-0.00003504,0.00000262,-0.00001578,0.00002
 073,0.00000604,-0.00001275,-0.00000735,0.00000763,0.00000205,-0.000002
 08,0.00000336,-0.00000498,0.00055061,0.00065380,0.00053413,0.00006830,
 0.00003488,-0.00014444,0.00010660,0.00009258,0.00007284,0.00000156,0.0
 0012748,0.00008037,0.00067143,0.00138818,0.00195117,-0.00006424,-0.000
 07732,0.00020578,0.00000117,0.00009010,-0.00003938,0.00005035,0.000022
 78,-0.00006811,0.00013558,0.00002679,-0.00010415,-0.00000307,0.0000035
 9,0.00002484,-0.00000331,-0.00000257,-0.00000079,-0.00000059,-0.000003
 64,-0.00001029,0.00000039,0.00000062,-0.00000780,-0.00001710,0.0000210
 7,-0.00003229,0.00000487,-0.00000487,0.00001707,-0.00001625,0.00001293
 ,-0.00000541,0.00002355,0.00002479,-0.00000869,0.00050127,0.00052894,0
 .00019041,-0.00004350,-0.00011491,0.00000297,0.00045321,0.00002416,0.0
 0009770,0.00039256,-0.00025809,-0.00009453,-0.19188044,-0.10091381,-0.
 09692859,-0.01695293,-0.01480170,-0.01419119,0.00552530,0.00417870,0.0
 0440657,0.20014926,0.00109161,-0.00093984,0.00105689,-0.00004764,-0.00
 005717,-0.00001199,0.00001483,0.00030064,0.00014443,0.00004171,-0.0000
 4116,-0.00000073,-0.00001199,-0.00005348,0.00001237,-0.00001462,0.0000
 6889,0.00001621,0.00000362,-0.00000188,0.00000061,0.00002251,-0.000000
 66,-0.00002617,0.00002151,-0.00001461,0.00000218,-0.00012082,0.0000844
 6,0.00012324,-0.00003282,-0.00000628,0.00001555,0.00000364,0.,-0.00000
 374,0.00000565,0.00000148,0.00000138,0.00005998,0.00037714,-0.00027423
 ,0.00014613,-0.00014138,0.00004315,-0.00010605,-0.00039769,-0.00000897
 ,-0.00003690,0.00017005,-0.00000298,0.01016307,0.00543245,0.00727664,-
 0.00002218,-0.00006757,-0.00000139,0.00000144,-0.00000929,0.00000759,-
 0.00002431,0.00001847,-0.00000161,-0.00004237,0.00005655,-0.00000171,0
 .00003200,0.00001245,0.00001386,-0.00000136,0.00000025,0.00000196,-0.0
 0001027,0.00001283,-0.00000433,-0.00000092,0.00000250,-0.00000604,0.00
 002786,0.00000119,-0.00000657,-0.00000260,0.00001546,-0.00000525,0.000
 00216,-0.00000437,-0.00000064,-0.00002405,-0.00001527,-0.00000379,-0.0
 0033412,-0.00004649,0.00129996,0.00010367,0.00047212,0.00039675,-0.000
 10226,-0.00018133,0.00005208,0.00013824,0.00059379,0.00038649,-0.10373
 036,-0.12227225,-0.07048069,0.00567174,0.00356820,0.00422334,-0.022114
 11,-0.01295857,-0.01449571,0.10923138,0.12602050,-0.00024960,-0.000644
 54,-0.00034410,-0.00000461,0.00012608,-0.00003913,0.00056621,0.0003430
 4,-0.00030602,-0.00002355,-0.00006644,-0.00001474,0.00003963,-0.000040
 93,0.00004806,0.00020200,0.00007912,-0.00000978,-0.00000751,-0.0000051
 5,0.00000242,-0.00000426,-0.00000009,0.00000604,-0.00015154,-0.0000222
 0,-0.00000720,-0.00011437,0.00010768,0.00006189,-0.00006663,0.00003023
 ,0.00004650,0.00001904,-0.00000604,-0.00000576,0.00002122,-0.00000391,
 -0.00000786,-0.00158043,-0.00047982,0.00071036,-0.00011609,-0.00001734
 ,0.00021996,0.00021699,-0.00017311,-0.00011678,0.00005544,0.00029987,-
 0.00001506,-0.02543746,-0.01616719,-0.02131776,0.00008367,-0.00003548,
 0.00008449,-0.00000518,-0.00001285,0.00001192,0.00003508,-0.00000419,-
 0.00000554,-0.00002481,0.00001710,-0.00002043,0.00003313,0.00002139,0.
 00001015,-0.00000120,0.00000199,0.00000289,-0.00001499,0.00000776,-0.0
 0001270,-0.00000367,0.00000079,-0.00001175,0.00000266,-0.00000611,-0.0
 0004300,0.00000340,0.00000364,0.00000501,0.00000403,-0.00000403,0.0000
 0456,-0.00000974,0.00000308,0.00001238,0.00174242,0.00323090,-0.005601
 85,0.00015034,-0.00003148,0.00005633,-0.00003771,0.00012697,0.00020819
 ,-0.00134104,-0.00107452,-0.00093698,-0.08860387,-0.06380668,-0.111464
 98,0.00882458,0.00742589,0.00803039,0.00164758,0.00050231,0.00176202,0
 .10413254,0.07026310,0.12899759,-0.00018520,-0.00003638,-0.00008544,-0
 .00122640,-0.00100629,-0.00009643,-0.00014670,-0.00212996,-0.00030761,
 0.00398753,-0.00198105,0.00023975,-0.00527797,0.00295864,-0.00038850,-
 0.03016664,-0.04683480,-0.00204551,0.00055145,0.00214434,-0.00049192,0
 .00010621,0.00010525,0.00004965,-0.11065845,-0.13982746,-0.00750721,0.
 00100884,0.00122350,0.00019236,0.00002792,0.00028673,0.00010141,0.0001
 0244,-0.00004551,-0.00001624,0.00001655,0.00001278,-0.00001971,-0.0002
 9712,0.00020039,0.00017679,0.00006493,0.00003222,-0.00003223,0.0000355
 0,0.00003732,-0.00000569,0.00014876,-0.00011465,0.00004674,-0.00007004
 ,-0.00002816,-0.00003011,0.00004767,-0.00002344,0.00003969,0.00004598,
 -0.00001540,-0.00001588,0.00007074,-0.00000004,-0.00000168,0.00004182,
 0.00002165,-0.00001844,0.00000823,0.00008489,-0.00011962,0.00003498,-0
 .00001541,0.00001004,-0.00001205,-0.00001755,0.00000338,-0.00000874,-0
 .00000255,-0.00000115,0.00003275,0.00005151,0.00008854,-0.00000892,-0.
 00001879,-0.00000172,0.00001550,-0.00000247,-0.00001541,-0.00001620,-0
 .00000478,0.00002406,-0.00005416,-0.00002624,-0.00003131,-0.00000043,0
 .00001841,0.00000481,0.00000450,-0.00000714,-0.00000465,-0.00000283,0.
 00000028,-0.00000102,0.00000314,-0.00002650,0.00004349,0.00000719,-0.0
 0000304,-0.00000156,-0.00000335,0.00001871,-0.00000201,-0.00000180,-0.
 00000296,0.00001829,0.14177439,0.00006429,-0.00000633,-0.00021530,-0.0
 0064376,-0.00115991,-0.00007000,-0.00108245,0.00019721,-0.00013584,0.0
 0578298,0.00315038,0.00017486,0.00247640,0.00252074,0.00006224,0.00095
 920,0.00264460,0.00001146,-0.00046355,-0.00084558,0.00036795,0.0001616
 3,0.00034287,0.00004104,-0.19310329,-0.45990430,-0.01716507,0.00057894
 ,-0.00007008,0.00028241,0.00005113,0.00009754,0.00002607,0.00001569,0.
 00000921,-0.00000979,0.00002789,-0.00004396,-0.00001415,-0.00000570,-0
 .00002870,0.00004136,0.00001578,-0.00001051,-0.00001082,0.00000567,0.0
 0000084,-0.00000560,0.00001555,-0.00003422,0.00001334,0.00002752,0.000
 01039,0.00001649,0.00002751,0.00001189,0.00008589,0.00002656,-0.000016
 41,-0.00001712,0.00006758,0.00000055,-0.00000832,0.00003030,0.00001321
 ,-0.00001519,-0.00001662,0.00002578,-0.00004035,0.00000819,0.00000021,
 0.00000291,0.00000093,-0.00001741,0.00000211,-0.00000140,0.00000224,-0
 .00000165,0.00000318,0.00002055,0.00004729,0.00000001,-0.00001912,-0.0
 0000501,0.00000223,0.00000138,-0.00000216,0.00000009,0.00000636,0.0000
 0907,-0.00001602,-0.00002706,-0.00004241,-0.00000255,0.00001288,0.0000
 0281,0.00001003,-0.00000034,0.00000157,-0.00000243,-0.00000033,-0.0000
 0092,0.00000779,-0.00001947,0.00004343,0.00000642,-0.00000130,-0.00000
 147,-0.00000488,0.00001264,-0.00000343,-0.00000481,-0.00000009,0.00001
 116,0.18497398,0.45312363,-0.00002261,-0.00000484,-0.00004034,-0.00005
 774,-0.00013310,-0.00067342,0.00000254,-0.00022843,0.00184492,0.000554
 06,-0.00001329,-0.00089609,-0.00051246,0.00015124,0.00362916,-0.001342
 76,-0.00232008,-0.00337238,-0.00047611,0.00033942,0.00000135,0.0000358
 1,0.00004066,-0.00060493,-0.00846329,-0.01452329,-0.00715272,0.0000742
 8,0.00016883,-0.00000801,-0.00001073,0.00002817,0.00011102,0.00001374,
 -0.00002167,-0.00000730,-0.00000987,0.,0.00000681,0.00000872,-0.000005
 10,-0.00040818,-0.00007620,-0.00007709,-0.00000193,0.00001841,0.000033
 69,0.00001341,0.00000964,-0.00000318,-0.00000353,0.00000094,0.00003660
 ,-0.00003479,0.00000494,0.00000166,0.00000763,0.00000569,-0.00000357,-
 0.00000147,0.00000409,-0.00000036,-0.00000102,0.00000413,0.00000259,-0
 .00000157,0.00000550,0.00000191,-0.00000530,0.00000354,0.00000090,-0.0
 0000119,-0.00000239,-0.00000096,0.00000305,-0.00000438,-0.00000120,-0.
 00000460,0.00000943,0.00000457,0.00002734,0.00000170,-0.00000534,0.000
 00025,-0.00000044,-0.00000099,-0.00000501,0.00000189,0.00000546,-0.000
 00038,0.00000457,-0.00000141,-0.00000625,-0.00000054,0.00000100,0.0000
 0106,0.00000182,0.00000145,0.00000558,-0.00000123,-0.00000061,0.000001
 39,0.00001745,0.00000278,0.00002687,0.00000001,-0.00000006,-0.00000422
 ,0.,0.00000377,-0.00000295,-0.00000416,-0.00000126,0.00000027,0.010202
 03,0.01652112,0.00755747\\-0.00000774,-0.00003773,-0.00001273,0.000020
 25,0.00001384,0.00001124,-0.00001006,0.00001189,0.00000419,-0.00001556
 ,0.00000489,0.00000648,0.00001324,-0.00000008,0.00001487,-0.00000311,-
 0.00000877,0.00001277,0.00000254,-0.00000039,0.00001555,-0.00000062,-0
 .00000054,0.00001261,0.00001069,-0.00000121,0.00000751,-0.00000852,-0.
 00000333,0.00000830,-0.00000736,-0.00000348,0.00000424,0.00000777,-0.0
 0000028,0.00000166,0.00000077,0.00000226,0.00000510,0.00000246,-0.0000
 0195,0.00000165,0.00000793,0.00000067,0.00000089,0.00000067,-0.0000022
 1,0.00000297,0.00000100,0.00000305,-0.00000272,0.00001022,0.00000132,0
 .00001251,0.00000110,0.00002155,-0.00001017,-0.00000789,-0.00000094,-0
 .00001429,0.00000561,0.00000148,-0.00001344,0.00000188,-0.00000149,-0.
 00001394,0.00000586,0.00000173,0.00000067,0.00000147,0.00000067,-0.000
 01011,0.00000311,0.00000158,-0.00000363,0.00000713,0.00000137,-0.00000
 680,-0.00000449,-0.00000298,-0.00000561,-0.00000624,-0.00000066,0.0000
 0037,-0.00000938,-0.00000093,-0.00000387,-0.00000759,-0.00000105,0.000
 00240,-0.00000307,0.00000297,-0.00001267,0.00000295,-0.00000162,-0.000
 00736,0.00000128,-0.00000052,-0.00000976,0.00000762,0.00000084,-0.0000
 0816,-0.00000288,-0.00000338,-0.00001412,-0.00000917,0.00000046,-0.000
 00636,-0.00000618,-0.00000009,-0.00000335,-0.00000725,0.00000040,0.000
 00124,0.00000159,0.00000267,0.00003189\\\@
 The archive entry for this job was punched.


 ALMOST ANYTHING IS EASIER TO GET INTO THAN OUT OF.

                         -- AGNES ALLEN'S LAW FROM
                PAUL DICKSON'S "THE OFFICIAL RULES"
 Job cpu time:       2 days 17 hours  1 minutes 50.1 seconds.
 Elapsed time:       0 days  1 hours 21 minutes 53.1 seconds.
 File lengths (MBytes):  RWF=   1938 Int=      0 D2E=      0 Chk=     70 Scr=      1
 Normal termination of Gaussian 16 at Tue May 21 05:18:42 2024.
