 Entering Gaussian System, Link 0=/cm/shared/apps//g16/g16
 Input=HZPt.gjf
 Output=HZPt.log
 Initial command:
 /cm/shared/apps//g16/l1.exe "/local/mvanvleet/pbs.14635.josephine/Gau-3321802.inp" -scrdir="/local/mvanvleet/pbs.14635.josephine/"
 Entering Link 1 = /cm/shared/apps//g16/l1.exe PID=   3321804.
  
 Copyright (c) 1988-2019, Gaussian, Inc.  All Rights Reserved.
  
 This is part of the Gaussian(R) 16 program.  It is based on
 the Gaussian(R) 09 system (copyright 2009, Gaussian, Inc.),
 the Gaussian(R) 03 system (copyright 2003, Gaussian, Inc.),
 the Gaussian(R) 98 system (copyright 1998, Gaussian, Inc.),
 the Gaussian(R) 94 system (copyright 1995, Gaussian, Inc.),
 the Gaussian 92(TM) system (copyright 1992, Gaussian, Inc.),
 the Gaussian 90(TM) system (copyright 1990, Gaussian, Inc.),
 the Gaussian 88(TM) system (copyright 1988, Gaussian, Inc.),
 the Gaussian 86(TM) system (copyright 1986, Carnegie Mellon
 University), and the Gaussian 82(TM) system (copyright 1983,
 Carnegie Mellon University). Gaussian is a federally registered
 trademark of Gaussian, Inc.
  
 This software contains proprietary and confidential information,
 including trade secrets, belonging to Gaussian, Inc.
  
 This software is provided under written license and may be
 used, copied, transmitted, or stored only in accord with that
 written license.
  
 The following legend is applicable only to US Government
 contracts under FAR:
  
                    RESTRICTED RIGHTS LEGEND
  
 Use, reproduction and disclosure by the US Government is
 subject to restrictions as set forth in subparagraphs (a)
 and (c) of the Commercial Computer Software - Restricted
 Rights clause in FAR 52.227-19.
  
 Gaussian, Inc.
 340 Quinnipiac St., Bldg. 40, Wallingford CT 06492
  
  
 ---------------------------------------------------------------
 Warning -- This program may not be used in any manner that
 competes with the business of Gaussian, Inc. or will provide
 assistance to any competitor of Gaussian, Inc.  The licensee
 of this program is prohibited from giving any competitor of
 Gaussian, Inc. access to this program.  By using this program,
 the user acknowledges that Gaussian, Inc. is engaged in the
 business of creating and licensing software in the field of
 computational chemistry and represents and warrants to the
 licensee that it is not a competitor of Gaussian, Inc. and that
 it will not use this program in any manner prohibited above.
 ---------------------------------------------------------------
  

 Cite this work as:
 Gaussian 16, Revision C.01,
 M. J. Frisch, G. W. Trucks, H. B. Schlegel, G. E. Scuseria, 
 M. A. Robb, J. R. Cheeseman, G. Scalmani, V. Barone, 
 G. A. Petersson, H. Nakatsuji, X. Li, M. Caricato, A. V. Marenich, 
 J. Bloino, B. G. Janesko, R. Gomperts, B. Mennucci, H. P. Hratchian, 
 J. V. Ortiz, A. F. Izmaylov, J. L. Sonnenberg, D. Williams-Young, 
 F. Ding, F. Lipparini, F. Egidi, J. Goings, B. Peng, A. Petrone, 
 T. Henderson, D. Ranasinghe, V. G. Zakrzewski, J. Gao, N. Rega, 
 G. Zheng, W. Liang, M. Hada, M. Ehara, K. Toyota, R. Fukuda, 
 J. Hasegawa, M. Ishida, T. Nakajima, Y. Honda, O. Kitao, H. Nakai, 
 T. Vreven, K. Throssell, J. A. Montgomery, Jr., J. E. Peralta, 
 F. Ogliaro, M. J. Bearpark, J. J. Heyd, E. N. Brothers, K. N. Kudin, 
 V. N. Staroverov, T. A. Keith, R. Kobayashi, J. Normand, 
 K. Raghavachari, A. P. Rendell, J. C. Burant, S. S. Iyengar, 
 J. Tomasi, M. Cossi, J. M. Millam, M. Klene, C. Adamo, R. Cammi, 
 J. W. Ochterski, R. L. Martin, K. Morokuma, O. Farkas, 
 J. B. Foresman, and D. J. Fox, Gaussian, Inc., Wallingford CT, 2019.
 
 ******************************************
 Gaussian 16:  ES64L-G16RevC.01  3-Jul-2019
                28-Mar-2024 
 ******************************************
 %nprocshared=6
 Will use up to    6 processors via shared memory.
 %chk=HZPt.chk
 %mem=2GB
 ----------------------------------------------------------
 # wb97xd def2TZVPP SCRF=(solvent=dichloromethane) opt freq
 ----------------------------------------------------------
 1/18=20,19=15,26=3,38=1/1,3;
 2/9=110,12=2,17=6,18=5,40=1/2;
 3/5=44,7=202,11=2,25=1,30=1,70=2201,71=1,72=9,74=-58/1,2,3;
 4//1;
 5/5=2,38=5,53=9/2;
 6/7=2,8=2,9=2,10=2,28=1/1;
 7//1,2,3,16;
 1/18=20,19=15,26=3/3(2);
 2/9=110/2;
 99//99;
 2/9=110/2;
 3/5=44,7=202,11=2,25=1,30=1,70=2205,71=1,72=9,74=-58/1,2,3;
 4/5=5,16=3,69=1/1;
 5/5=2,38=5,53=9/2;
 7//1,2,3,16;
 1/18=20,19=15,26=3/3(-5);
 2/9=110/2;
 6/7=2,8=2,9=2,10=2,19=2,28=1/1;
 99/9=1/99;
 ----
 HZPt
 ----
 Symbolic Z-matrix:
 Charge =  2 Multiplicity = 1
 Pt                    0.96509   0.        0.00996 
 C                    -1.47733  -1.2043   -0.4322 
 C                    -1.47733   1.2043   -0.43219 
 C                    -2.78858  -1.24656  -0.07812 
 C                    -2.78858   1.24656  -0.07811 
 C                    -3.56262   0.        0.10719 
 H                    -3.31273  -2.19867   0.04598 
 H                    -3.31273   2.19867   0.04598 
 O                    -4.75018   0.        0.41034 
 N                    -0.84061   0.       -0.70675 
 C                    -0.52902  -2.3494   -0.68047 
 H                    -0.27828  -2.38399  -1.75581 
 H                    -0.93664  -3.32705  -0.36792 
 C                    -0.52902   2.3494   -0.68047 
 H                    -0.27828   2.38399  -1.75581 
 H                    -0.93664   3.32705  -0.36792 
 N                     0.75921  -2.07152   0.06061 
 N                     0.75921   2.07152   0.06061 
 C                     1.87822  -2.8289   -0.55789 
 H                     2.79562  -2.64824   0.02396 
 H                     1.64921  -3.91122  -0.54457 
 H                     2.01788  -2.48858  -1.59415 
 C                     0.59592  -2.4952    1.483 
 H                     0.45333  -3.59155   1.52285 
 H                     1.49765  -2.22196   2.05093 
 H                    -0.28365  -1.98988   1.91087 
 C                     1.87823   2.8289   -0.55789 
 H                     1.64921   3.91122  -0.54457 
 H                     2.79562   2.64824   0.02396 
 H                     2.01788   2.48858  -1.59415 
 C                     0.59592   2.4952    1.483 
 H                     1.49765   2.22196   2.05093 
 H                     0.45333   3.59155   1.52285 
 H                    -0.28364   1.98988   1.91087 
 H                    -4.75018   1.        0.41034 
 

 GradGradGradGradGradGradGradGradGradGradGradGradGradGradGradGradGradGrad
 Berny optimization.
 Initialization pass.
                           ----------------------------
                           !    Initial Parameters    !
                           ! (Angstroms and Degrees)  !
 --------------------------                            --------------------------
 ! Name  Definition              Value          Derivative Info.                !
 --------------------------------------------------------------------------------
 ! R1    R(1,10)                 1.9427         estimate D2E/DX2                !
 ! R2    R(1,17)                 2.0823         estimate D2E/DX2                !
 ! R3    R(1,18)                 2.0823         estimate D2E/DX2                !
 ! R4    R(2,4)                  1.3589         estimate D2E/DX2                !
 ! R5    R(2,10)                 1.3897         estimate D2E/DX2                !
 ! R6    R(2,11)                 1.5074         estimate D2E/DX2                !
 ! R7    R(3,5)                  1.3589         estimate D2E/DX2                !
 ! R8    R(3,10)                 1.3897         estimate D2E/DX2                !
 ! R9    R(3,14)                 1.5074         estimate D2E/DX2                !
 ! R10   R(4,6)                  1.479          estimate D2E/DX2                !
 ! R11   R(4,7)                  1.0939         estimate D2E/DX2                !
 ! R12   R(5,6)                  1.479          estimate D2E/DX2                !
 ! R13   R(5,8)                  1.0939         estimate D2E/DX2                !
 ! R14   R(6,9)                  1.2256         estimate D2E/DX2                !
 ! R15   R(9,35)                 1.0            estimate D2E/DX2                !
 ! R16   R(11,12)                1.1047         estimate D2E/DX2                !
 ! R17   R(11,13)                1.1044         estimate D2E/DX2                !
 ! R18   R(11,17)                1.5119         estimate D2E/DX2                !
 ! R19   R(14,15)                1.1047         estimate D2E/DX2                !
 ! R20   R(14,16)                1.1044         estimate D2E/DX2                !
 ! R21   R(14,18)                1.5119         estimate D2E/DX2                !
 ! R22   R(17,19)                1.4861         estimate D2E/DX2                !
 ! R23   R(17,23)                1.4931         estimate D2E/DX2                !
 ! R24   R(18,27)                1.4861         estimate D2E/DX2                !
 ! R25   R(18,31)                1.4931         estimate D2E/DX2                !
 ! R26   R(19,20)                1.1013         estimate D2E/DX2                !
 ! R27   R(19,21)                1.1064         estimate D2E/DX2                !
 ! R28   R(19,22)                1.0996         estimate D2E/DX2                !
 ! R29   R(23,24)                1.1063         estimate D2E/DX2                !
 ! R30   R(23,25)                1.1001         estimate D2E/DX2                !
 ! R31   R(23,26)                1.1009         estimate D2E/DX2                !
 ! R32   R(27,28)                1.1064         estimate D2E/DX2                !
 ! R33   R(27,29)                1.1013         estimate D2E/DX2                !
 ! R34   R(27,30)                1.0996         estimate D2E/DX2                !
 ! R35   R(31,32)                1.1001         estimate D2E/DX2                !
 ! R36   R(31,33)                1.1063         estimate D2E/DX2                !
 ! R37   R(31,34)                1.1009         estimate D2E/DX2                !
 ! A1    A(10,1,17)             85.2435         estimate D2E/DX2                !
 ! A2    A(10,1,18)             85.2435         estimate D2E/DX2                !
 ! A3    A(4,2,10)             121.3699         estimate D2E/DX2                !
 ! A4    A(4,2,11)             128.7818         estimate D2E/DX2                !
 ! A5    A(10,2,11)            109.7276         estimate D2E/DX2                !
 ! A6    A(5,3,10)             121.37           estimate D2E/DX2                !
 ! A7    A(5,3,14)             128.7819         estimate D2E/DX2                !
 ! A8    A(10,3,14)            109.7274         estimate D2E/DX2                !
 ! A9    A(2,4,6)              120.7608         estimate D2E/DX2                !
 ! A10   A(2,4,7)              121.2643         estimate D2E/DX2                !
 ! A11   A(6,4,7)              117.944          estimate D2E/DX2                !
 ! A12   A(3,5,6)              120.7607         estimate D2E/DX2                !
 ! A13   A(3,5,8)              121.2642         estimate D2E/DX2                !
 ! A14   A(6,5,8)              117.9442         estimate D2E/DX2                !
 ! A15   A(4,6,5)              114.8846         estimate D2E/DX2                !
 ! A16   A(4,6,9)              122.5536         estimate D2E/DX2                !
 ! A17   A(5,6,9)              122.5536         estimate D2E/DX2                !
 ! A18   A(6,9,35)              90.0            estimate D2E/DX2                !
 ! A19   A(1,10,2)             110.6698         estimate D2E/DX2                !
 ! A20   A(1,10,3)             110.6696         estimate D2E/DX2                !
 ! A21   A(2,10,3)             120.1364         estimate D2E/DX2                !
 ! A22   A(2,11,12)            109.0806         estimate D2E/DX2                !
 ! A23   A(2,11,13)            113.1836         estimate D2E/DX2                !
 ! A24   A(2,11,17)            108.4019         estimate D2E/DX2                !
 ! A25   A(12,11,13)           109.3622         estimate D2E/DX2                !
 ! A26   A(12,11,17)           106.8269         estimate D2E/DX2                !
 ! A27   A(13,11,17)           109.7835         estimate D2E/DX2                !
 ! A28   A(3,14,15)            109.0809         estimate D2E/DX2                !
 ! A29   A(3,14,16)            113.1835         estimate D2E/DX2                !
 ! A30   A(3,14,18)            108.4017         estimate D2E/DX2                !
 ! A31   A(15,14,16)           109.3622         estimate D2E/DX2                !
 ! A32   A(15,14,18)           106.8269         estimate D2E/DX2                !
 ! A33   A(16,14,18)           109.7835         estimate D2E/DX2                !
 ! A34   A(1,17,11)            104.7827         estimate D2E/DX2                !
 ! A35   A(1,17,19)            114.9886         estimate D2E/DX2                !
 ! A36   A(1,17,23)            108.4373         estimate D2E/DX2                !
 ! A37   A(11,17,19)           110.1158         estimate D2E/DX2                !
 ! A38   A(11,17,23)           108.76           estimate D2E/DX2                !
 ! A39   A(19,17,23)           109.5253         estimate D2E/DX2                !
 ! A40   A(1,18,14)            104.7827         estimate D2E/DX2                !
 ! A41   A(1,18,27)            114.9884         estimate D2E/DX2                !
 ! A42   A(1,18,31)            108.4373         estimate D2E/DX2                !
 ! A43   A(14,18,27)           110.1161         estimate D2E/DX2                !
 ! A44   A(14,18,31)           108.76           estimate D2E/DX2                !
 ! A45   A(27,18,31)           109.5252         estimate D2E/DX2                !
 ! A46   A(17,19,20)           108.8914         estimate D2E/DX2                !
 ! A47   A(17,19,21)           109.7371         estimate D2E/DX2                !
 ! A48   A(17,19,22)           109.2765         estimate D2E/DX2                !
 ! A49   A(20,19,21)           109.0597         estimate D2E/DX2                !
 ! A50   A(20,19,22)           109.9578         estimate D2E/DX2                !
 ! A51   A(21,19,22)           109.9012         estimate D2E/DX2                !
 ! A52   A(17,23,24)           109.2455         estimate D2E/DX2                !
 ! A53   A(17,23,25)           109.37           estimate D2E/DX2                !
 ! A54   A(17,23,26)           109.109          estimate D2E/DX2                !
 ! A55   A(24,23,25)           109.462          estimate D2E/DX2                !
 ! A56   A(24,23,26)           109.7483         estimate D2E/DX2                !
 ! A57   A(25,23,26)           109.8897         estimate D2E/DX2                !
 ! A58   A(18,27,28)           109.7364         estimate D2E/DX2                !
 ! A59   A(18,27,29)           108.8914         estimate D2E/DX2                !
 ! A60   A(18,27,30)           109.276          estimate D2E/DX2                !
 ! A61   A(28,27,29)           109.0601         estimate D2E/DX2                !
 ! A62   A(28,27,30)           109.9012         estimate D2E/DX2                !
 ! A63   A(29,27,30)           109.9585         estimate D2E/DX2                !
 ! A64   A(18,31,32)           109.37           estimate D2E/DX2                !
 ! A65   A(18,31,33)           109.2455         estimate D2E/DX2                !
 ! A66   A(18,31,34)           109.1091         estimate D2E/DX2                !
 ! A67   A(32,31,33)           109.462          estimate D2E/DX2                !
 ! A68   A(32,31,34)           109.8894         estimate D2E/DX2                !
 ! A69   A(33,31,34)           109.7486         estimate D2E/DX2                !
 ! A70   L(17,1,18,10,-1)      170.4869         estimate D2E/DX2                !
 ! A71   L(17,1,18,10,-2)      173.2023         estimate D2E/DX2                !
 ! D1    D(17,1,10,2)           18.7446         estimate D2E/DX2                !
 ! D2    D(17,1,10,3)          154.4572         estimate D2E/DX2                !
 ! D3    D(18,1,10,2)         -154.4576         estimate D2E/DX2                !
 ! D4    D(18,1,10,3)          -18.745          estimate D2E/DX2                !
 ! D5    D(10,1,17,11)           9.0382         estimate D2E/DX2                !
 ! D6    D(10,1,17,19)         130.0635         estimate D2E/DX2                !
 ! D7    D(10,1,17,23)        -106.9755         estimate D2E/DX2                !
 ! D8    D(10,1,18,14)          -9.0382         estimate D2E/DX2                !
 ! D9    D(10,1,18,27)        -130.0637         estimate D2E/DX2                !
 ! D10   D(10,1,18,31)         106.9755         estimate D2E/DX2                !
 ! D11   D(10,2,4,6)            -3.7576         estimate D2E/DX2                !
 ! D12   D(10,2,4,7)           174.179          estimate D2E/DX2                !
 ! D13   D(11,2,4,6)          -179.3356         estimate D2E/DX2                !
 ! D14   D(11,2,4,7)            -1.399          estimate D2E/DX2                !
 ! D15   D(4,2,10,1)           140.5664         estimate D2E/DX2                !
 ! D16   D(4,2,10,3)             9.6285         estimate D2E/DX2                !
 ! D17   D(11,2,10,1)          -43.0945         estimate D2E/DX2                !
 ! D18   D(11,2,10,3)         -174.0324         estimate D2E/DX2                !
 ! D19   D(4,2,11,12)          111.2428         estimate D2E/DX2                !
 ! D20   D(4,2,11,13)          -10.7468         estimate D2E/DX2                !
 ! D21   D(4,2,11,17)         -132.7875         estimate D2E/DX2                !
 ! D22   D(10,2,11,12)         -64.7469         estimate D2E/DX2                !
 ! D23   D(10,2,11,13)         173.2635         estimate D2E/DX2                !
 ! D24   D(10,2,11,17)          51.2228         estimate D2E/DX2                !
 ! D25   D(10,3,5,6)             3.7576         estimate D2E/DX2                !
 ! D26   D(10,3,5,8)          -174.1779         estimate D2E/DX2                !
 ! D27   D(14,3,5,6)           179.3347         estimate D2E/DX2                !
 ! D28   D(14,3,5,8)             1.3991         estimate D2E/DX2                !
 ! D29   D(5,3,10,1)          -140.5665         estimate D2E/DX2                !
 ! D30   D(5,3,10,2)            -9.6285         estimate D2E/DX2                !
 ! D31   D(14,3,10,1)           43.0952         estimate D2E/DX2                !
 ! D32   D(14,3,10,2)          174.0331         estimate D2E/DX2                !
 ! D33   D(5,3,14,15)         -111.2425         estimate D2E/DX2                !
 ! D34   D(5,3,14,16)           10.7473         estimate D2E/DX2                !
 ! D35   D(5,3,14,18)          132.7877         estimate D2E/DX2                !
 ! D36   D(10,3,14,15)          64.7463         estimate D2E/DX2                !
 ! D37   D(10,3,14,16)        -173.2639         estimate D2E/DX2                !
 ! D38   D(10,3,14,18)         -51.2234         estimate D2E/DX2                !
 ! D39   D(2,4,6,5)             -1.9171         estimate D2E/DX2                !
 ! D40   D(2,4,6,9)            179.0996         estimate D2E/DX2                !
 ! D41   D(7,4,6,5)           -179.9206         estimate D2E/DX2                !
 ! D42   D(7,4,6,9)              1.0961         estimate D2E/DX2                !
 ! D43   D(3,5,6,4)              1.9171         estimate D2E/DX2                !
 ! D44   D(3,5,6,9)           -179.0996         estimate D2E/DX2                !
 ! D45   D(8,5,6,4)            179.9196         estimate D2E/DX2                !
 ! D46   D(8,5,6,9)             -1.0971         estimate D2E/DX2                !
 ! D47   D(4,6,9,35)           179.4531         estimate D2E/DX2                !
 ! D48   D(5,6,9,35)             0.5473         estimate D2E/DX2                !
 ! D49   D(2,11,17,1)          -32.9298         estimate D2E/DX2                !
 ! D50   D(2,11,17,19)        -157.1194         estimate D2E/DX2                !
 ! D51   D(2,11,17,23)          82.8603         estimate D2E/DX2                !
 ! D52   D(12,11,17,1)          84.4922         estimate D2E/DX2                !
 ! D53   D(12,11,17,19)        -39.6974         estimate D2E/DX2                !
 ! D54   D(12,11,17,23)       -159.7177         estimate D2E/DX2                !
 ! D55   D(13,11,17,1)        -157.0262         estimate D2E/DX2                !
 ! D56   D(13,11,17,19)         78.7842         estimate D2E/DX2                !
 ! D57   D(13,11,17,23)        -41.2361         estimate D2E/DX2                !
 ! D58   D(3,14,18,1)           32.9301         estimate D2E/DX2                !
 ! D59   D(3,14,18,27)         157.1197         estimate D2E/DX2                !
 ! D60   D(3,14,18,31)         -82.86           estimate D2E/DX2                !
 ! D61   D(15,14,18,1)         -84.4922         estimate D2E/DX2                !
 ! D62   D(15,14,18,27)         39.6973         estimate D2E/DX2                !
 ! D63   D(15,14,18,31)        159.7177         estimate D2E/DX2                !
 ! D64   D(16,14,18,1)         157.0262         estimate D2E/DX2                !
 ! D65   D(16,14,18,27)        -78.7843         estimate D2E/DX2                !
 ! D66   D(16,14,18,31)         41.2361         estimate D2E/DX2                !
 ! D67   D(1,17,19,20)          64.4788         estimate D2E/DX2                !
 ! D68   D(1,17,19,21)        -176.2158         estimate D2E/DX2                !
 ! D69   D(1,17,19,22)         -55.645          estimate D2E/DX2                !
 ! D70   D(11,17,19,20)       -177.4548         estimate D2E/DX2                !
 ! D71   D(11,17,19,21)        -58.1494         estimate D2E/DX2                !
 ! D72   D(11,17,19,22)         62.4214         estimate D2E/DX2                !
 ! D73   D(23,17,19,20)        -57.8986         estimate D2E/DX2                !
 ! D74   D(23,17,19,21)         61.4068         estimate D2E/DX2                !
 ! D75   D(23,17,19,22)       -178.0224         estimate D2E/DX2                !
 ! D76   D(1,17,23,24)         178.2312         estimate D2E/DX2                !
 ! D77   D(1,17,23,25)         -61.979          estimate D2E/DX2                !
 ! D78   D(1,17,23,26)          58.2499         estimate D2E/DX2                !
 ! D79   D(11,17,23,24)         64.8228         estimate D2E/DX2                !
 ! D80   D(11,17,23,25)       -175.3874         estimate D2E/DX2                !
 ! D81   D(11,17,23,26)        -55.1585         estimate D2E/DX2                !
 ! D82   D(19,17,23,24)        -55.5631         estimate D2E/DX2                !
 ! D83   D(19,17,23,25)         64.2266         estimate D2E/DX2                !
 ! D84   D(19,17,23,26)       -175.5444         estimate D2E/DX2                !
 ! D85   D(1,18,27,28)         176.2156         estimate D2E/DX2                !
 ! D86   D(1,18,27,29)         -64.4789         estimate D2E/DX2                !
 ! D87   D(1,18,27,30)          55.6455         estimate D2E/DX2                !
 ! D88   D(14,18,27,28)         58.1491         estimate D2E/DX2                !
 ! D89   D(14,18,27,29)        177.4547         estimate D2E/DX2                !
 ! D90   D(14,18,27,30)        -62.421          estimate D2E/DX2                !
 ! D91   D(31,18,27,28)        -61.4072         estimate D2E/DX2                !
 ! D92   D(31,18,27,29)         57.8984         estimate D2E/DX2                !
 ! D93   D(31,18,27,30)        178.0227         estimate D2E/DX2                !
 ! D94   D(1,18,31,32)          61.979          estimate D2E/DX2                !
 ! D95   D(1,18,31,33)        -178.2312         estimate D2E/DX2                !
 ! D96   D(1,18,31,34)         -58.2496         estimate D2E/DX2                !
 ! D97   D(14,18,31,32)        175.3874         estimate D2E/DX2                !
 ! D98   D(14,18,31,33)        -64.8228         estimate D2E/DX2                !
 ! D99   D(14,18,31,34)         55.1588         estimate D2E/DX2                !
 ! D100  D(27,18,31,32)        -64.2264         estimate D2E/DX2                !
 ! D101  D(27,18,31,33)         55.5634         estimate D2E/DX2                !
 ! D102  D(27,18,31,34)        175.545          estimate D2E/DX2                !
 --------------------------------------------------------------------------------
 Trust Radius=3.00D-01 FncErr=1.00D-07 GrdErr=1.00D-06 EigMax=2.50D+02 EigMin=1.00D-04
 Number of steps in this run=    210 maximum allowed number of steps=    210.
 GradGradGradGradGradGradGradGradGradGradGradGradGradGradGradGradGradGrad

                          Input orientation:                          
 ---------------------------------------------------------------------
 Center     Atomic      Atomic             Coordinates (Angstroms)
 Number     Number       Type             X           Y           Z
 ---------------------------------------------------------------------
      1         78           0        0.965090    0.000000    0.009960
      2          6           0       -1.477330   -1.204300   -0.432200
      3          6           0       -1.477330    1.204300   -0.432190
      4          6           0       -2.788580   -1.246560   -0.078120
      5          6           0       -2.788580    1.246560   -0.078110
      6          6           0       -3.562620    0.000000    0.107190
      7          1           0       -3.312730   -2.198670    0.045980
      8          1           0       -3.312730    2.198670    0.045980
      9          8           0       -4.750180    0.000000    0.410340
     10          7           0       -0.840610    0.000000   -0.706750
     11          6           0       -0.529020   -2.349400   -0.680470
     12          1           0       -0.278280   -2.383990   -1.755810
     13          1           0       -0.936640   -3.327050   -0.367920
     14          6           0       -0.529020    2.349400   -0.680470
     15          1           0       -0.278280    2.383990   -1.755810
     16          1           0       -0.936640    3.327050   -0.367920
     17          7           0        0.759210   -2.071520    0.060610
     18          7           0        0.759210    2.071520    0.060610
     19          6           0        1.878220   -2.828900   -0.557890
     20          1           0        2.795620   -2.648240    0.023960
     21          1           0        1.649210   -3.911220   -0.544570
     22          1           0        2.017880   -2.488580   -1.594150
     23          6           0        0.595920   -2.495200    1.483000
     24          1           0        0.453330   -3.591550    1.522850
     25          1           0        1.497650   -2.221960    2.050930
     26          1           0       -0.283650   -1.989880    1.910870
     27          6           0        1.878230    2.828900   -0.557890
     28          1           0        1.649210    3.911220   -0.544570
     29          1           0        2.795620    2.648240    0.023960
     30          1           0        2.017880    2.488580   -1.594150
     31          6           0        0.595920    2.495200    1.483000
     32          1           0        1.497650    2.221960    2.050930
     33          1           0        0.453330    3.591550    1.522850
     34          1           0       -0.283640    1.989880    1.910870
     35          1           0       -4.750180    1.000000    0.410340
 ---------------------------------------------------------------------
                    Distance matrix (angstroms):
                    1          2          3          4          5
     1  Pt   0.000000
     2  C    2.758851   0.000000
     3  C    2.758850   2.408600   0.000000
     4  C    3.956224   1.358873   2.802045   0.000000
     5  C    3.956224   2.802048   1.358873   2.493120   0.000000
     6  C    4.528754   2.467735   2.467732   1.478983   1.478981
     7  H    4.809906   2.141523   3.895837   1.093914   3.487082
     8  H    4.809906   3.895838   2.141521   3.487082   1.093913
     9  O    5.729277   3.587723   3.587721   2.374948   2.374946
    10  N    1.942737   1.389651   1.389652   2.396596   2.396599
    11  C    2.868578   1.507376   3.686424   2.585477   4.289450
    12  H    3.216725   2.140405   4.008181   3.226453   4.721989
    13  H    3.850796   2.191471   4.563947   2.800376   4.942831
    14  C    2.868578   3.686423   1.507378   4.289448   2.585480
    15  H    3.216725   4.008178   2.140411   4.721985   3.226458
    16  H    3.850796   4.563947   2.191471   4.942831   2.800377
    17  N    2.082342   2.448886   3.996994   3.645081   4.859600
    18  N    2.082342   3.996995   2.448884   4.859600   3.645081
    19  C    3.026373   3.730260   5.248068   4.951061   6.214385
    20  H    3.219349   4.533337   5.771329   5.758335   6.809051
    21  H    4.009135   4.137064   5.996368   5.197304   6.820136
    22  H    3.142382   3.900769   5.215746   5.190666   6.273094
    23  C    2.920986   3.103672   4.653237   3.930781   5.281351
    24  H    3.930644   3.639867   5.527188   4.309532   6.039897
    25  H    3.063704   4.006504   5.172586   4.884263   5.910601
    26  H    3.021992   2.744446   4.137341   3.283791   4.550303
    27  C    3.026376   5.248074   3.730269   6.214392   4.951071
    28  H    4.009135   5.996368   4.137064   6.820136   5.197305
    29  H    3.219349   5.771330   4.533336   6.809051   5.758334
    30  H    3.142382   5.215744   3.900772   6.273091   5.190669
    31  C    2.920986   4.653242   3.103666   5.281354   3.930777
    32  H    3.063704   5.172591   4.006498   5.910605   4.884259
    33  H    3.930644   5.527191   3.639862   6.039900   4.309528
    34  H    3.021987   4.137349   2.744442   4.550313   3.283792
    35  H    5.815893   4.034893   3.385726   3.022168   2.036480
                    6          7          8          9         10
     6  C    0.000000
     7  H    2.213671   0.000000
     8  H    2.213671   4.397340   0.000000
     9  O    1.225642   2.652013   2.652013   0.000000
    10  N    2.841098   3.392953   3.392953   4.066033   0.000000
    11  C    3.916991   2.880884   5.381609   4.952549   2.370118
    12  H    4.465542   3.533932   5.784039   5.511216   2.664611
    13  H    4.265063   2.662773   6.029154   5.120355   3.345637
    14  C    3.916991   5.381609   2.880884   4.952549   2.370118
    15  H    4.465542   5.784039   3.533932   5.511216   2.664611
    16  H    4.265063   6.029154   2.662773   5.120355   3.345637
    17  N    4.792868   4.073951   5.900460   5.896345   2.727537
    18  N    4.792868   5.900460   4.073951   5.896345   2.727537
    19  C    6.168286   5.263821   7.251695   7.271577   3.926432
    20  H    6.888201   6.124911   7.797754   8.006345   4.557333
    21  H    6.548710   5.282275   7.893057   7.560535   4.639305
    22  H    6.342678   5.584754   7.285310   7.484494   3.892489
    23  C    5.041064   4.174985   6.274949   5.996450   3.617271
    24  H    5.570564   4.278372   7.063356   6.419768   4.420931
    25  H    5.858461   5.211537   6.833853   6.831107   4.243744
    26  H    4.238458   3.563248   5.495188   5.114793   3.334930
    27  C    6.168294   7.251702   5.263831   7.271586   3.926439
    28  H    6.548710   7.893057   5.282275   7.560535   4.639305
    29  H    6.888201   7.797754   6.124911   8.006345   4.557333
    30  H    6.342678   7.285310   5.584754   7.484494   3.892489
    31  C    5.041064   6.274949   4.174985   5.996450   3.617271
    32  H    5.858461   6.833853   5.211537   6.831107   4.243744
    33  H    5.570564   7.063356   4.278372   6.419768   4.420931
    34  H    4.238466   5.495194   3.563256   5.114801   3.334932
    35  H    1.581834   3.525693   1.906785   1.000000   4.187198
                   11         12         13         14         15
    11  C    0.000000
    12  H    1.104728   0.000000
    13  H    1.104374   1.802509   0.000000
    14  C    4.698800   4.860474   5.699643   0.000000
    15  H    4.860474   4.767980   5.914022   1.104728   0.000000
    16  H    5.699643   5.914022   6.654100   1.104374   1.802509
    17  N    1.511937   2.115042   2.153114   4.664040   4.922127
    18  N    4.664040   4.922127   5.674866   1.511937   2.115042
    19  C    2.457590   2.506681   2.864905   5.711797   5.767125
    20  H    3.411562   3.561779   3.813675   6.043663   6.159528
    21  H    2.683736   2.741305   2.656893   6.630122   6.694176
    22  H    2.709406   2.304219   3.306941   5.543245   5.388917
    23  C    2.442816   3.356558   2.542955   5.423674   5.921200
    24  H    2.713405   3.569743   2.361565   6.412060   6.855067
    25  H    3.403554   4.203742   3.605250   5.697830   6.233777
    26  H    2.627642   3.687803   2.721636   5.060099   5.707478
    27  C    5.711801   5.767128   6.771654   2.457600   2.506690
    28  H    6.630122   6.694176   7.688327   2.683736   2.741305
    29  H    6.043663   6.159528   7.056020   3.411562   3.561779
    30  H    5.543245   5.388917   6.637347   2.709406   2.304219
    31  C    5.423674   5.921200   6.298670   2.442816   3.356558
    32  H    5.697830   6.233777   6.524425   3.403554   4.203742
    33  H    6.412060   6.855067   7.305755   2.713405   3.569743
    34  H    5.060099   5.707478   5.821429   2.627643   3.687803
    35  H    5.497867   6.011779   5.819977   4.563873   5.158054
                   16         17         18         19         20
    16  H    0.000000
    17  N    5.674866   0.000000
    18  N    2.153114   4.143040   0.000000
    19  C    6.771650   1.486052   5.064469   0.000000
    20  H    7.056020   2.116817   5.140471   1.101277   0.000000
    21  H    7.688327   2.131394   6.078776   1.106363   1.797943
    22  H    6.637347   2.120476   5.011686   1.099617   1.802401
    23  C    6.298670   1.493105   4.785895   2.433286   2.644031
    24  H    7.305755   2.131244   5.856797   2.634659   2.936465
    25  H    6.524425   2.128215   4.789639   2.705393   2.444391
    26  H    5.821428   2.125484   4.583229   3.387095   3.670936
    27  C    2.864915   5.064471   1.486059   5.657800   5.583835
    28  H    2.656893   6.078776   2.131394   6.744023   6.683113
    29  H    3.813675   5.140471   2.116817   5.583837   5.296480
    30  H    3.306941   5.011686   2.120476   5.419311   5.441514
    31  C    2.542955   4.785895   1.493105   5.844276   5.781216
    32  H    3.605250   4.789639   2.128215   5.697540   5.432512
    33  H    2.361565   5.856797   2.131244   6.897968   6.831396
    34  H    2.721639   4.583227   2.125480   5.830013   5.878302
    35  H    4.534748   6.317430   5.623508   7.715804   8.390354
                   21         22         23         24         25
    21  H    0.000000
    22  H    1.805946   0.000000
    23  C    2.688043   3.389818   0.000000
    24  H    2.409677   3.657875   1.106302   0.000000
    25  H    3.100514   3.691657   1.100146   1.801458   0.000000
    26  H    3.668335   4.222666   1.100938   1.805283   1.801807
    27  C    6.744023   5.419311   5.844279   6.897971   5.697541
    28  H    7.822440   6.495766   6.801667   7.873748   6.661493
    29  H    6.683113   5.441514   5.781216   6.831396   5.432512
    30  H    6.495766   4.977160   6.027345   7.009386   5.978832
    31  C    6.801667   6.027345   4.990400   6.088550   4.836038
    32  H    6.661493   5.978832   4.836038   5.930124   4.443920
    33  H    7.873748   7.009386   6.088550   7.183100   5.930124
    34  H    6.677430   6.135044   4.590495   5.643230   4.575173
    35  H    8.123061   7.873678   6.476713   7.028266   7.218583
                   26         27         28         29         30
    26  H    0.000000
    27  C    5.830021   0.000000
    28  H    6.677433   1.106365   0.000000
    29  H    5.878307   1.101268   1.797943   0.000000
    30  H    6.135048   1.099616   1.805946   1.802401   0.000000
    31  C    4.590497   2.433291   2.688043   2.644031   3.389818
    32  H    4.575177   2.705394   3.100514   2.444391   3.691657
    33  H    5.643231   2.634664   2.409677   2.936465   3.657875
    34  H    3.979760   3.387095   3.668330   3.670928   4.222660
    35  H    5.580400   6.943930   7.095016   7.733375   7.213909
                   31         32         33         34         35
    31  C    0.000000
    32  H    1.100146   0.000000
    33  H    1.106302   1.801458   0.000000
    34  H    1.100930   1.801797   1.805279   0.000000
    35  H    5.653937   6.574200   5.918642   4.814710   0.000000
 Stoichiometry    C11H19N3OPt(2+)
 Framework group  C1[X(C11H19N3OPt)]
 Deg. of freedom    99
 Full point group                 C1      NOp   1
 Largest Abelian subgroup         C1      NOp   1
 Largest concise Abelian subgroup C1      NOp   1
                         Standard orientation:                         
 ---------------------------------------------------------------------
 Center     Atomic      Atomic             Coordinates (Angstroms)
 Number     Number       Type             X           Y           Z
 ---------------------------------------------------------------------
      1         78           0        0.989169    0.035565    0.011531
      2          6           0       -1.399900   -1.268656   -0.438598
      3          6           0       -1.499081    1.137900   -0.440927
      4          6           0       -2.709627   -1.364590   -0.089387
      5          6           0       -2.812288    1.126415   -0.091798
      6          6           0       -3.535036   -0.150812    0.091814
      7          1           0       -3.194591   -2.337376    0.033675
      8          1           0       -3.375664    2.056233    0.029404
      9          8           0       -4.722726   -0.199470    0.390517
     10          7           0       -0.812277   -0.039381   -0.711932
     11          6           0       -0.404310   -2.373934   -0.682204
     12          1           0       -0.148296   -2.399047   -1.756564
     13          1           0       -0.772505   -3.367286   -0.370233
     14          6           0       -0.597796    2.320878   -0.686767
     15          1           0       -0.344631    2.364887   -1.761195
     16          1           0       -1.046507    3.281168   -0.376695
     17          7           0        0.868575   -2.042634    0.063422
     18          7           0        0.697973    2.096890    0.059399
     19          6           0        2.020153   -2.753794   -0.550150
     20          1           0        2.927130   -2.535033    0.034954
     21          1           0        1.835856   -3.844616   -0.536636
     22          1           0        2.149596   -2.408857   -1.586210
     23          6           0        0.717494   -2.471518    1.485602
     24          1           0        0.620021   -3.572777    1.525982
     25          1           0        1.605055   -2.160912    2.056637
     26          1           0       -0.183748   -2.002500    1.909686
     27          6           0        1.787187    2.899205   -0.555644
     28          1           0        1.513745    3.971186   -0.544232
     29          1           0        2.709032    2.756952    0.029811
     30          1           0        1.944648    2.564079   -1.591043
     31          6           0        0.512001    2.514647    1.480755
     32          1           0        1.422064    2.279236    2.052321
     33          1           0        0.324237    3.604227    1.519007
     34          1           0       -0.347616    1.973883    1.905821
     35          1           0       -4.763903    0.799681    0.389546
 ---------------------------------------------------------------------
 Rotational constants (GHZ):           0.5428909           0.4016189           0.2589561
 Standard basis: def2TZVPP (5D, 7F)
 There are   896 symmetry adapted cartesian basis functions of A   symmetry.
 There are   787 symmetry adapted basis functions of A   symmetry.
   787 basis functions,  1188 primitive gaussians,   896 cartesian basis functions
    65 alpha electrons       65 beta electrons
       nuclear repulsion energy      1392.0986673952 Hartrees.
 NAtoms=   35 NActive=   35 NUniq=   35 SFac= 1.00D+00 NAtFMM=   60 NAOKFM=F Big=F
 Integral buffers will be    131072 words long.
 Raffenetti 2 integral format.
 Two-electron integral symmetry is turned on.
 Nuclear repulsion after empirical dispersion term =     1392.0625109652 Hartrees.
 ------------------------------------------------------------------------------
 Polarizable Continuum Model (PCM)
 =================================
 Model                : PCM.
 Atomic radii         : UFF (Universal Force Field).
 Polarization charges : Total charges.
 Charge compensation  : None.
 Solution method      : On-the-fly selection.
 Cavity type          : Scaled VdW (van der Waals Surface) (Alpha=1.100).
 Cavity algorithm     : GePol (No added spheres)
                        Default sphere list used, NSphG=   35.
                        Lebedev-Laikov grids with approx.  5.0 points / Ang**2.
                        Smoothing algorithm: York/Karplus (Gamma=1.0000).
                        Polarization charges: spherical gaussians, with
                                              point-specific exponents (IZeta= 3).
                        Self-potential: point-specific (ISelfS= 7).
                        Self-field    : sphere-specific E.n sum rule (ISelfD= 2).
 1st derivatives      : Analytical E(r).r(x)/FMM algorithm (CHGder, D1EAlg=3).
                        Cavity 1st derivative terms included.
 Solvent              : Dichloromethane, Eps=   8.930000 Eps(inf)=   2.028346
 ------------------------------------------------------------------------------
 One-electron integrals computed using PRISM.
   1 Symmetry operations used in ECPInt.
 ECPInt:  NShTT=   43660 NPrTT=  113928 LenC2=   39633 LenP2D=   79275.
 LDataN:  DoStor=T MaxTD1= 9 Len=  602
 NBasis=   787 RedAO= T EigKep=  2.09D-05  NBF=   787
 NBsUse=   787 1.00D-06 EigRej= -1.00D+00 NBFU=   787
 Defaulting to unpruned grid for atomic number  78.
 ExpMin= 4.92D-02 ExpMax= 2.70D+04 ExpMxC= 9.22D+02 IAcc=3 IRadAn=         5 AccDes= 0.00D+00
 Harris functional with IExCor= 4639 and IRadAn=       5 diagonalized for initial guess.
 HarFok:  IExCor= 4639 AccDes= 0.00D+00 IRadAn=         5 IDoV= 1 UseB2=F ITyADJ=14
 ICtDFT=  3500011 ScaDFX=  1.000000  1.000000  1.000000  1.000000
 Defaulting to unpruned grid for atomic number  78.
 FoFCou: FMM=F IPFlag=           0 FMFlag=      100000 FMFlg1=           0
         NFxFlg=           0 DoJE=T BraDBF=F KetDBF=T FulRan=T
         wScrn=  0.000000 ICntrl=       500 IOpCl=  0 I1Cent=   200000004 NGrid=           0
         NMat0=    1 NMatS0=      1 NMatT0=    0 NMatD0=    1 NMtDS0=    0 NMtDT0=    0
 Petite list used in FoFCou.
 Requested convergence on RMS density matrix=1.00D-08 within 128 cycles.
 Requested convergence on MAX density matrix=1.00D-06.
 Requested convergence on             energy=1.00D-06.
 No special actions if energy rises.
 Defaulting to unpruned grid for atomic number  78.
 Defaulting to unpruned grid for atomic number  78.
 Defaulting to unpruned grid for atomic number  78.
 Defaulting to unpruned grid for atomic number  78.
 Defaulting to unpruned grid for atomic number  78.
 Defaulting to unpruned grid for atomic number  78.
 Inv3:  Mode=1 IEnd=    16864923.
 Iteration    1 A*A^-1 deviation from unit magnitude is 3.33D-15 for   2202.
 Iteration    1 A*A^-1 deviation from orthogonality  is 1.78D-15 for   1609    635.
 Iteration    1 A^-1*A deviation from unit magnitude is 2.89D-15 for   1124.
 Iteration    1 A^-1*A deviation from orthogonality  is 2.02D-15 for   1995    181.
 Error on total polarization charges =  0.02020
 SCF Done:  E(RwB97XD) =  -789.207400511     A.U. after   20 cycles
            NFock= 20  Conv=0.48D-08     -V/T= 2.1175

 **********************************************************************

            Population analysis using the SCF Density.

 **********************************************************************

 Orbital symmetries:
       Occupied  (A) (A) (A) (A) (A) (A) (A) (A) (A) (A) (A) (A)
                 (A) (A) (A) (A) (A) (A) (A) (A) (A) (A) (A) (A)
                 (A) (A) (A) (A) (A) (A) (A) (A) (A) (A) (A) (A)
                 (A) (A) (A) (A) (A) (A) (A) (A) (A) (A) (A) (A)
                 (A) (A) (A) (A) (A) (A) (A) (A) (A) (A) (A) (A)
                 (A) (A) (A) (A) (A)
       Virtual   (A) (A) (A) (A) (A) (A) (A) (A) (A) (A) (A) (A)
                 (A) (A) (A) (A) (A) (A) (A) (A) (A) (A) (A) (A)
                 (A) (A) (A) (A) (A) (A) (A) (A) (A) (A) (A) (A)
                 (A) (A) (A) (A) (A) (A) (A) (A) (A) (A) (A) (A)
                 (A) (A) (A) (A) (A) (A) (A) (A) (A) (A) (A) (A)
                 (A) (A) (A) (A) (A) (A) (A) (A) (A) (A) (A) (A)
                 (A) (A) (A) (A) (A) (A) (A) (A) (A) (A) (A) (A)
                 (A) (A) (A) (A) (A) (A) (A) (A) (A) (A) (A) (A)
                 (A) (A) (A) (A) (A) (A) (A) (A) (A) (A) (A) (A)
                 (A) (A) (A) (A) (A) (A) (A) (A) (A) (A) (A) (A)
                 (A) (A) (A) (A) (A) (A) (A) (A) (A) (A) (A) (A)
                 (A) (A) (A) (A) (A) (A) (A) (A) (A) (A) (A) (A)
                 (A) (A) (A) (A) (A) (A) (A) (A) (A) (A) (A) (A)
                 (A) (A) (A) (A) (A) (A) (A) (A) (A) (A) (A) (A)
                 (A) (A) (A) (A) (A) (A) (A) (A) (A) (A) (A) (A)
                 (A) (A) (A) (A) (A) (A) (A) (A) (A) (A) (A) (A)
                 (A) (A) (A) (A) (A) (A) (A) (A) (A) (A) (A) (A)
                 (A) (A) (A) (A) (A) (A) (A) (A) (A) (A) (A) (A)
                 (A) (A) (A) (A) (A) (A) (A) (A) (A) (A) (A) (A)
                 (A) (A) (A) (A) (A) (A) (A) (A) (A) (A) (A) (A)
                 (A) (A) (A) (A) (A) (A) (A) (A) (A) (A) (A) (A)
                 (A) (A) (A) (A) (A) (A) (A) (A) (A) (A) (A) (A)
                 (A) (A) (A) (A) (A) (A) (A) (A) (A) (A) (A) (A)
                 (A) (A) (A) (A) (A) (A) (A) (A) (A) (A) (A) (A)
                 (A) (A) (A) (A) (A) (A) (A) (A) (A) (A) (A) (A)
                 (A) (A) (A) (A) (A) (A) (A) (A) (A) (A) (A) (A)
                 (A) (A) (A) (A) (A) (A) (A) (A) (A) (A) (A) (A)
                 (A) (A) (A) (A) (A) (A) (A) (A) (A) (A) (A) (A)
                 (A) (A) (A) (A) (A) (A) (A) (A) (A) (A) (A) (A)
                 (A) (A) (A) (A) (A) (A) (A) (A) (A) (A) (A) (A)
                 (A) (A) (A) (A) (A) (A) (A) (A) (A) (A) (A) (A)
                 (A) (A) (A) (A) (A) (A) (A) (A) (A) (A) (A) (A)
                 (A) (A) (A) (A) (A) (A) (A) (A) (A) (A) (A) (A)
                 (A) (A) (A) (A) (A) (A) (A) (A) (A) (A) (A) (A)
                 (A) (A) (A) (A) (A) (A) (A) (A) (A) (A) (A) (A)
                 (A) (A) (A) (A) (A) (A) (A) (A) (A) (A) (A) (A)
                 (A) (A) (A) (A) (A) (A) (A) (A) (A) (A) (A) (A)
                 (A) (A) (A) (A) (A) (A) (A) (A) (A) (A) (A) (A)
                 (A) (A) (A) (A) (A) (A) (A) (A) (A) (A) (A) (A)
                 (A) (A) (A) (A) (A) (A) (A) (A) (A) (A) (A) (A)
                 (A) (A) (A) (A) (A) (A) (A) (A) (A) (A) (A) (A)
                 (A) (A) (A) (A) (A) (A) (A) (A) (A) (A) (A) (A)
                 (A) (A) (A) (A) (A) (A) (A) (A) (A) (A) (A) (A)
                 (A) (A) (A) (A) (A) (A) (A) (A) (A) (A) (A) (A)
                 (A) (A) (A) (A) (A) (A) (A) (A) (A) (A) (A) (A)
                 (A) (A) (A) (A) (A) (A) (A) (A) (A) (A) (A) (A)
                 (A) (A) (A) (A) (A) (A) (A) (A) (A) (A) (A) (A)
                 (A) (A) (A) (A) (A) (A) (A) (A) (A) (A) (A) (A)
                 (A) (A) (A) (A) (A) (A) (A) (A) (A) (A) (A) (A)
                 (A) (A) (A) (A) (A) (A) (A) (A) (A) (A) (A) (A)
                 (A) (A) (A) (A) (A) (A) (A) (A) (A) (A) (A) (A)
                 (A) (A) (A) (A) (A) (A) (A) (A) (A) (A) (A) (A)
                 (A) (A) (A) (A) (A) (A) (A) (A) (A) (A) (A) (A)
                 (A) (A) (A) (A) (A) (A) (A) (A) (A) (A) (A) (A)
                 (A) (A) (A) (A) (A) (A) (A) (A) (A) (A) (A) (A)
                 (A) (A) (A) (A) (A) (A) (A) (A) (A) (A) (A) (A)
                 (A) (A) (A) (A) (A) (A) (A) (A) (A) (A) (A) (A)
                 (A) (A) (A) (A) (A) (A) (A) (A) (A) (A) (A) (A)
                 (A) (A) (A) (A) (A) (A) (A) (A) (A) (A) (A) (A)
                 (A) (A) (A) (A) (A) (A) (A) (A) (A) (A) (A) (A)
                 (A) (A)
 The electronic state is 1-A.
 Alpha  occ. eigenvalues --  -19.38754 -14.56637 -14.56564 -14.55434 -10.46491
 Alpha  occ. eigenvalues --  -10.41956 -10.41564 -10.39168 -10.38992 -10.36849
 Alpha  occ. eigenvalues --  -10.36249 -10.36181 -10.36151 -10.36095 -10.36043
 Alpha  occ. eigenvalues --   -4.09398  -2.34243  -2.34122  -2.30381  -1.32432
 Alpha  occ. eigenvalues --   -1.14367  -1.11276  -1.10267  -0.97395  -0.95292
 Alpha  occ. eigenvalues --   -0.88984  -0.87473  -0.86485  -0.86412  -0.80546
 Alpha  occ. eigenvalues --   -0.79006  -0.76263  -0.75392  -0.72808  -0.68587
 Alpha  occ. eigenvalues --   -0.65965  -0.65077  -0.64076  -0.63215  -0.62845
 Alpha  occ. eigenvalues --   -0.62166  -0.61511  -0.61462  -0.58868  -0.57554
 Alpha  occ. eigenvalues --   -0.57231  -0.55974  -0.54099  -0.53988  -0.53030
 Alpha  occ. eigenvalues --   -0.52545  -0.51889  -0.51391  -0.51080  -0.50748
 Alpha  occ. eigenvalues --   -0.50411  -0.49807  -0.48800  -0.43730  -0.42632
 Alpha  occ. eigenvalues --   -0.41496  -0.41098  -0.39300  -0.36857  -0.36220
 Alpha virt. eigenvalues --   -0.07122  -0.02429  -0.01562   0.03452   0.05368
 Alpha virt. eigenvalues --    0.07190   0.08303   0.08559   0.10477   0.10675
 Alpha virt. eigenvalues --    0.11585   0.12099   0.12255   0.12464   0.13665
 Alpha virt. eigenvalues --    0.13998   0.14042   0.14273   0.14581   0.15380
 Alpha virt. eigenvalues --    0.15546   0.16339   0.17325   0.17907   0.18391
 Alpha virt. eigenvalues --    0.18497   0.18843   0.19004   0.19227   0.20063
 Alpha virt. eigenvalues --    0.20239   0.21064   0.21414   0.22757   0.23043
 Alpha virt. eigenvalues --    0.23669   0.24327   0.24849   0.26133   0.26484
 Alpha virt. eigenvalues --    0.26920   0.28245   0.28702   0.28901   0.29747
 Alpha virt. eigenvalues --    0.30543   0.30890   0.31931   0.32728   0.33559
 Alpha virt. eigenvalues --    0.34150   0.34379   0.35131   0.35283   0.35462
 Alpha virt. eigenvalues --    0.35855   0.35863   0.36620   0.37520   0.37915
 Alpha virt. eigenvalues --    0.38459   0.39006   0.40368   0.40587   0.40812
 Alpha virt. eigenvalues --    0.41499   0.41701   0.42488   0.42744   0.43530
 Alpha virt. eigenvalues --    0.43695   0.44184   0.44562   0.45467   0.46107
 Alpha virt. eigenvalues --    0.46886   0.47217   0.47601   0.47871   0.48077
 Alpha virt. eigenvalues --    0.48547   0.48979   0.49086   0.49717   0.49973
 Alpha virt. eigenvalues --    0.50187   0.50650   0.50738   0.51282   0.52549
 Alpha virt. eigenvalues --    0.52794   0.53199   0.53419   0.53929   0.54783
 Alpha virt. eigenvalues --    0.55855   0.56056   0.56459   0.57089   0.57948
 Alpha virt. eigenvalues --    0.58736   0.59459   0.60661   0.61267   0.61687
 Alpha virt. eigenvalues --    0.62264   0.62685   0.64569   0.65324   0.65510
 Alpha virt. eigenvalues --    0.66472   0.67795   0.68002   0.68556   0.69172
 Alpha virt. eigenvalues --    0.69647   0.70301   0.70662   0.71689   0.72873
 Alpha virt. eigenvalues --    0.73003   0.73605   0.75873   0.77332   0.77626
 Alpha virt. eigenvalues --    0.78293   0.80062   0.81089   0.81508   0.82540
 Alpha virt. eigenvalues --    0.83456   0.84230   0.84908   0.85145   0.86009
 Alpha virt. eigenvalues --    0.86953   0.87276   0.87776   0.88853   0.89112
 Alpha virt. eigenvalues --    0.90137   0.90357   0.91304   0.91963   0.93195
 Alpha virt. eigenvalues --    0.93913   0.94862   0.95802   0.96960   0.97612
 Alpha virt. eigenvalues --    0.98042   0.98587   0.99117   0.99916   1.00453
 Alpha virt. eigenvalues --    1.01054   1.01422   1.01885   1.02625   1.03118
 Alpha virt. eigenvalues --    1.04142   1.04533   1.04968   1.05407   1.05611
 Alpha virt. eigenvalues --    1.05974   1.07247   1.07846   1.08458   1.09037
 Alpha virt. eigenvalues --    1.09765   1.11181   1.11386   1.11780   1.12266
 Alpha virt. eigenvalues --    1.14171   1.14902   1.15358   1.15693   1.16963
 Alpha virt. eigenvalues --    1.17492   1.18671   1.19511   1.20656   1.20871
 Alpha virt. eigenvalues --    1.22301   1.22670   1.23277   1.23797   1.24126
 Alpha virt. eigenvalues --    1.25343   1.25371   1.26952   1.27246   1.28298
 Alpha virt. eigenvalues --    1.28644   1.29804   1.30089   1.30420   1.31547
 Alpha virt. eigenvalues --    1.32008   1.33232   1.33746   1.34003   1.34751
 Alpha virt. eigenvalues --    1.35181   1.36365   1.37384   1.37578   1.38461
 Alpha virt. eigenvalues --    1.38639   1.39268   1.40359   1.40902   1.41422
 Alpha virt. eigenvalues --    1.41692   1.43531   1.44312   1.45029   1.45313
 Alpha virt. eigenvalues --    1.46073   1.47009   1.47922   1.48056   1.49226
 Alpha virt. eigenvalues --    1.49712   1.50584   1.51121   1.51888   1.52137
 Alpha virt. eigenvalues --    1.52314   1.54107   1.54409   1.55032   1.55686
 Alpha virt. eigenvalues --    1.56149   1.57394   1.58031   1.58940   1.59458
 Alpha virt. eigenvalues --    1.59479   1.60097   1.61618   1.62256   1.63018
 Alpha virt. eigenvalues --    1.63403   1.63716   1.64794   1.65003   1.66540
 Alpha virt. eigenvalues --    1.67308   1.67718   1.68430   1.70899   1.71005
 Alpha virt. eigenvalues --    1.72431   1.73354   1.74155   1.74948   1.76367
 Alpha virt. eigenvalues --    1.77550   1.77848   1.78637   1.80169   1.80645
 Alpha virt. eigenvalues --    1.81529   1.83009   1.83954   1.84793   1.85584
 Alpha virt. eigenvalues --    1.86860   1.87431   1.88035   1.90437   1.90872
 Alpha virt. eigenvalues --    1.91407   1.91702   1.93483   1.94149   1.95577
 Alpha virt. eigenvalues --    1.98351   2.01009   2.02499   2.03205   2.04097
 Alpha virt. eigenvalues --    2.06789   2.08321   2.09904   2.13430   2.14031
 Alpha virt. eigenvalues --    2.15092   2.16200   2.16568   2.17344   2.19351
 Alpha virt. eigenvalues --    2.20475   2.22250   2.23263   2.23903   2.24623
 Alpha virt. eigenvalues --    2.27367   2.28442   2.29563   2.30339   2.30920
 Alpha virt. eigenvalues --    2.32017   2.33492   2.36832   2.38199   2.39378
 Alpha virt. eigenvalues --    2.39723   2.43859   2.46181   2.47325   2.51399
 Alpha virt. eigenvalues --    2.53423   2.54365   2.54887   2.56219   2.56811
 Alpha virt. eigenvalues --    2.58187   2.60416   2.62187   2.62245   2.63094
 Alpha virt. eigenvalues --    2.63636   2.63993   2.64409   2.64885   2.67909
 Alpha virt. eigenvalues --    2.68824   2.69390   2.69627   2.70954   2.72863
 Alpha virt. eigenvalues --    2.73482   2.74600   2.76474   2.76846   2.78200
 Alpha virt. eigenvalues --    2.79216   2.80066   2.80536   2.81383   2.82457
 Alpha virt. eigenvalues --    2.82777   2.83837   2.84858   2.85228   2.85795
 Alpha virt. eigenvalues --    2.86346   2.87200   2.87957   2.88767   2.89504
 Alpha virt. eigenvalues --    2.89938   2.90512   2.91548   2.91645   2.91765
 Alpha virt. eigenvalues --    2.92449   2.93877   2.94845   2.95807   2.95985
 Alpha virt. eigenvalues --    2.96310   2.96696   2.97570   2.97965   2.98916
 Alpha virt. eigenvalues --    2.99638   3.00247   3.01549   3.01917   3.03424
 Alpha virt. eigenvalues --    3.04289   3.05243   3.05668   3.05859   3.07466
 Alpha virt. eigenvalues --    3.07767   3.07861   3.08960   3.09163   3.10877
 Alpha virt. eigenvalues --    3.11659   3.12496   3.13355   3.13845   3.14844
 Alpha virt. eigenvalues --    3.15062   3.16242   3.17747   3.18100   3.19039
 Alpha virt. eigenvalues --    3.19834   3.20316   3.20638   3.21223   3.22402
 Alpha virt. eigenvalues --    3.23426   3.24210   3.24385   3.25657   3.25945
 Alpha virt. eigenvalues --    3.26824   3.28079   3.28947   3.29732   3.30681
 Alpha virt. eigenvalues --    3.31098   3.31514   3.32222   3.33618   3.34307
 Alpha virt. eigenvalues --    3.35519   3.35595   3.36496   3.36869   3.37883
 Alpha virt. eigenvalues --    3.38441   3.38852   3.39283   3.39937   3.40317
 Alpha virt. eigenvalues --    3.41365   3.41980   3.42770   3.43879   3.44892
 Alpha virt. eigenvalues --    3.45492   3.45757   3.45975   3.46799   3.48077
 Alpha virt. eigenvalues --    3.48232   3.49271   3.49448   3.49651   3.50437
 Alpha virt. eigenvalues --    3.50967   3.51663   3.52811   3.52997   3.53193
 Alpha virt. eigenvalues --    3.53826   3.54134   3.55005   3.56037   3.57578
 Alpha virt. eigenvalues --    3.58986   3.59597   3.59991   3.60926   3.61132
 Alpha virt. eigenvalues --    3.61896   3.62158   3.63414   3.64219   3.64470
 Alpha virt. eigenvalues --    3.65314   3.66473   3.67475   3.68754   3.69024
 Alpha virt. eigenvalues --    3.69388   3.70234   3.70518   3.70825   3.72648
 Alpha virt. eigenvalues --    3.73027   3.73502   3.74091   3.74844   3.75501
 Alpha virt. eigenvalues --    3.76483   3.76997   3.77366   3.77717   3.78334
 Alpha virt. eigenvalues --    3.79172   3.79695   3.80530   3.80790   3.81814
 Alpha virt. eigenvalues --    3.82358   3.82898   3.83578   3.84956   3.85290
 Alpha virt. eigenvalues --    3.87590   3.89008   3.89256   3.90165   3.91279
 Alpha virt. eigenvalues --    3.91576   3.91702   3.93902   3.94072   3.95175
 Alpha virt. eigenvalues --    3.95906   3.96056   3.97320   3.98122   3.99540
 Alpha virt. eigenvalues --    3.99854   4.00667   4.00820   4.02010   4.03741
 Alpha virt. eigenvalues --    4.04839   4.06203   4.07038   4.07681   4.08885
 Alpha virt. eigenvalues --    4.09557   4.09921   4.10717   4.11288   4.12787
 Alpha virt. eigenvalues --    4.13058   4.13413   4.13965   4.15435   4.15574
 Alpha virt. eigenvalues --    4.16132   4.16726   4.17501   4.17881   4.18205
 Alpha virt. eigenvalues --    4.18655   4.19118   4.19400   4.19886   4.20677
 Alpha virt. eigenvalues --    4.20964   4.21969   4.22764   4.23867   4.24339
 Alpha virt. eigenvalues --    4.26098   4.26773   4.27157   4.27845   4.28469
 Alpha virt. eigenvalues --    4.29228   4.29725   4.30376   4.31331   4.31908
 Alpha virt. eigenvalues --    4.32879   4.33955   4.34589   4.35348   4.36904
 Alpha virt. eigenvalues --    4.38026   4.39155   4.41666   4.42032   4.43320
 Alpha virt. eigenvalues --    4.43469   4.44251   4.44724   4.46117   4.48213
 Alpha virt. eigenvalues --    4.48938   4.49830   4.50605   4.52601   4.54220
 Alpha virt. eigenvalues --    4.56388   4.58719   4.63674   4.64723   4.66049
 Alpha virt. eigenvalues --    4.66364   4.66964   4.69108   4.70196   4.71136
 Alpha virt. eigenvalues --    4.72776   4.73981   4.74256   4.74737   4.75363
 Alpha virt. eigenvalues --    4.76336   4.76700   4.78127   4.79312   4.80502
 Alpha virt. eigenvalues --    4.84191   4.85108   4.85726   4.85906   4.87953
 Alpha virt. eigenvalues --    4.89748   4.91630   4.93006   4.94625   4.95042
 Alpha virt. eigenvalues --    4.96498   4.98511   5.00497   5.01911   5.02695
 Alpha virt. eigenvalues --    5.03755   5.04133   5.05390   5.06816   5.08178
 Alpha virt. eigenvalues --    5.08631   5.10144   5.10416   5.11748   5.13315
 Alpha virt. eigenvalues --    5.13854   5.15005   5.15255   5.16839   5.17305
 Alpha virt. eigenvalues --    5.18408   5.19575   5.19924   5.20754   5.21913
 Alpha virt. eigenvalues --    5.23214   5.23746   5.25031   5.26310   5.26406
 Alpha virt. eigenvalues --    5.27809   5.28370   5.29281   5.29724   5.31214
 Alpha virt. eigenvalues --    5.31864   5.32965   5.34750   5.35502   5.35807
 Alpha virt. eigenvalues --    5.36240   5.36646   5.38027   5.39880   5.40652
 Alpha virt. eigenvalues --    5.44502   5.45056   5.45611   5.46787   5.48510
 Alpha virt. eigenvalues --    5.49193   5.49576   5.50752   5.51233   5.52031
 Alpha virt. eigenvalues --    5.54499   5.56293   5.57319   5.57851   5.59146
 Alpha virt. eigenvalues --    5.59800   5.61266   5.61869   5.64089   5.65274
 Alpha virt. eigenvalues --    5.65752   5.66296   5.68198   5.68883   5.70297
 Alpha virt. eigenvalues --    5.70646   5.71299   5.72102   5.72622   5.73429
 Alpha virt. eigenvalues --    5.74498   5.78038   5.79664   5.85939   5.87776
 Alpha virt. eigenvalues --    5.96181   5.99593   6.00190   6.01091   6.02193
 Alpha virt. eigenvalues --    6.05523   6.06634   6.08653   6.09973   6.18810
 Alpha virt. eigenvalues --    6.24305   6.25268   6.27059   6.31786   6.61590
 Alpha virt. eigenvalues --    6.64032   6.79140   6.79991   6.93678   7.24358
 Alpha virt. eigenvalues --    7.32521   7.53399  22.79997  23.01768  23.26921
 Alpha virt. eigenvalues --   23.31136  23.38853  23.43813  23.61901  23.66860
 Alpha virt. eigenvalues --   23.71863  23.74494  23.77467  30.01843  32.69079
 Alpha virt. eigenvalues --   32.79960  32.91060  35.16797  37.58101  44.09277
 Alpha virt. eigenvalues --   53.01429 285.05110
          Condensed to atoms (all electrons):
               1          2          3          4          5          6
     1  Pt  17.016322  -0.054519  -0.056400  -0.004682  -0.002810   0.005873
     2  C   -0.054519   5.086507  -0.034225   0.522722  -0.051990  -0.020133
     3  C   -0.056400  -0.034225   5.189324  -0.047403   0.387516   0.000809
     4  C   -0.004682   0.522722  -0.047403   4.947656   0.030749   0.417734
     5  C   -0.002810  -0.051990   0.387516   0.030749   5.173973   0.397611
     6  C    0.005873  -0.020133   0.000809   0.417734   0.397611   4.615236
     7  H   -0.000663  -0.014782  -0.002234   0.416724   0.009374  -0.036502
     8  H   -0.000678  -0.000207   0.004333   0.002820   0.407683  -0.038998
     9  O    0.000119   0.001257   0.005850  -0.047509  -0.066858   0.391741
    10  N    0.282312   0.359007   0.371722  -0.071582  -0.081401  -0.010249
    11  C   -0.024844   0.230085  -0.004176  -0.074221  -0.005107   0.009797
    12  H   -0.005531  -0.027587   0.000532   0.000291   0.000553  -0.000653
    13  H    0.010032  -0.043840  -0.000020  -0.000770  -0.000376   0.000961
    14  C   -0.023798  -0.006104   0.215685  -0.002405  -0.064856   0.004649
    15  H   -0.005655   0.000618  -0.026161   0.000368  -0.000865  -0.000391
    16  H    0.010082   0.000001  -0.043530  -0.000379  -0.001406   0.001022
    17  N    0.212997  -0.016565   0.000597   0.005606  -0.000118  -0.000226
    18  N    0.212762   0.000716  -0.012635  -0.000378   0.005977   0.000126
    19  C   -0.035744   0.011099  -0.000003  -0.000121   0.000092   0.000021
    20  H   -0.007899  -0.000588  -0.000012   0.000025   0.000002  -0.000002
    21  H    0.009323   0.001420   0.000012  -0.000018  -0.000005   0.000004
    22  H   -0.009497  -0.001500   0.000019  -0.000148   0.000001   0.000005
    23  C   -0.033615   0.003865   0.000433   0.000376  -0.000466  -0.000084
    24  H    0.008536  -0.003012  -0.000022  -0.000105  -0.000005  -0.000001
    25  H   -0.008697  -0.000427   0.000092   0.000054   0.000033  -0.000002
    26  H   -0.011179   0.010185  -0.000662   0.002466   0.000329  -0.000563
    27  C   -0.035674  -0.000045   0.010378   0.000113   0.000114  -0.000029
    28  H    0.009301   0.000012   0.001484  -0.000006   0.000011   0.000004
    29  H   -0.007911  -0.000009  -0.000571   0.000002   0.000020  -0.000002
    30  H   -0.009449   0.000016  -0.001648   0.000003  -0.000159   0.000002
    31  C   -0.034278   0.000282   0.003937  -0.000197   0.000185  -0.000236
    32  H   -0.008530   0.000096  -0.000389   0.000026   0.000117  -0.000002
    33  H    0.008539  -0.000022  -0.003038  -0.000006  -0.000203   0.000005
    34  H   -0.011226  -0.000709   0.010714   0.000426   0.001887  -0.000608
    35  H   -0.000033  -0.000962   0.010381   0.001974  -0.024771  -0.049588
               7          8          9         10         11         12
     1  Pt  -0.000663  -0.000678   0.000119   0.282312  -0.024844  -0.005531
     2  C   -0.014782  -0.000207   0.001257   0.359007   0.230085  -0.027587
     3  C   -0.002234   0.004333   0.005850   0.371722  -0.004176   0.000532
     4  C    0.416724   0.002820  -0.047509  -0.071582  -0.074221   0.000291
     5  C    0.009374   0.407683  -0.066858  -0.081401  -0.005107   0.000553
     6  C   -0.036502  -0.038998   0.391741  -0.010249   0.009797  -0.000653
     7  H    0.486105  -0.000089   0.003553   0.003477  -0.005517   0.000269
     8  H   -0.000089   0.504141  -0.001348   0.003572   0.000014   0.000001
     9  O    0.003553  -0.001348   7.551579   0.000458  -0.000068   0.000005
    10  N    0.003477   0.003572   0.000458   6.425055   0.006957  -0.004463
    11  C   -0.005517   0.000014  -0.000068   0.006957   4.922452   0.432411
    12  H    0.000269   0.000001   0.000005  -0.004463   0.432411   0.492075
    13  H    0.000155  -0.000003  -0.000005   0.002938   0.436373  -0.009143
    14  C    0.000061  -0.005648  -0.000273   0.008847   0.001770  -0.000321
    15  H    0.000000   0.000181   0.000005  -0.004624  -0.000314  -0.000009
    16  H   -0.000004   0.000377   0.000007   0.003054   0.000085  -0.000002
    17  N    0.000096  -0.000001   0.000002  -0.020096   0.247149  -0.030517
    18  N   -0.000002   0.000026   0.000004  -0.020848   0.000787   0.000062
    19  C   -0.000032   0.000000  -0.000000  -0.002986  -0.041804  -0.003659
    20  H    0.000001   0.000000   0.000000   0.000002   0.007783   0.000348
    21  H    0.000003  -0.000000  -0.000000   0.000132  -0.008804  -0.002054
    22  H   -0.000004   0.000000  -0.000000  -0.000652  -0.004118   0.001845
    23  C   -0.000131   0.000001  -0.000001  -0.002559  -0.030169   0.004112
    24  H    0.000001  -0.000000   0.000000   0.000219  -0.008020  -0.000045
    25  H    0.000000   0.000000  -0.000000  -0.000161   0.006071  -0.000107
    26  H    0.000214   0.000006  -0.000007  -0.002640  -0.008496   0.000229
    27  C    0.000001  -0.000024  -0.000000  -0.002971  -0.000422   0.000006
    28  H   -0.000000   0.000003   0.000000   0.000127   0.000007  -0.000000
    29  H    0.000000   0.000000   0.000000  -0.000002  -0.000009   0.000000
    30  H    0.000000  -0.000003  -0.000000  -0.000629  -0.000045   0.000001
    31  C    0.000002  -0.000112   0.000000  -0.002555   0.000035  -0.000006
    32  H    0.000000  -0.000001  -0.000000  -0.000172  -0.000045   0.000000
    33  H   -0.000000   0.000001   0.000000   0.000225   0.000005  -0.000000
    34  H    0.000005   0.000221  -0.000007  -0.002577   0.000014   0.000000
    35  H   -0.000793   0.007764   0.326126   0.000148   0.000030  -0.000001
              13         14         15         16         17         18
     1  Pt   0.010032  -0.023798  -0.005655   0.010082   0.212997   0.212762
     2  C   -0.043840  -0.006104   0.000618   0.000001  -0.016565   0.000716
     3  C   -0.000020   0.215685  -0.026161  -0.043530   0.000597  -0.012635
     4  C   -0.000770  -0.002405   0.000368  -0.000379   0.005606  -0.000378
     5  C   -0.000376  -0.064856  -0.000865  -0.001406  -0.000118   0.005977
     6  C    0.000961   0.004649  -0.000391   0.001022  -0.000226   0.000126
     7  H    0.000155   0.000061   0.000000  -0.000004   0.000096  -0.000002
     8  H   -0.000003  -0.005648   0.000181   0.000377  -0.000001   0.000026
     9  O   -0.000005  -0.000273   0.000005   0.000007   0.000002   0.000004
    10  N    0.002938   0.008847  -0.004624   0.003054  -0.020096  -0.020848
    11  C    0.436373   0.001770  -0.000314   0.000085   0.247149   0.000787
    12  H   -0.009143  -0.000321  -0.000009  -0.000002  -0.030517   0.000062
    13  H    0.503393   0.000084  -0.000002  -0.000000  -0.025118  -0.000038
    14  C    0.000084   4.938085   0.431669   0.436769   0.000798   0.244154
    15  H   -0.000002   0.431669   0.491333  -0.008903   0.000066  -0.030283
    16  H   -0.000000   0.436769  -0.008903   0.503053  -0.000039  -0.025179
    17  N   -0.025118   0.000798   0.000066  -0.000039   6.301646  -0.010207
    18  N   -0.000038   0.244154  -0.030283  -0.025179  -0.010207   6.301906
    19  C   -0.003642  -0.000426   0.000006   0.000001   0.262671   0.000792
    20  H   -0.000357  -0.000008   0.000000   0.000000  -0.027506   0.000072
    21  H    0.002890   0.000007  -0.000000  -0.000000  -0.018821  -0.000016
    22  H   -0.000165  -0.000046   0.000001   0.000000  -0.030484   0.000092
    23  C   -0.010464   0.000047  -0.000006   0.000004   0.265613   0.000863
    24  H    0.004152   0.000006  -0.000000  -0.000000  -0.020793  -0.000029
    25  H   -0.000018  -0.000047   0.000000   0.000000  -0.026838   0.000162
    26  H   -0.003252   0.000014   0.000000  -0.000001  -0.028960   0.000215
    27  C    0.000001  -0.041044  -0.003627  -0.003627   0.000793   0.261946
    28  H   -0.000000  -0.009022  -0.002022   0.002852  -0.000016  -0.018705
    29  H    0.000000   0.007752   0.000336  -0.000353   0.000072  -0.027468
    30  H    0.000000  -0.003848   0.001841  -0.000162   0.000092  -0.030658
    31  C    0.000004  -0.030432   0.004141  -0.010690   0.000861   0.265587
    32  H    0.000000   0.005906  -0.000104  -0.000029   0.000162  -0.026897
    33  H   -0.000000  -0.007917  -0.000049   0.004195  -0.000029  -0.020778
    34  H   -0.000001  -0.008420   0.000222  -0.003235   0.000210  -0.028966
    35  H    0.000000  -0.000491   0.000005   0.000021  -0.000001   0.000007
              19         20         21         22         23         24
     1  Pt  -0.035744  -0.007899   0.009323  -0.009497  -0.033615   0.008536
     2  C    0.011099  -0.000588   0.001420  -0.001500   0.003865  -0.003012
     3  C   -0.000003  -0.000012   0.000012   0.000019   0.000433  -0.000022
     4  C   -0.000121   0.000025  -0.000018  -0.000148   0.000376  -0.000105
     5  C    0.000092   0.000002  -0.000005   0.000001  -0.000466  -0.000005
     6  C    0.000021  -0.000002   0.000004   0.000005  -0.000084  -0.000001
     7  H   -0.000032   0.000001   0.000003  -0.000004  -0.000131   0.000001
     8  H    0.000000   0.000000  -0.000000   0.000000   0.000001  -0.000000
     9  O   -0.000000   0.000000  -0.000000  -0.000000  -0.000001   0.000000
    10  N   -0.002986   0.000002   0.000132  -0.000652  -0.002559   0.000219
    11  C   -0.041804   0.007783  -0.008804  -0.004118  -0.030169  -0.008020
    12  H   -0.003659   0.000348  -0.002054   0.001845   0.004112  -0.000045
    13  H   -0.003642  -0.000357   0.002890  -0.000165  -0.010464   0.004152
    14  C   -0.000426  -0.000008   0.000007  -0.000046   0.000047   0.000006
    15  H    0.000006   0.000000  -0.000000   0.000001  -0.000006  -0.000000
    16  H    0.000001   0.000000  -0.000000   0.000000   0.000004  -0.000000
    17  N    0.262671  -0.027506  -0.018821  -0.030484   0.265613  -0.020793
    18  N    0.000792   0.000072  -0.000016   0.000092   0.000863  -0.000029
    19  C    4.784573   0.412245   0.411728   0.423728  -0.042640  -0.006764
    20  H    0.412245   0.535344  -0.016854  -0.016588  -0.006592  -0.001444
    21  H    0.411728  -0.016854   0.515913  -0.018190  -0.007399   0.003870
    22  H    0.423728  -0.016588  -0.018190   0.528517   0.006325  -0.000158
    23  C   -0.042640  -0.006592  -0.007399   0.006325   4.799878   0.413958
    24  H   -0.006764  -0.001444   0.003870  -0.000158   0.413958   0.522095
    25  H   -0.007307   0.002698  -0.000957   0.000151   0.416992  -0.017181
    26  H    0.006288   0.000211  -0.000299  -0.000118   0.415914  -0.017430
    27  C   -0.000151  -0.000033   0.000004  -0.000029  -0.000060   0.000001
    28  H    0.000004   0.000000  -0.000000   0.000000   0.000001  -0.000000
    29  H   -0.000033  -0.000008   0.000000  -0.000004  -0.000005   0.000000
    30  H   -0.000029  -0.000003   0.000000  -0.000010  -0.000009   0.000000
    31  C   -0.000060  -0.000005   0.000001  -0.000009  -0.000147   0.000011
    32  H   -0.000013  -0.000004   0.000000  -0.000001  -0.000010   0.000001
    33  H    0.000001   0.000000  -0.000000   0.000000   0.000011  -0.000000
    34  H   -0.000015   0.000000   0.000000  -0.000000  -0.000033  -0.000001
    35  H    0.000000  -0.000000   0.000000   0.000000   0.000001  -0.000000
              25         26         27         28         29         30
     1  Pt  -0.008697  -0.011179  -0.035674   0.009301  -0.007911  -0.009449
     2  C   -0.000427   0.010185  -0.000045   0.000012  -0.000009   0.000016
     3  C    0.000092  -0.000662   0.010378   0.001484  -0.000571  -0.001648
     4  C    0.000054   0.002466   0.000113  -0.000006   0.000002   0.000003
     5  C    0.000033   0.000329   0.000114   0.000011   0.000020  -0.000159
     6  C   -0.000002  -0.000563  -0.000029   0.000004  -0.000002   0.000002
     7  H    0.000000   0.000214   0.000001  -0.000000   0.000000   0.000000
     8  H    0.000000   0.000006  -0.000024   0.000003   0.000000  -0.000003
     9  O   -0.000000  -0.000007  -0.000000   0.000000   0.000000  -0.000000
    10  N   -0.000161  -0.002640  -0.002971   0.000127  -0.000002  -0.000629
    11  C    0.006071  -0.008496  -0.000422   0.000007  -0.000009  -0.000045
    12  H   -0.000107   0.000229   0.000006  -0.000000   0.000000   0.000001
    13  H   -0.000018  -0.003252   0.000001  -0.000000   0.000000   0.000000
    14  C   -0.000047   0.000014  -0.041044  -0.009022   0.007752  -0.003848
    15  H    0.000000   0.000000  -0.003627  -0.002022   0.000336   0.001841
    16  H    0.000000  -0.000001  -0.003627   0.002852  -0.000353  -0.000162
    17  N   -0.026838  -0.028960   0.000793  -0.000016   0.000072   0.000092
    18  N    0.000162   0.000215   0.261946  -0.018705  -0.027468  -0.030658
    19  C   -0.007307   0.006288  -0.000151   0.000004  -0.000033  -0.000029
    20  H    0.002698   0.000211  -0.000033   0.000000  -0.000008  -0.000003
    21  H   -0.000957  -0.000299   0.000004  -0.000000   0.000000   0.000000
    22  H    0.000151  -0.000118  -0.000029   0.000000  -0.000004  -0.000010
    23  C    0.416992   0.415914  -0.000060   0.000001  -0.000005  -0.000009
    24  H   -0.017181  -0.017430   0.000001  -0.000000   0.000000   0.000000
    25  H    0.523249  -0.015261  -0.000013   0.000000  -0.000004  -0.000001
    26  H   -0.015261   0.518997  -0.000016   0.000000   0.000000  -0.000000
    27  C   -0.000013  -0.000016   4.785928   0.411679   0.412175   0.423791
    28  H    0.000000   0.000000   0.411679   0.515683  -0.016780  -0.018173
    29  H   -0.000004   0.000000   0.412175  -0.016780   0.534596  -0.016543
    30  H   -0.000001  -0.000000   0.423791  -0.018173  -0.016543   0.528109
    31  C   -0.000009  -0.000035  -0.042586  -0.007408  -0.006523   0.006301
    32  H    0.000004   0.000024  -0.007241  -0.000957   0.002695   0.000148
    33  H    0.000001  -0.000001  -0.006766   0.003865  -0.001447  -0.000158
    34  H    0.000023   0.000086   0.006254  -0.000297   0.000214  -0.000119
    35  H    0.000000  -0.000000  -0.000001   0.000000   0.000000  -0.000000
              31         32         33         34         35
     1  Pt  -0.034278  -0.008530   0.008539  -0.011226  -0.000033
     2  C    0.000282   0.000096  -0.000022  -0.000709  -0.000962
     3  C    0.003937  -0.000389  -0.003038   0.010714   0.010381
     4  C   -0.000197   0.000026  -0.000006   0.000426   0.001974
     5  C    0.000185   0.000117  -0.000203   0.001887  -0.024771
     6  C   -0.000236  -0.000002   0.000005  -0.000608  -0.049588
     7  H    0.000002   0.000000  -0.000000   0.000005  -0.000793
     8  H   -0.000112  -0.000001   0.000001   0.000221   0.007764
     9  O    0.000000  -0.000000   0.000000  -0.000007   0.326126
    10  N   -0.002555  -0.000172   0.000225  -0.002577   0.000148
    11  C    0.000035  -0.000045   0.000005   0.000014   0.000030
    12  H   -0.000006   0.000000  -0.000000   0.000000  -0.000001
    13  H    0.000004   0.000000  -0.000000  -0.000001   0.000000
    14  C   -0.030432   0.005906  -0.007917  -0.008420  -0.000491
    15  H    0.004141  -0.000104  -0.000049   0.000222   0.000005
    16  H   -0.010690  -0.000029   0.004195  -0.003235   0.000021
    17  N    0.000861   0.000162  -0.000029   0.000210  -0.000001
    18  N    0.265587  -0.026897  -0.020778  -0.028966   0.000007
    19  C   -0.000060  -0.000013   0.000001  -0.000015   0.000000
    20  H   -0.000005  -0.000004   0.000000   0.000000  -0.000000
    21  H    0.000001   0.000000  -0.000000   0.000000   0.000000
    22  H   -0.000009  -0.000001   0.000000  -0.000000   0.000000
    23  C   -0.000147  -0.000010   0.000011  -0.000033   0.000001
    24  H    0.000011   0.000001  -0.000000  -0.000001  -0.000000
    25  H   -0.000009   0.000004   0.000001   0.000023   0.000000
    26  H   -0.000035   0.000024  -0.000001   0.000086  -0.000000
    27  C   -0.042586  -0.007241  -0.006766   0.006254  -0.000001
    28  H   -0.007408  -0.000957   0.003865  -0.000297   0.000000
    29  H   -0.006523   0.002695  -0.001447   0.000214   0.000000
    30  H    0.006301   0.000148  -0.000158  -0.000119  -0.000000
    31  C    4.800354   0.417216   0.413942   0.415828  -0.000009
    32  H    0.417216   0.522290  -0.017061  -0.015110   0.000000
    33  H    0.413942  -0.017061   0.521875  -0.017625  -0.000000
    34  H    0.415828  -0.015110  -0.017625   0.519945  -0.000002
    35  H   -0.000009   0.000000  -0.000000  -0.000002   0.451668
 Mulliken charges:
               1
     1  Pt   0.607112
     2  C    0.049338
     3  C    0.019312
     4  C   -0.100205
     5  C   -0.114829
     6  C    0.312669
     7  H    0.140712
     8  H    0.115966
     9  O   -0.164631
    10  N   -0.237087
    11  C   -0.085646
    12  H    0.151357
    13  H    0.136231
    14  C   -0.091198
    15  H    0.152220
    16  H    0.136014
    17  N   -0.043097
    18  N   -0.043170
    19  C   -0.167819
    20  H    0.119172
    21  H    0.128111
    22  H    0.121034
    23  C   -0.194003
    24  H    0.122159
    25  H    0.127499
    26  H    0.133742
    27  C   -0.168824
    28  H    0.128355
    29  H    0.119809
    30  H    0.121341
    31  C   -0.193389
    32  H    0.127882
    33  H    0.122434
    34  H    0.132902
    35  H    0.278528
 Sum of Mulliken charges =   2.00000
 Mulliken charges with hydrogens summed into heavy atoms:
               1
     1  Pt   0.607112
     2  C    0.049338
     3  C    0.019312
     4  C    0.040506
     5  C    0.001137
     6  C    0.312669
     9  O    0.113897
    10  N   -0.237087
    11  C    0.201942
    14  C    0.197037
    17  N   -0.043097
    18  N   -0.043170
    19  C    0.200498
    23  C    0.189397
    27  C    0.200680
    31  C    0.189829
 Electronic spatial extent (au):  <R**2>=           4040.5745
 Charge=              2.0000 electrons
 Dipole moment (field-independent basis, Debye):
    X=             -1.4719    Y=              1.6435    Z=              1.1619  Tot=              2.4935
 Quadrupole moment (field-independent basis, Debye-Ang):
   XX=            -56.7644   YY=            -55.7223   ZZ=           -100.8585
   XY=             -8.4697   XZ=              0.6555   YZ=              0.6944
 Traceless Quadrupole moment (field-independent basis, Debye-Ang):
   XX=             14.3507   YY=             15.3928   ZZ=            -29.7434
   XY=             -8.4697   XZ=              0.6555   YZ=              0.6944
 Octapole moment (field-independent basis, Debye-Ang**2):
  XXX=              7.5892  YYY=              6.8717  ZZZ=              6.8468  XYY=             41.8641
  XXY=             38.2660  XXZ=             12.2781  XZZ=             47.8367  YZZ=              2.4119
  YYZ=              0.1689  XYZ=             -3.1212
 Hexadecapole moment (field-independent basis, Debye-Ang**3):
 XXXX=          -1835.3368 YYYY=          -1815.6396 ZZZZ=           -422.0573 XXXY=           -195.1288
 XXXZ=            -33.7418 YYYX=             -5.0377 YYYZ=             -0.3170 ZZZX=             -5.3522
 ZZZY=              0.0595 XXYY=           -620.3591 XXZZ=           -483.3533 YYZZ=           -404.9806
 XXYZ=             16.8377 YYXZ=             -6.8982 ZZXY=             -2.7220
 N-N= 1.392062510965D+03 E-N=-4.550170503384D+03  KE= 7.062268663291D+02
   1 Symmetry operations used in ECPInt.
 ECPInt:  NShTT=   43660 NPrTT=  113928 LenC2=   39633 LenP2D=   79275.
 LDataN:  DoStor=T MaxTD1=10 Len=  848
 D1PCM: PCM CHGder 1st derivatives, ID1Alg=3 FixD1E=F DoIter=F DoCFld=F I1PDM=0.
[...]
 .00001757,-0.00006949,-0.00013471,0.00019599,-0.00002610,0.00002391,-0
 .00001041,0.00000552,0.00000045,0.00000323,0.00001184,-0.00000058,0.00
 000458,-0.00132092,-0.00014216,-0.00024975,0.00077417,-0.00029725,0.00
 014782,-0.00004676,-0.00005752,0.00009725,0.00006700,0.00022220,-0.000
 10520,0.00023650,-0.00400594,-0.01879547,0.00001633,-0.00002316,-0.000
 02335,-0.00000566,0.00000882,-0.00000185,-0.00000513,-0.00000010,0.000
 00472,0.00000205,-0.00000057,0.00001261,0.00000396,0.00004977,0.000021
 81,0.00000408,-0.00000007,-0.00001955,0.00000044,0.00000229,-0.0000042
 9,0.00000527,-0.00000150,-0.00001211,-0.00902969,-0.08830534,-0.292359
 16,-0.00067388,0.00060817,0.00186388,0.00039248,-0.00391505,-0.0082513
 3,0.00652079,0.09394158,0.31845389,-0.00110092,0.00062201,0.00443088,-
 0.00024753,-0.00016050,-0.00002013,0.00028396,0.00103961,-0.00185533,0
 .00017106,-0.00018943,0.00003352,-0.00043680,-0.00056307,0.00029298,0.
 00014069,0.00045159,0.00010233,0.00000185,-0.00000401,0.00000715,0.000
 03231,0.00002023,-0.00003787,-0.00018201,-0.00006934,-0.00003462,0.000
 14007,-0.00016828,-0.00007340,-0.00012809,0.00001991,-0.00009068,0.000
 02504,-0.00000795,0.00000611,0.00002627,-0.00000278,0.00000466,-0.0069
 9926,-0.00747147,-0.03763642,-0.00549528,-0.00008990,-0.00243656,0.000
 72181,-0.00095974,-0.00159874,0.00005336,0.00041551,-0.00058619,-0.093
 51055,-0.00296610,0.00066277,0.00010963,-0.00004111,-0.00002131,-0.000
 01371,0.00001996,0.00000216,-0.00001696,0.00001342,0.00000377,-0.00001
 088,-0.00000357,0.00000263,0.00014418,0.00020072,0.00011083,-0.0000158
 0,0.00003283,-0.00006385,0.00001873,0.00005740,-0.00000973,-0.00000626
 ,-0.00001803,-0.00000815,0.00081052,0.00755757,0.02811619,0.00050744,0
 .00043175,-0.00050014,0.00027306,0.00022326,0.00150402,-0.00345890,-0.
 00256509,0.00319038,0.64079308,0.00105983,-0.00497727,-0.01714868,0.00
 024476,0.00039375,0.00001468,-0.00121101,-0.00190486,-0.00027043,-0.00
 027501,0.00023975,0.00001116,0.00037014,0.00069323,0.00005398,-0.00004
 616,-0.00049190,-0.00004265,-0.00002424,0.00000749,0.00000295,-0.00006
 322,-0.00000611,0.00003560,0.00007552,0.00008670,-0.00000541,-0.000582
 25,-0.00068880,-0.00134147,0.00035823,0.00024286,0.00016090,-0.0000322
 4,0.00002514,-0.00002916,-0.00001066,-0.00000179,0.00001132,0.00118691
 ,-0.00013717,0.00590918,0.00223524,-0.00025975,0.00147669,0.00207512,0
 .00172004,0.00268488,0.00032559,-0.00126753,0.00367503,-0.00793414,-0.
 09298083,-0.05053337,-0.00013143,0.00046174,0.00019355,0.00001182,-0.0
 0002902,0.00000289,-0.00003315,0.00000656,-0.00002517,0.00001008,0.000
 04262,-0.00004967,-0.00020610,-0.00107178,-0.00023836,-0.00002735,-0.0
 0013673,0.00028905,-0.00002663,0.00001010,-0.00003104,0.00001568,0.000
 03945,-0.00001623,0.00114369,0.00500129,0.01750655,-0.00090227,0.00079
 891,0.00274618,0.00050079,0.00019971,-0.00013502,-0.00238001,-0.001357
 11,0.00267289,-0.00283407,0.58667377,0.00182838,-0.00954475,0.00429988
 ,0.00004696,0.00008460,-0.00009566,0.00031829,-0.00193912,0.00124628,-
 0.00001948,0.00006253,-0.00000471,0.00083598,0.00097004,-0.00009151,-0
 .00037258,-0.00047415,-0.00010161,0.00000566,0.00001724,0.00005388,-0.
 00001024,-0.00002462,0.00003609,0.00058902,0.00008646,0.00001768,-0.00
 136678,-0.00124410,-0.00148226,-0.00061899,0.00023576,-0.00033415,0.00
 003089,0.00001136,0.00002208,0.00018171,0.00006484,0.00006744,-0.01213
 005,-0.00246100,-0.02151097,-0.00076118,-0.00065805,0.00027194,0.00245
 205,-0.00079153,0.00057609,0.00001598,0.00251724,0.00004250,-0.0038486
 6,-0.01719954,-0.17614794,0.00063473,0.00026885,-0.00042775,-0.0000525
 6,-0.00000576,0.00001014,-0.00017906,0.00019656,0.00013763,-0.00003281
 ,-0.00000649,0.00002068,0.00009940,0.00024069,0.00070221,0.00002750,0.
 00014957,-0.00024087,-0.00002068,0.00001862,-0.00004908,0.00002395,-0.
 00000256,-0.00004617,0.00722527,-0.00417903,-0.03189336,-0.00174732,-0
 .00133137,0.00159178,-0.00155945,-0.00088298,0.00126624,0.00143785,0.0
 0095209,-0.00037901,-0.00732256,-0.05718893,0.48009512,0.00003420,-0.0
 0006064,-0.00015112,-0.00001431,-0.00007480,0.00006063,0.00033745,0.00
 042737,0.00007355,0.00005706,-0.00003167,0.00000419,-0.00009338,-0.000
 14108,0.00001370,0.00008507,0.00013677,0.00000387,0.00000608,-0.000003
 94,-0.00001314,0.00001290,0.00000646,0.00001427,-0.00008439,-0.0000223
 3,-0.00000503,0.00027245,0.00010481,0.00017169,0.00000195,-0.00002716,
 0.00000361,0.00000479,-0.00000703,0.00000065,-0.00000680,-0.00000397,-
 0.00000524,0.00128006,-0.00007808,0.00015596,0.00006745,-0.00017061,-0
 .00014226,0.00022807,-0.00032657,0.00006103,-0.00011970,-0.00013872,-0
 .00004065,-0.00172604,0.00085006,-0.00033888,-0.00000898,0.00000162,0.
 00002069,0.00000420,0.00000933,-0.00000262,0.00000366,-0.00000748,-0.0
 0000306,0.00000356,-0.00000138,0.00000051,0.00001683,0.00002536,-0.000
 02194,-0.00000140,-0.00000562,0.00000449,0.00001340,0.00000892,-0.0000
 0346,-0.00000902,-0.00000054,-0.00000153,0.00070919,-0.00004385,0.0010
 1445,-0.00013283,-0.00000290,-0.00001282,-0.00028337,0.00025873,0.0001
 1867,0.00028960,-0.00008189,-0.00002801,-0.28140356,0.06396899,-0.0926
 8733,0.29921588,-0.00056074,-0.00080748,-0.00132670,-0.00000865,-0.000
 03881,0.00000644,0.00020315,0.00035144,0.00030189,0.00005198,-0.000033
 99,-0.00001224,0.00004679,-0.00005641,-0.00002886,-0.00007946,0.000023
 60,-0.00000792,0.00000608,-0.00000124,-0.00000287,0.00001013,-0.000002
 66,-0.00000343,0.00006990,-0.00001476,0.00000701,-0.00010319,0.0000838
 3,0.00023018,-0.00005093,0.00000450,-0.00002715,0.00000210,-0.00000352
 ,0.00000707,0.00001369,0.00000489,0.00000143,0.00091597,0.00009270,-0.
 00232903,-0.00075716,0.00036581,-0.00020405,-0.00028189,0.00028774,0.0
 0003169,0.00016389,0.00006875,0.00005187,-0.01107217,-0.00048479,-0.00
 561467,0.00000345,-0.00003514,-0.00002658,0.00000267,-0.00001904,-0.00
 000095,-0.00000018,0.00001198,-0.00000084,-0.00000191,-0.00000188,-0.0
 0000234,-0.00005796,0.00000529,-0.00001491,0.00001227,0.00001702,0.000
 00836,-0.00001064,-0.00007659,0.00000072,-0.00001495,-0.00001013,-0.00
 000128,-0.00010109,-0.00013865,0.00062358,0.00019344,-0.00002242,-0.00
 010083,0.00015044,0.00025479,-0.00003855,-0.00012863,-0.00012519,-0.00
 003057,0.06714660,-0.07103542,0.02545424,-0.07052248,0.07253787,-0.000
 07735,0.00016627,-0.00009511,-0.00001016,-0.00001722,-0.00005245,0.000
 16880,0.00051744,-0.00049285,0.00003562,-0.00007594,-0.00001383,-0.000
 20854,-0.00029300,0.00007833,0.00007737,0.00015497,0.00003043,0.000003
 75,-0.00000392,0.00000961,0.00000957,0.00000587,-0.00002782,-0.0001056
 2,-0.00003114,-0.00000503,-0.00023602,0.00008502,0.00013896,0.00001902
 ,-0.00003659,0.00000948,0.00000197,-0.00000580,0.00000253,-0.00000730,
 -0.00000551,-0.00000435,0.00106783,-0.00134057,-0.00557418,-0.00177199
 ,0.00003670,-0.00053898,0.00016588,-0.00003717,-0.00001565,-0.00004239
 ,-0.00023844,-0.00012853,-0.03149845,0.00580671,-0.01686858,-0.0000542
 6,-0.00002860,0.00002259,0.00000754,-0.00000826,-0.00000032,0.00001852
 ,-0.00001195,-0.00001069,0.00000173,-0.00000212,-0.00000432,-0.0000087
 9,0.00003064,-0.00004953,0.00000336,-0.00000369,0.00000107,-0.00000340
 ,-0.00000011,0.00001845,0.00000584,0.00000147,0.00000470,-0.00211843,0
 .00000032,0.00109451,0.00018478,0.00002745,-0.00008026,0.00089601,-0.0
 0025960,-0.00057845,0.00017081,-0.00020536,0.00029105,-0.08329529,0.02
 259380,-0.08440183,0.10025134,-0.02208505,0.09783657,0.00085242,-0.000
 75770,-0.00036626,0.00007423,0.00002803,-0.00001685,-0.00023487,-0.000
 29383,0.00007869,-0.00003149,0.00002580,-0.00001378,0.00011047,0.00007
 557,-0.00000116,-0.00003327,-0.00008242,0.00000561,0.00000292,0.000001
 50,0.00000791,-0.00001535,-0.00000434,-0.00002663,0.00003730,0.0000110
 0,0.00000217,-0.00015518,0.00039032,0.00021654,-0.00001408,-0.00002443
 ,0.00000768,-0.00000232,0.00000041,0.00000137,0.00000068,0.00000550,0.
 00000107,0.00088750,-0.00222021,-0.00033885,0.00003912,0.00007836,0.00
 010961,-0.00038491,-0.00026064,-0.00042217,-0.00013744,0.00009710,-0.0
 0005489,-0.00032718,-0.00187347,-0.00037693,0.00001071,0.00002445,-0.0
 0002028,0.00000308,-0.00000265,-0.00000067,-0.00000358,0.00000973,0.00
 001003,-0.00000031,-0.00000145,0.00000401,-0.00001757,0.00002181,0.000
 02262,0.00000970,0.00000701,-0.00000975,-0.00000171,-0.00001226,0.0000
 0343,0.00000292,0.00000164,-0.00000238,-0.00000318,0.00101457,0.000263
 03,0.00015983,0.00010061,0.00025776,-0.00004513,0.00011305,-0.00011532
 ,-0.00009497,-0.00019414,-0.00006539,-0.05575533,0.03572511,0.00061871
 ,-0.00184512,0.02829630,0.00103457,0.05262532,-0.00026306,0.00120126,-
 0.00151488,-0.00001396,0.00019805,-0.00004423,-0.00000423,-0.00000139,
 0.00010573,-0.00009207,0.00002310,0.00000885,-0.00010800,-0.00004374,0
 .00001926,0.00019935,0.00000229,0.00000981,-0.00001728,0.00000037,0.00
 000113,-0.00002542,-0.00000560,-0.00000485,-0.00021349,0.00001224,-0.0
 0000350,0.00014907,-0.00004412,-0.00007934,0.00016501,0.00001593,0.000
 07498,-0.00000311,0.00000381,-0.00000602,-0.00003406,-0.00001716,-0.00
 000712,0.00058621,0.00054499,0.00091295,-0.00017335,0.00028544,0.00012
 710,-0.00126727,-0.00091011,-0.00025384,0.00013290,-0.00025448,0.00026
 585,0.00112734,-0.01200389,-0.00577901,-0.00014663,0.00000668,0.000114
 28,0.00000778,0.00000685,-0.00000012,0.00002839,-0.00004436,-0.0000282
 3,0.00000585,0.00000833,0.00000053,-0.00003050,-0.00013500,-0.00015514
 ,-0.00000850,-0.00003670,0.00006626,0.00000586,0.00001780,0.00000378,0
 .00000215,0.00001570,0.00000375,-0.00051737,0.00127718,0.00100859,0.00
 062830,0.00046504,-0.00102363,0.00003277,-0.00011714,-0.00004774,-0.00
 002668,0.00036853,0.00006416,0.03473373,-0.31141659,-0.00366094,-0.000
 33557,-0.00493057,0.00037716,-0.03770117,0.33691556,-0.00053656,0.0014
 5259,-0.00328247,0.00004318,0.00005604,0.00000326,-0.00031761,0.000011
 68,0.00006163,-0.00005434,0.00006323,0.00000060,-0.00004485,0.00000307
 ,0.00001326,0.00004890,-0.00002760,0.00000233,-0.00000515,-0.00000234,
 -0.00000826,-0.00001629,-0.00000236,0.00001005,-0.00008145,0.00000767,
 -0.00000551,0.00028010,0.00022257,0.00004463,0.00026354,-0.00000589,0.
 00013021,-0.00001699,0.00000242,-0.00001217,-0.00005387,-0.00001195,-0
 .00001316,0.00259242,-0.00201798,0.00063711,0.00015279,0.00009909,0.00
 017821,-0.00072880,0.00064614,0.00030935,0.00004946,-0.00093324,0.0008
 3506,0.00378794,-0.03889128,-0.01314853,-0.00018876,0.00003109,0.00015
 584,0.00001566,-0.00000303,-0.00000372,0.00003858,-0.00004971,-0.00004
 301,0.00001175,0.00001149,-0.00001934,-0.00006319,-0.00029171,-0.00024
 073,-0.00001242,-0.00006541,0.00013399,0.00000417,-0.00000856,0.000000
 68,-0.00001118,-0.00000177,0.00000731,-0.00104955,-0.00284732,0.001744
 49,0.00002846,0.00043876,0.00039980,0.00007813,0.00022977,-0.00010904,
 -0.00016920,0.00038281,0.00020361,-0.00056119,0.00414132,-0.05008037,-
 0.00017241,0.01152541,0.00115184,0.00046958,0.00972997,0.05924873,0.00
 029697,-0.00010905,0.00020432,0.00012548,0.00014168,-0.00008258,0.0007
 4681,0.00003915,0.00043506,-0.00013575,0.00008817,-0.00001020,0.000091
 91,0.00024025,0.00006181,-0.00006323,-0.00023592,-0.00002802,-0.000009
 50,0.00000500,0.00001789,-0.00001484,0.00000069,-0.00001574,0.00005260
 ,0.00003736,0.00000839,-0.00004998,0.00019142,-0.00034554,0.00002449,0
 .00000801,0.00002334,-0.00001122,0.00000885,-0.00000290,-0.00000265,0.
 00000073,0.00000307,0.00052316,0.00087434,-0.00053340,0.00006358,0.000
 01402,0.00014471,0.00009816,0.00010638,-0.00015294,-0.00000230,0.00011
 832,-0.00005120,0.00253473,0.00239995,-0.00379422,-0.00000594,0.000009
 74,-0.00001149,-0.00000284,0.00000089,0.00000279,-0.00000037,-0.000001
 21,0.00000581,-0.00000096,0.00000011,0.00000482,-0.00000435,-0.0000124
 9,0.00002318,0.00000292,-0.00000174,-0.00001179,-0.00000957,0.00001663
 ,0.00000585,0.00001801,0.00001652,0.00000424,0.00039067,0.00028998,-0.
 00065851,-0.00006993,-0.00008961,-0.00001198,0.00045783,-0.00005735,-0
 .00010023,0.00049587,-0.00016389,0.00000241,-0.19550725,-0.09255055,0.
 10644519,-0.01693373,-0.01353347,0.01529058,0.00429499,0.00315542,-0.0
 0378584,0.20262543,0.00104694,-0.00094365,-0.00141549,-0.00007971,-0.0
 0011315,-0.00000836,0.00041915,0.00076052,0.00028685,0.00006588,-0.000
 03625,-0.00000578,-0.00001326,-0.00003546,0.00000302,-0.00008736,0.000
 05093,-0.00001569,0.00000421,-0.00000160,0.00000181,0.00002179,0.00000
 121,0.00002209,0.00008131,-0.00001679,-0.00000098,-0.00015503,-0.00018
 584,-0.00020251,-0.00003923,-0.00000952,-0.00001630,0.00000061,0.00000
 080,0.00000327,0.00000589,0.00000306,-0.00000197,0.00032447,0.00037747
 ,0.00034667,0.00013194,-0.00015410,-0.00005934,-0.00008711,-0.00042198
 ,0.00005825,-0.00005236,0.00014827,0.00000756,0.01090750,0.00498778,-0
 .00871371,0.00003650,0.00001965,-0.00002063,-0.00000034,-0.00000169,0.
 00000019,-0.00001084,0.00001450,0.00000591,-0.00000292,0.00000203,0.00
 000187,0.00001866,0.00003687,0.00000503,-0.00000164,0.00001642,0.00000
 330,0.00000158,-0.00001221,-0.00000225,-0.00001928,-0.00001553,0.00000
 325,-0.00049468,-0.00023429,-0.00150500,0.00010270,0.00042785,-0.00042
 930,-0.00014028,-0.00017164,-0.00001888,0.00019488,0.00063644,-0.00042
 982,-0.09486202,-0.10888309,0.07022113,0.00629329,0.00372177,-0.005107
 61,-0.02259893,-0.01138803,0.01611137,0.09899191,0.11140736,0.00025097
 ,0.00082305,-0.00033388,0.00000964,-0.00005312,-0.00003919,-0.00045252
 ,-0.00011904,0.00098187,-0.00000910,0.00006196,-0.00001412,0.00000109,
 0.00006741,0.00003542,-0.00019049,-0.00010474,-0.00001914,-0.00000172,
 0.00000215,0.00000430,0.00000380,-0.00000149,0.00000353,0.00014442,0.0
 0001068,0.00000197,0.00004110,0.00029434,-0.00076364,0.00007670,-0.000
 02809,0.00005076,-0.00001952,0.00000530,-0.00000627,-0.00002061,0.0000
 0290,-0.00000638,0.00150158,0.00036574,0.00042516,0.00010303,0.0000668
 2,0.00021121,-0.00024294,0.00021993,-0.00007751,-0.00002476,-0.0003492
 2,-0.00003183,0.02482597,0.01419378,-0.02274302,-0.00002776,-0.0000408
 1,0.00000621,-0.00000084,-0.00000145,-0.00000003,0.00001450,-0.0000075
 0,-0.00001690,0.00000462,0.00000215,-0.00001292,-0.00000613,0.00001773
 ,-0.00004451,-0.00000257,-0.00000320,0.00000693,-0.00000196,0.00000125
 ,0.00000495,0.00000305,-0.00000484,0.00001175,-0.00217242,-0.00332474,
 -0.00522955,-0.00014798,0.00000272,0.00007103,0.00005641,-0.00014032,0
 .00020814,0.00133475,0.00096574,-0.00091397,0.09768418,0.06287220,-0.1
 2318562,-0.00834697,-0.00639015,0.00825516,-0.00128051,-0.00028351,0.0
 0169250,-0.11308109,-0.06913334,0.14147095,0.00005775,0.00005335,0.000
 04025,-0.00037518,0.00187111,0.00025586,-0.00134305,0.00112213,0.00006
 566,-0.00469800,-0.00309359,-0.00020842,0.00440627,0.00188557,-0.00029
 861,-0.03192005,0.04625134,-0.00047015,0.00010574,-0.00008880,-0.00003
 818,0.00089707,-0.00187424,0.00060323,-0.11490671,0.14385665,-0.002345
 99,0.00094359,-0.00114519,-0.00013226,-0.00027307,-0.00020698,-0.00018
 731,0.00007408,-0.00003369,0.00003721,0.00003896,-0.00002947,0.0000068
 3,0.00001243,-0.00026067,-0.00012876,0.00011742,0.00004864,0.00003412,
 0.00002370,-0.00002373,0.00002161,-0.00005093,0.00001943,0.00001601,0.
 00017028,0.00012812,-0.00005221,-0.00007170,0.00001453,0.00005170,0.00
 000818,0.00000629,0.00000072,0.00000616,-0.00002112,-0.00000617,0.0000
 0245,-0.00000252,0.00000641,0.00000933,0.00000293,-0.00004139,-0.00000
 359,-0.00002135,0.00000655,0.00000821,0.00000887,0.00000788,-0.0000026
 4,0.00000850,-0.00001780,-0.00001567,-0.00007622,0.00014494,-0.0000029
 2,0.00001958,-0.00000500,0.00003910,0.00001230,-0.00001487,-0.00000377
 ,0.00000509,0.00000809,0.00003604,-0.00003703,-0.00008778,0.00001879,-
 0.00000336,0.00002307,-0.00000820,0.00002162,0.00000500,-0.00001922,-0
 .00000425,-0.00002591,0.14671913,-0.00027024,0.00002756,-0.00008870,0.
 00162597,0.00057498,-0.00000748,0.00105726,-0.00125715,0.00001265,-0.0
 0322221,0.00275495,-0.00003725,-0.00610968,0.00236821,-0.00069524,-0.0
 0087067,0.00351586,0.00003179,-0.00017662,0.00031248,0.00005288,0.0002
 2408,-0.00050875,0.00086790,0.19709567,-0.45330106,0.00529572,-0.00071
 058,-0.00018365,0.00012469,-0.00000125,-0.00004226,0.00007204,-0.00003
 432,-0.00000489,-0.00002180,-0.00000977,-0.00000378,-0.00000607,-0.000
 04583,0.00008246,0.00005661,-0.00003359,0.00000799,-0.00002111,-0.0000
 3335,-0.00003654,-0.00001316,-0.00003841,0.00001433,0.00001762,-0.0000
 2899,-0.00004397,0.00000986,0.00002407,-0.00002633,-0.00005891,-0.0000
 1418,0.00000149,0.00000588,-0.00000120,0.00001283,0.00000280,-0.000000
 49,0.00000196,-0.00000491,-0.00001684,-0.00000927,0.00004177,0.0000047
 0,0.00001428,-0.00000611,-0.00000805,-0.00000538,-0.00000744,0.0000058
 0,-0.00000377,0.00001194,0.00003468,0.00001566,-0.00005800,-0.00000696
 ,-0.00001907,0.00000408,-0.00000892,0.00000080,0.00000506,-0.00000278,
 0.00000032,-0.00000523,-0.00000964,0.00000265,0.00004310,-0.00000340,0
 .00000675,-0.00000618,-0.00000024,-0.00002031,-0.00000631,-0.00000022,
 0.00001190,0.00000972,-0.18841382,0.44573870,-0.00000171,0.00000022,-0
 .00001183,-0.00004225,-0.00015799,0.00186487,-0.00004464,-0.00004955,-
 0.00064666,0.00007281,-0.00006496,0.00421812,-0.00003450,-0.00021470,-
 0.00164935,-0.00045399,0.00061464,-0.00315838,0.00000599,0.00006608,-0
 .00059323,0.00048065,0.00077749,-0.00060893,-0.00273851,0.00457784,-0.
 00840198,-0.00000287,0.00008719,0.00000158,-0.00003310,-0.00000761,-0.
 00048562,0.00009004,-0.00009653,0.00000039,-0.00001848,0.00003715,0.00
 001932,0.00001567,-0.00000049,0.00013894,-0.00000345,-0.00002561,-0.00
 000047,0.00001235,0.00000800,0.00000599,-0.00001078,0.00005369,-0.0000
 5495,0.00001312,0.00001616,-0.00000049,-0.00000315,0.00000269,-0.00000
 029,0.00000004,0.00000030,0.00000363,0.00000003,-0.00000094,0.00000063
 ,-0.00000038,-0.00000015,0.00000325,-0.00001902,0.00000226,0.00002381,
 0.00000002,0.00000181,-0.00000254,-0.00000006,-0.00000049,-0.00000389,
 0.00000180,-0.00000133,-0.00000155,-0.00000803,-0.00000705,0.00001023,
 0.00000180,0.00000101,0.00000263,0.00000035,0.00000201,-0.00000273,0.0
 0000220,-0.00000221,-0.00000450,-0.00000239,0.00000080,0.00001524,0.00
 000313,-0.00000090,-0.00000251,-0.00000256,-0.00000203,0.00000184,-0.0
 0000580,0.00000539,-0.00000337,0.00272566,-0.00562220,0.00932280\\-0.0
 0001713,-0.00001205,0.00001273,-0.00000559,-0.00000174,-0.00002051,-0.
 00001692,0.00000243,-0.00000598,0.00001149,-0.00000402,-0.00002843,0.0
 0000530,-0.00000397,-0.00002436,-0.00000639,-0.00000493,-0.00002364,0.
 00000707,-0.00000493,-0.00004135,-0.00000382,-0.00000726,-0.00001442,0
 .00000996,-0.00000802,-0.00006288,0.00001586,-0.00000274,-0.00000701,0
 .00001937,-0.00000337,-0.00001282,0.00001859,0.00000944,-0.00001752,0.
 00000823,-0.00000198,-0.00002817,0.00000781,0.00000666,0.00001676,0.00
 000402,0.00000708,0.00001252,-0.00000864,-0.00000476,0.00001265,0.0000
 0370,0.00000435,-0.00001033,-0.00000673,0.00000979,0.00001755,0.000016
 54,0.00000455,-0.00000352,0.00000892,0.00000905,0.00001134,0.00001729,
 0.00001028,-0.00000676,0.00002313,0.00001516,0.00000458,-0.00000593,-0
 .00001216,0.00000073,-0.00000457,-0.00000548,-0.00001287,-0.00001066,-
 0.00000286,0.00000558,-0.00001433,-0.00001134,-0.00000986,0.00000654,0
 .00001483,0.00003058,-0.00000256,0.00000796,0.00004089,-0.00000434,0.0
 0001146,0.00004374,0.00001095,0.00001637,0.00003566,-0.00001635,0.0000
 0263,0.00003530,-0.00002766,-0.00000512,0.00003263,-0.00002424,-0.0000
 0688,0.00003085,-0.00002615,-0.00001421,0.00001405,0.00000723,-0.00001
 421,-0.00002772\\\@
 The archive entry for this job was punched.


 Human beings, who are almost unique in having the
 ability to learn from the experience of others, are
 also remarkable for their apparent disinclination to do so.
                               -- Douglas Adams,
                                Last Chance to See
 Job cpu time:       1 days  6 hours 10 minutes 55.0 seconds.
 Elapsed time:       0 days  6 hours 23 minutes  4.3 seconds.
 File lengths (MBytes):  RWF=   1520 Int=      0 D2E=      0 Chk=     60 Scr=      1
 Normal termination of Gaussian 16 at Fri Mar 29 08:40:38 2024.
