 Entering Gaussian System, Link 0=/cm/shared/apps//g16/g16
 Input=HZRh.gjf
 Output=HZRh.log
 Initial command:
 /cm/shared/apps//g16/l1.exe "/local/mvanvleet/pbs.14638.josephine/Gau-3895754.inp" -scrdir="/local/mvanvleet/pbs.14638.josephine/"
 Entering Link 1 = /cm/shared/apps//g16/l1.exe PID=   3895757.
  
 Copyright (c) 1988-2019, Gaussian, Inc.  All Rights Reserved.
  
 This is part of the Gaussian(R) 16 program.  It is based on
 the Gaussian(R) 09 system (copyright 2009, Gaussian, Inc.),
 the Gaussian(R) 03 system (copyright 2003, Gaussian, Inc.),
 the Gaussian(R) 98 system (copyright 1998, Gaussian, Inc.),
 the Gaussian(R) 94 system (copyright 1995, Gaussian, Inc.),
 the Gaussian 92(TM) system (copyright 1992, Gaussian, Inc.),
 the Gaussian 90(TM) system (copyright 1990, Gaussian, Inc.),
 the Gaussian 88(TM) system (copyright 1988, Gaussian, Inc.),
 the Gaussian 86(TM) system (copyright 1986, Carnegie Mellon
 University), and the Gaussian 82(TM) system (copyright 1983,
 Carnegie Mellon University). Gaussian is a federally registered
 trademark of Gaussian, Inc.
  
 This software contains proprietary and confidential information,
 including trade secrets, belonging to Gaussian, Inc.
  
 This software is provided under written license and may be
 used, copied, transmitted, or stored only in accord with that
 written license.
  
 The following legend is applicable only to US Government
 contracts under FAR:
  
                    RESTRICTED RIGHTS LEGEND
  
 Use, reproduction and disclosure by the US Government is
 subject to restrictions as set forth in subparagraphs (a)
 and (c) of the Commercial Computer Software - Restricted
 Rights clause in FAR 52.227-19.
  
 Gaussian, Inc.
 340 Quinnipiac St., Bldg. 40, Wallingford CT 06492
  
  
 ---------------------------------------------------------------
 Warning -- This program may not be used in any manner that
 competes with the business of Gaussian, Inc. or will provide
 assistance to any competitor of Gaussian, Inc.  The licensee
 of this program is prohibited from giving any competitor of
 Gaussian, Inc. access to this program.  By using this program,
 the user acknowledges that Gaussian, Inc. is engaged in the
 business of creating and licensing software in the field of
 computational chemistry and represents and warrants to the
 licensee that it is not a competitor of Gaussian, Inc. and that
 it will not use this program in any manner prohibited above.
 ---------------------------------------------------------------
  

 Cite this work as:
 Gaussian 16, Revision C.01,
 M. J. Frisch, G. W. Trucks, H. B. Schlegel, G. E. Scuseria, 
 M. A. Robb, J. R. Cheeseman, G. Scalmani, V. Barone, 
 G. A. Petersson, H. Nakatsuji, X. Li, M. Caricato, A. V. Marenich, 
 J. Bloino, B. G. Janesko, R. Gomperts, B. Mennucci, H. P. Hratchian, 
 J. V. Ortiz, A. F. Izmaylov, J. L. Sonnenberg, D. Williams-Young, 
 F. Ding, F. Lipparini, F. Egidi, J. Goings, B. Peng, A. Petrone, 
 T. Henderson, D. Ranasinghe, V. G. Zakrzewski, J. Gao, N. Rega, 
 G. Zheng, W. Liang, M. Hada, M. Ehara, K. Toyota, R. Fukuda, 
 J. Hasegawa, M. Ishida, T. Nakajima, Y. Honda, O. Kitao, H. Nakai, 
 T. Vreven, K. Throssell, J. A. Montgomery, Jr., J. E. Peralta, 
 F. Ogliaro, M. J. Bearpark, J. J. Heyd, E. N. Brothers, K. N. Kudin, 
 V. N. Staroverov, T. A. Keith, R. Kobayashi, J. Normand, 
 K. Raghavachari, A. P. Rendell, J. C. Burant, S. S. Iyengar, 
 J. Tomasi, M. Cossi, J. M. Millam, M. Klene, C. Adamo, R. Cammi, 
 J. W. Ochterski, R. L. Martin, K. Morokuma, O. Farkas, 
 J. B. Foresman, and D. J. Fox, Gaussian, Inc., Wallingford CT, 2019.
 
 ******************************************
 Gaussian 16:  ES64L-G16RevC.01  3-Jul-2019
                28-Mar-2024 
 ******************************************
 %nprocshared=6
 Will use up to    6 processors via shared memory.
 %chk=HZRh.chk
 %mem=2GB
 ----------------------------------------------------------
 # wb97xd def2TZVPP SCRF=(solvent=dichloromethane) opt freq
 ----------------------------------------------------------
 1/18=20,19=15,26=3,38=1/1,3;
 2/9=110,12=2,17=6,18=5,40=1/2;
 3/5=44,7=202,11=2,25=1,30=1,70=2201,71=1,72=9,74=-58/1,2,3;
 4//1;
 5/5=2,38=5,53=9/2;
 6/7=2,8=2,9=2,10=2,28=1/1;
 7//1,2,3,16;
 1/18=20,19=15,26=3/3(2);
 2/9=110/2;
 99//99;
 2/9=110/2;
 3/5=44,7=202,11=2,25=1,30=1,70=2205,71=1,72=9,74=-58/1,2,3;
 4/5=5,16=3,69=1/1;
 5/5=2,38=5,53=9/2;
 7//1,2,3,16;
 1/18=20,19=15,26=3/3(-5);
 2/9=110/2;
 6/7=2,8=2,9=2,10=2,19=2,28=1/1;
 99/9=1/99;
 ----
 HZRh
 ----
 Symbolic Z-matrix:
 Charge =  1 Multiplicity = 1
 C                     1.29836   1.18275  -0.29957 
 C                     1.29836  -1.18275  -0.29957 
 C                     2.65091   1.22941  -0.07856 
 C                     2.65091  -1.22941  -0.07856 
 C                     3.43977   0.        0.0701 
 H                     3.17615   2.18882  -0.03441 
 H                     3.17615  -2.18882  -0.03441 
 O                     4.66111   0.        0.28458 
 N                     0.62294   0.       -0.39931 
 C                     0.36995   2.33851  -0.58525 
 H                     0.18682   2.37859  -1.67542 
 H                     0.78082   3.3154   -0.25593 
 C                     0.36995  -2.33851  -0.58525 
 H                     0.18682  -2.37859  -1.67542 
 H                     0.78082  -3.3154   -0.25593 
 N                    -0.96289   2.09117   0.05855 
 N                    -0.96289  -2.09117   0.05855 
 C                    -1.98375   2.94652  -0.57575 
 H                    -2.94868   2.78755  -0.06686 
 H                    -1.70582   4.02011  -0.49087 
 H                    -2.07944   2.66779  -1.63586 
 C                    -0.85735   2.44389   1.49577 
 H                    -0.65319   3.53237   1.60374 
 H                    -1.80094   2.19388   2.00443 
 H                    -0.03738   1.86549   1.94787 
 C                    -1.98375  -2.94652  -0.57575 
 H                    -1.70582  -4.02011  -0.49087 
 H                    -2.94868  -2.78755  -0.06686 
 H                    -2.07944  -2.6678   -1.63586 
 C                    -0.85734  -2.44389   1.49578 
 H                    -1.80094  -2.19388   2.00443 
 H                    -0.65319  -3.53237   1.60374 
 H                    -0.03738  -1.86549   1.94787 
 Rh                   -1.25293   0.       -0.06655 
 H                     4.66111   1.        0.28458 
 

 GradGradGradGradGradGradGradGradGradGradGradGradGradGradGradGradGradGrad
 Berny optimization.
 Initialization pass.
                           ----------------------------
                           !    Initial Parameters    !
                           ! (Angstroms and Degrees)  !
 --------------------------                            --------------------------
 ! Name  Definition              Value          Derivative Info.                !
 --------------------------------------------------------------------------------
 ! R1    R(1,3)                  1.3713         estimate D2E/DX2                !
 ! R2    R(1,9)                  1.3657         estimate D2E/DX2                !
 ! R3    R(1,10)                 1.5097         estimate D2E/DX2                !
 ! R4    R(2,4)                  1.3713         estimate D2E/DX2                !
 ! R5    R(2,9)                  1.3657         estimate D2E/DX2                !
 ! R6    R(2,13)                 1.5097         estimate D2E/DX2                !
 ! R7    R(3,5)                  1.4683         estimate D2E/DX2                !
 ! R8    R(3,6)                  1.0947         estimate D2E/DX2                !
 ! R9    R(4,5)                  1.4683         estimate D2E/DX2                !
 ! R10   R(4,7)                  1.0947         estimate D2E/DX2                !
 ! R11   R(5,8)                  1.24           estimate D2E/DX2                !
 ! R12   R(8,35)                 1.0            estimate D2E/DX2                !
 ! R13   R(9,34)                 1.9052         estimate D2E/DX2                !
 ! R14   R(10,11)                1.1062         estimate D2E/DX2                !
 ! R15   R(10,12)                1.1098         estimate D2E/DX2                !
 ! R16   R(10,16)                1.5007         estimate D2E/DX2                !
 ! R17   R(13,14)                1.1062         estimate D2E/DX2                !
 ! R18   R(13,15)                1.1098         estimate D2E/DX2                !
 ! R19   R(13,17)                1.5007         estimate D2E/DX2                !
 ! R20   R(16,18)                1.4752         estimate D2E/DX2                !
 ! R21   R(16,22)                1.4836         estimate D2E/DX2                !
 ! R22   R(16,34)                2.1149         estimate D2E/DX2                !
 ! R23   R(17,26)                1.4752         estimate D2E/DX2                !
 ! R24   R(17,30)                1.4836         estimate D2E/DX2                !
 ! R25   R(17,34)                2.1149         estimate D2E/DX2                !
 ! R26   R(18,19)                1.1024         estimate D2E/DX2                !
 ! R27   R(18,20)                1.1122         estimate D2E/DX2                !
 ! R28   R(18,21)                1.1003         estimate D2E/DX2                !
 ! R29   R(22,23)                1.1127         estimate D2E/DX2                !
 ! R30   R(22,24)                1.1007         estimate D2E/DX2                !
 ! R31   R(22,25)                1.1006         estimate D2E/DX2                !
 ! R32   R(26,27)                1.1122         estimate D2E/DX2                !
 ! R33   R(26,28)                1.1024         estimate D2E/DX2                !
 ! R34   R(26,29)                1.1003         estimate D2E/DX2                !
 ! R35   R(30,31)                1.1007         estimate D2E/DX2                !
 ! R36   R(30,32)                1.1127         estimate D2E/DX2                !
 ! R37   R(30,33)                1.1006         estimate D2E/DX2                !
 ! A1    A(3,1,9)              121.9417         estimate D2E/DX2                !
 ! A2    A(3,1,10)             127.6613         estimate D2E/DX2                !
 ! A3    A(9,1,10)             110.1845         estimate D2E/DX2                !
 ! A4    A(4,2,9)              121.9417         estimate D2E/DX2                !
 ! A5    A(4,2,13)             127.6613         estimate D2E/DX2                !
 ! A6    A(9,2,13)             110.1845         estimate D2E/DX2                !
 ! A7    A(1,3,5)              121.1818         estimate D2E/DX2                !
 ! A8    A(1,3,6)              120.6362         estimate D2E/DX2                !
 ! A9    A(5,3,6)              118.163          estimate D2E/DX2                !
 ! A10   A(2,4,5)              121.1818         estimate D2E/DX2                !
 ! A11   A(2,4,7)              120.6362         estimate D2E/DX2                !
 ! A12   A(5,4,7)              118.163          estimate D2E/DX2                !
 ! A13   A(3,5,4)              113.7148         estimate D2E/DX2                !
 ! A14   A(3,5,8)              123.1397         estimate D2E/DX2                !
 ! A15   A(4,5,8)              123.1397         estimate D2E/DX2                !
 ! A16   A(5,8,35)              90.0            estimate D2E/DX2                !
 ! A17   A(1,9,2)              120.0085         estimate D2E/DX2                !
 ! A18   A(1,9,34)             118.3082         estimate D2E/DX2                !
 ! A19   A(2,9,34)             118.3082         estimate D2E/DX2                !
 ! A20   A(1,10,11)            108.423          estimate D2E/DX2                !
 ! A21   A(1,10,12)            112.9576         estimate D2E/DX2                !
 ! A22   A(1,10,16)            109.8043         estimate D2E/DX2                !
 ! A23   A(11,10,12)           108.775          estimate D2E/DX2                !
 ! A24   A(11,10,16)           106.3635         estimate D2E/DX2                !
 ! A25   A(12,10,16)           110.2792         estimate D2E/DX2                !
 ! A26   A(2,13,14)            108.423          estimate D2E/DX2                !
 ! A27   A(2,13,15)            112.9576         estimate D2E/DX2                !
 ! A28   A(2,13,17)            109.8043         estimate D2E/DX2                !
 ! A29   A(14,13,15)           108.775          estimate D2E/DX2                !
 ! A30   A(14,13,17)           106.3635         estimate D2E/DX2                !
 ! A31   A(15,13,17)           110.2792         estimate D2E/DX2                !
 ! A32   A(10,16,18)           109.5478         estimate D2E/DX2                !
 ! A33   A(10,16,22)           108.2532         estimate D2E/DX2                !
 ! A34   A(10,16,34)           105.034          estimate D2E/DX2                !
 ! A35   A(18,16,22)           109.1422         estimate D2E/DX2                !
 ! A36   A(18,16,34)           116.9356         estimate D2E/DX2                !
 ! A37   A(22,16,34)           107.5857         estimate D2E/DX2                !
 ! A38   A(13,17,26)           109.5478         estimate D2E/DX2                !
 ! A39   A(13,17,30)           108.2528         estimate D2E/DX2                !
 ! A40   A(13,17,34)           105.034          estimate D2E/DX2                !
 ! A41   A(26,17,30)           109.1425         estimate D2E/DX2                !
 ! A42   A(26,17,34)           116.9356         estimate D2E/DX2                !
 ! A43   A(30,17,34)           107.5857         estimate D2E/DX2                !
 ! A44   A(16,18,19)           108.8822         estimate D2E/DX2                !
 ! A45   A(16,18,20)           110.729          estimate D2E/DX2                !
 ! A46   A(16,18,21)           109.1217         estimate D2E/DX2                !
 ! A47   A(19,18,20)           108.8254         estimate D2E/DX2                !
 ! A48   A(19,18,21)           109.3961         estimate D2E/DX2                !
 ! A49   A(20,18,21)           109.8634         estimate D2E/DX2                !
 ! A50   A(16,22,23)           109.8534         estimate D2E/DX2                !
 ! A51   A(16,22,24)           109.4314         estimate D2E/DX2                !
 ! A52   A(16,22,25)           109.0255         estimate D2E/DX2                !
 ! A53   A(23,22,24)           109.5501         estimate D2E/DX2                !
 ! A54   A(23,22,25)           109.7268         estimate D2E/DX2                !
 ! A55   A(24,22,25)           109.2371         estimate D2E/DX2                !
 ! A56   A(17,26,27)           110.729          estimate D2E/DX2                !
 ! A57   A(17,26,28)           108.8822         estimate D2E/DX2                !
 ! A58   A(17,26,29)           109.1221         estimate D2E/DX2                !
 ! A59   A(27,26,28)           108.8254         estimate D2E/DX2                !
 ! A60   A(27,26,29)           109.8629         estimate D2E/DX2                !
 ! A61   A(28,26,29)           109.3963         estimate D2E/DX2                !
 ! A62   A(17,30,31)           109.4304         estimate D2E/DX2                !
 ! A63   A(17,30,32)           109.8528         estimate D2E/DX2                !
 ! A64   A(17,30,33)           109.0254         estimate D2E/DX2                !
 ! A65   A(31,30,32)           109.55           estimate D2E/DX2                !
 ! A66   A(31,30,33)           109.2376         estimate D2E/DX2                !
 ! A67   A(32,30,33)           109.7279         estimate D2E/DX2                !
 ! A68   A(9,34,16)             82.8365         estimate D2E/DX2                !
 ! A69   A(9,34,17)             82.8365         estimate D2E/DX2                !
 ! A70   A(16,34,17)           162.8209         estimate D2E/DX2                !
 ! D1    D(9,1,3,5)             -0.371          estimate D2E/DX2                !
 ! D2    D(9,1,3,6)            178.0156         estimate D2E/DX2                !
 ! D3    D(10,1,3,5)          -174.5378         estimate D2E/DX2                !
 ! D4    D(10,1,3,6)             3.8488         estimate D2E/DX2                !
 ! D5    D(3,1,9,2)             -1.0365         estimate D2E/DX2                !
 ! D6    D(3,1,9,34)           157.8855         estimate D2E/DX2                !
 ! D7    D(10,1,9,2)           174.0461         estimate D2E/DX2                !
 ! D8    D(10,1,9,34)          -27.032          estimate D2E/DX2                !
 ! D9    D(3,1,10,11)           99.7975         estimate D2E/DX2                !
 ! D10   D(3,1,10,12)          -20.8345         estimate D2E/DX2                !
 ! D11   D(3,1,10,16)         -144.3811         estimate D2E/DX2                !
 ! D12   D(9,1,10,11)          -74.9303         estimate D2E/DX2                !
 ! D13   D(9,1,10,12)          164.4376         estimate D2E/DX2                !
 ! D14   D(9,1,10,16)           40.8911         estimate D2E/DX2                !
 ! D15   D(9,2,4,5)              0.371          estimate D2E/DX2                !
 ! D16   D(9,2,4,7)           -178.0156         estimate D2E/DX2                !
 ! D17   D(13,2,4,5)           174.5378         estimate D2E/DX2                !
 ! D18   D(13,2,4,7)            -3.8488         estimate D2E/DX2                !
 ! D19   D(4,2,9,1)              1.0365         estimate D2E/DX2                !
 ! D20   D(4,2,9,34)          -157.8855         estimate D2E/DX2                !
 ! D21   D(13,2,9,1)          -174.0461         estimate D2E/DX2                !
 ! D22   D(13,2,9,34)           27.032          estimate D2E/DX2                !
 ! D23   D(4,2,13,14)          -99.7975         estimate D2E/DX2                !
 ! D24   D(4,2,13,15)           20.8345         estimate D2E/DX2                !
 ! D25   D(4,2,13,17)          144.3811         estimate D2E/DX2                !
 ! D26   D(9,2,13,14)           74.9303         estimate D2E/DX2                !
 ! D27   D(9,2,13,15)         -164.4376         estimate D2E/DX2                !
 ! D28   D(9,2,13,17)          -40.8911         estimate D2E/DX2                !
 ! D29   D(1,3,5,4)              1.6261         estimate D2E/DX2                !
 ! D30   D(1,3,5,8)           -179.2242         estimate D2E/DX2                !
 ! D31   D(6,3,5,4)           -176.7993         estimate D2E/DX2                !
 ! D32   D(6,3,5,8)              2.3503         estimate D2E/DX2                !
 ! D33   D(2,4,5,3)             -1.6261         estimate D2E/DX2                !
 ! D34   D(2,4,5,8)            179.2242         estimate D2E/DX2                !
 ! D35   D(7,4,5,3)            176.7993         estimate D2E/DX2                !
 ! D36   D(7,4,5,8)             -2.3503         estimate D2E/DX2                !
 ! D37   D(3,5,8,35)             0.4649         estimate D2E/DX2                !
 ! D38   D(4,5,8,35)           179.5351         estimate D2E/DX2                !
 ! D39   D(1,9,34,16)            5.6059         estimate D2E/DX2                !
 ! D40   D(1,9,34,17)         -164.8901         estimate D2E/DX2                !
 ! D41   D(2,9,34,16)          164.8901         estimate D2E/DX2                !
 ! D42   D(2,9,34,17)           -5.6059         estimate D2E/DX2                !
 ! D43   D(1,10,16,18)        -160.8258         estimate D2E/DX2                !
 ! D44   D(1,10,16,22)          80.2594         estimate D2E/DX2                !
 ! D45   D(1,10,16,34)         -34.4489         estimate D2E/DX2                !
 ! D46   D(11,10,16,18)        -43.7085         estimate D2E/DX2                !
 ! D47   D(11,10,16,22)       -162.6234         estimate D2E/DX2                !
 ! D48   D(11,10,16,34)         82.6683         estimate D2E/DX2                !
 ! D49   D(12,10,16,18)         74.0729         estimate D2E/DX2                !
 ! D50   D(12,10,16,22)        -44.8419         estimate D2E/DX2                !
 ! D51   D(12,10,16,34)       -159.5502         estimate D2E/DX2                !
 ! D52   D(2,13,17,26)         160.8258         estimate D2E/DX2                !
 ! D53   D(2,13,17,30)         -80.2592         estimate D2E/DX2                !
 ! D54   D(2,13,17,34)          34.4489         estimate D2E/DX2                !
 ! D55   D(14,13,17,26)         43.7085         estimate D2E/DX2                !
 ! D56   D(14,13,17,30)        162.6236         estimate D2E/DX2                !
 ! D57   D(14,13,17,34)        -82.6683         estimate D2E/DX2                !
 ! D58   D(15,13,17,26)        -74.0729         estimate D2E/DX2                !
 ! D59   D(15,13,17,30)         44.8421         estimate D2E/DX2                !
 ! D60   D(15,13,17,34)        159.5502         estimate D2E/DX2                !
 ! D61   D(10,16,18,19)       -177.635          estimate D2E/DX2                !
 ! D62   D(10,16,18,20)        -58.0257         estimate D2E/DX2                !
 ! D63   D(10,16,18,21)         63.0201         estimate D2E/DX2                !
 ! D64   D(22,16,18,19)        -59.2711         estimate D2E/DX2                !
 ! D65   D(22,16,18,20)         60.3382         estimate D2E/DX2                !
 ! D66   D(22,16,18,21)       -178.616          estimate D2E/DX2                !
 ! D67   D(34,16,18,19)         63.0796         estimate D2E/DX2                !
 ! D68   D(34,16,18,20)       -177.3111         estimate D2E/DX2                !
 ! D69   D(34,16,18,21)        -56.2653         estimate D2E/DX2                !
 ! D70   D(10,16,22,23)         64.1883         estimate D2E/DX2                !
 ! D71   D(10,16,22,24)       -175.504          estimate D2E/DX2                !
 ! D72   D(10,16,22,25)        -56.0839         estimate D2E/DX2                !
 ! D73   D(18,16,22,23)        -54.9829         estimate D2E/DX2                !
 ! D74   D(18,16,22,24)         65.3247         estimate D2E/DX2                !
 ! D75   D(18,16,22,25)       -175.2551         estimate D2E/DX2                !
 ! D76   D(34,16,22,23)        177.2087         estimate D2E/DX2                !
 ! D77   D(34,16,22,24)        -62.4836         estimate D2E/DX2                !
 ! D78   D(34,16,22,25)         56.9365         estimate D2E/DX2                !
 ! D79   D(10,16,34,9)          16.8542         estimate D2E/DX2                !
 ! D80   D(10,16,34,17)         50.5424         estimate D2E/DX2                !
 ! D81   D(18,16,34,9)         138.5278         estimate D2E/DX2                !
 ! D82   D(18,16,34,17)        172.216          estimate D2E/DX2                !
 ! D83   D(22,16,34,9)         -98.3182         estimate D2E/DX2                !
 ! D84   D(22,16,34,17)        -64.63           estimate D2E/DX2                !
 ! D85   D(13,17,26,27)         58.0257         estimate D2E/DX2                !
 ! D86   D(13,17,26,28)        177.635          estimate D2E/DX2                !
 ! D87   D(13,17,26,29)        -63.0197         estimate D2E/DX2                !
 ! D88   D(30,17,26,27)        -60.338          estimate D2E/DX2                !
 ! D89   D(30,17,26,28)         59.2713         estimate D2E/DX2                !
 ! D90   D(30,17,26,29)        178.6166         estimate D2E/DX2                !
 ! D91   D(34,17,26,27)        177.3111         estimate D2E/DX2                !
 ! D92   D(34,17,26,28)        -63.0796         estimate D2E/DX2                !
 ! D93   D(34,17,26,29)         56.2657         estimate D2E/DX2                !
 ! D94   D(13,17,30,31)        175.5043         estimate D2E/DX2                !
 ! D95   D(13,17,30,32)        -64.1891         estimate D2E/DX2                !
 ! D96   D(13,17,30,33)         56.0841         estimate D2E/DX2                !
 ! D97   D(26,17,30,31)        -65.3244         estimate D2E/DX2                !
 ! D98   D(26,17,30,32)         54.9822         estimate D2E/DX2                !
 ! D99   D(26,17,30,33)        175.2553         estimate D2E/DX2                !
 ! D100  D(34,17,30,31)         62.4841         estimate D2E/DX2                !
 ! D101  D(34,17,30,32)       -177.2093         estimate D2E/DX2                !
 ! D102  D(34,17,30,33)        -56.9361         estimate D2E/DX2                !
 ! D103  D(13,17,34,9)         -16.8542         estimate D2E/DX2                !
 ! D104  D(13,17,34,16)        -50.5424         estimate D2E/DX2                !
 ! D105  D(26,17,34,9)        -138.5278         estimate D2E/DX2                !
 ! D106  D(26,17,34,16)       -172.216          estimate D2E/DX2                !
 ! D107  D(30,17,34,9)          98.3178         estimate D2E/DX2                !
 ! D108  D(30,17,34,16)         64.6297         estimate D2E/DX2                !
 --------------------------------------------------------------------------------
 Trust Radius=3.00D-01 FncErr=1.00D-07 GrdErr=1.00D-06 EigMax=2.50D+02 EigMin=1.00D-04
 Number of steps in this run=    210 maximum allowed number of steps=    210.
 GradGradGradGradGradGradGradGradGradGradGradGradGradGradGradGradGradGrad

                          Input orientation:                          
 ---------------------------------------------------------------------
 Center     Atomic      Atomic             Coordinates (Angstroms)
 Number     Number       Type             X           Y           Z
 ---------------------------------------------------------------------
      1          6           0        1.298360    1.182750   -0.299570
      2          6           0        1.298360   -1.182750   -0.299570
      3          6           0        2.650910    1.229410   -0.078560
      4          6           0        2.650910   -1.229410   -0.078560
      5          6           0        3.439770    0.000000    0.070100
      6          1           0        3.176150    2.188820   -0.034410
      7          1           0        3.176150   -2.188820   -0.034410
      8          8           0        4.661110    0.000000    0.284580
      9          7           0        0.622940    0.000000   -0.399310
     10          6           0        0.369950    2.338510   -0.585250
     11          1           0        0.186820    2.378590   -1.675420
     12          1           0        0.780820    3.315400   -0.255930
     13          6           0        0.369950   -2.338510   -0.585250
     14          1           0        0.186820   -2.378590   -1.675420
     15          1           0        0.780820   -3.315400   -0.255930
     16          7           0       -0.962890    2.091170    0.058550
     17          7           0       -0.962890   -2.091170    0.058550
     18          6           0       -1.983750    2.946520   -0.575750
     19          1           0       -2.948680    2.787550   -0.066860
     20          1           0       -1.705820    4.020110   -0.490870
     21          1           0       -2.079440    2.667790   -1.635860
     22          6           0       -0.857350    2.443890    1.495770
     23          1           0       -0.653190    3.532370    1.603740
     24          1           0       -1.800940    2.193880    2.004430
     25          1           0       -0.037380    1.865490    1.947870
     26          6           0       -1.983750   -2.946520   -0.575750
     27          1           0       -1.705820   -4.020110   -0.490870
     28          1           0       -2.948680   -2.787550   -0.066860
     29          1           0       -2.079440   -2.667800   -1.635860
     30          6           0       -0.857340   -2.443890    1.495780
     31          1           0       -1.800940   -2.193880    2.004430
     32          1           0       -0.653190   -3.532370    1.603740
     33          1           0       -0.037380   -1.865490    1.947870
     34         45           0       -1.252930    0.000000   -0.066550
     35          1           0        4.661110    1.000000    0.284580
 ---------------------------------------------------------------------
                    Distance matrix (angstroms):
                    1          2          3          4          5
     1  C    0.000000
     2  C    2.365500   0.000000
     3  C    1.371282   2.774302   0.000000
     4  C    2.774302   1.371282   2.458820   0.000000
     5  C    2.474104   2.474104   1.468281   1.468281   0.000000
     6  H    2.146761   3.868319   1.094666   3.458630   2.207114
     7  H    3.868319   2.146761   3.458630   1.094666   2.207114
     8  O    3.612231   3.612231   2.384161   2.384161   1.240029
     9  N    1.365664   1.365664   2.393113   2.393113   2.855675
    10  C    1.509748   3.652784   2.586429   4.264923   3.914321
    11  H    2.135069   3.976384   3.153144   4.651813   4.391607
    12  H    2.194982   4.528036   2.807143   4.917723   4.262416
    13  C    3.652784   1.509748   4.264923   2.586429   3.914321
    14  H    3.976384   2.135069   4.651813   3.153144   4.391607
    15  H    4.528036   2.194982   4.917723   2.807143   4.262416
    16  N    2.463073   3.995004   3.717658   4.909644   4.874068
    17  N    3.995004   2.463073   4.909644   3.717658   4.874068
    18  C    3.736229   5.281988   4.967468   6.258248   6.205938
    19  H    4.546085   5.818486   5.812344   6.891409   6.971477
    20  H    4.136702   6.010944   5.190289   6.834366   6.553859
    21  H    3.924353   5.293568   5.183660   6.323730   6.363103
    22  C    3.075842   4.585068   4.032538   5.317851   5.144937
    23  H    3.598868   5.446420   4.364726   6.035044   5.619787
    24  H    3.992050   5.129884   5.008794   5.989719   6.001648
    25  H    2.702096   4.015838   3.426065   4.572934   4.369971
    26  C    5.281988   3.736229   6.258248   4.967468   6.205938
    27  H    6.010944   4.136702   6.834366   5.190289   6.553859
    28  H    5.818486   4.546085   6.891409   5.812344   6.971477
    29  H    5.293575   3.924357   6.323736   5.183663   6.363107
    30  C    4.585067   3.075841   5.317847   4.032533   5.144931
    31  H    5.129884   3.992050   5.989719   5.008794   6.001648
    32  H    5.446420   3.598868   6.035044   4.364726   5.619787
    33  H    4.015838   2.702096   4.572934   3.426065   4.369971
    34  Rh   2.821751   2.821751   4.092867   4.092867   4.694689
    35  H    3.417999   4.051384   2.055579   3.023747   1.593008
                    6          7          8          9         10
     6  H    0.000000
     7  H    4.377640   0.000000
     8  O    2.664169   2.664169   0.000000
     9  N    3.382745   3.382745   4.095671   0.000000
    10  C    2.863667   5.354895   4.963798   2.359493   0.000000
    11  H    3.415409   5.700021   5.433099   2.734291   1.106171
    12  H    2.656287   6.006922   5.132317   3.322252   1.109766
    13  C    5.354895   2.863667   4.963798   2.359493   4.677020
    14  H    5.700021   3.415409   5.433099   2.734291   4.844898
    15  H    6.006922   2.656287   5.132317   3.322252   5.678377
    16  N    4.141235   5.954713   6.004453   2.664110   1.500706
    17  N    5.954713   4.141235   6.004453   2.664110   4.670440
    18  C    5.243255   7.299954   7.319584   3.938013   2.430981
    19  H    6.154110   7.891695   8.111896   4.542844   3.388756
    20  H    5.234082   7.911561   7.569703   4.646804   2.673108
    21  H    5.515005   7.332975   7.499347   3.993622   2.685464
    22  C    4.321531   6.330290   6.155727   3.428584   2.418267
    23  H    4.376358   7.076680   6.516104   4.256566   2.695143
    24  H    5.378505   6.938037   7.037690   4.057865   3.382325
    25  H    3.789558   5.540184   5.321879   3.070070   2.608901
    26  C    7.299954   5.243255   7.319584   3.938013   5.785459
    27  H    7.911561   5.234082   7.569703   4.646804   6.689527
    28  H    7.891695   6.154110   8.111896   4.542844   6.128501
    29  H    7.332982   5.515006   7.499351   3.993629   5.671546
    30  C    6.330286   4.321526   6.155720   3.428585   5.358010
    31  H    6.938037   5.378505   7.037690   4.057865   5.653474
    32  H    7.076680   4.376358   6.516104   4.256566   6.348679
    33  H    5.540184   3.789558   5.321879   3.070070   4.925061
    34  Rh   4.940518   4.940518   5.924455   1.905155   2.893340
    35  H    1.928770   3.532058   1.000000   4.215984   4.578457
                   11         12         13         14         15
    11  H    0.000000
    12  H    1.801500   0.000000
    13  C    4.844898   5.678377   0.000000
    14  H    4.757180   5.898246   1.106171   0.000000
    15  H    5.898246   6.630800   1.109766   1.801500   0.000000
    16  N    2.100261   2.153639   4.670440   4.930237   5.689501
    17  N    4.930237   5.689501   1.500706   2.100261   2.153639
    18  C    2.498638   2.807348   5.785459   5.854694   6.852501
    19  H    3.547686   3.771411   6.128501   6.253625   7.154783
    20  H    2.771251   2.595225   6.689527   6.777065   7.749083
    21  H    2.284981   3.241094   5.671537   5.532039   6.773762
    22  C    3.339311   2.551780   5.358009   5.865411   6.238708
    23  H    3.576271   2.358354   6.348679   6.811604   7.239248
    24  H    4.186479   3.610058   5.653474   6.196771   6.490522
    25  H    3.666302   2.761960   4.925061   5.584864   5.689271
    26  C    5.854694   6.852501   2.430981   2.498638   2.807348
    27  H    6.777065   7.749083   2.673108   2.771251   2.595225
    28  H    6.253625   7.154783   3.388756   3.547686   3.771411
    29  H    5.532048   6.773771   2.685465   2.284982   3.241092
    30  C    5.865415   6.238708   2.418270   3.339318   2.551781
    31  H    6.196771   6.490522   3.382325   4.186479   3.610058
    32  H    6.811604   7.239248   2.695143   3.576271   2.358354
    33  H    5.584864   5.689271   2.608901   3.666302   2.761960
    34  Rh   3.212325   3.894083   2.893340   3.212325   3.894083
    35  H    5.075567   4.550811   5.506025   5.939338   5.828506
                   16         17         18         19         20
    16  N    0.000000
    17  N    4.182340   0.000000
    18  C    1.475166   5.179074   0.000000
    19  H    2.108088   5.268871   1.102420   0.000000
    20  H    2.138835   6.180740   1.112225   1.801025   0.000000
    21  H    2.109550   5.173530   1.100309   1.797688   1.810901
    22  C    1.483628   4.758520   2.410935   2.633168   2.674156
    23  H    2.135552   5.840182   2.619883   2.935121   2.394433
    24  H    2.121162   4.780212   2.693922   2.441310   3.093653
    25  H    2.115899   4.481212   3.365359   3.658552   3.656984
    26  C    5.179074   1.475166   5.893040   5.836919   6.972688
    27  H    6.180740   2.138835   6.972688   6.933161   8.040220
    28  H    5.268871   2.108088   5.836919   5.575100   6.933161
    29  H    5.173539   2.109552   5.714331   5.742663   6.795494
    30  C    4.758523   1.483638   5.883584   5.846667   6.815423
    31  H    4.780212   2.121162   5.754517   5.515632   6.696958
    32  H    5.840182   2.135552   6.963949   6.928316   7.907931
    33  H    4.481212   2.115899   5.771694   5.846844   6.585699
    34  Rh   2.114891   2.114891   3.078208   3.262821   4.067732
    35  H    5.733334   6.421511   6.977340   7.824816   7.089442
                   21         22         23         24         25
    21  H    0.000000
    22  C    3.369086   0.000000
    23  H    3.643720   1.112712   0.000000
    24  H    3.681557   1.100728   1.808159   0.000000
    25  H    4.202001   1.100587   1.810010   1.794765   0.000000
    26  C    5.714321   5.883578   6.963949   5.754517   5.771694
    27  H    6.795484   6.815419   7.907931   6.696958   6.585699
    28  H    5.742654   5.846660   6.928316   5.515632   5.846844
    29  H    5.335590   6.118005   7.139419   6.079902   6.128935
    30  C    6.118004   4.887780   5.980720   4.760044   4.409929
    31  H    6.079894   4.760043   5.853872   4.387760   4.426266
    32  H    7.139410   5.980721   7.064740   5.853872   5.443762
    33  H    6.128928   4.409932   5.443762   4.426266   3.730980
    34  Rh   3.203585   2.927444   3.953125   3.066330   3.002583
    35  H    7.204487   5.831398   6.032816   6.792741   5.058796
                   26         27         28         29         30
    26  C    0.000000
    27  H    1.112225   0.000000
    28  H    1.102420   1.801025   0.000000
    29  H    1.100307   1.810894   1.797687   0.000000
    30  C    2.410949   2.674166   2.633182   3.369100   0.000000
    31  H    2.693922   3.093653   2.441310   3.681559   1.100732
    32  H    2.619883   2.394433   2.935121   3.643718   1.112709
    33  H    3.365359   3.656984   3.658552   4.202003   1.100575
    34  Rh   3.078208   4.067732   3.262821   3.203593   2.927450
    35  H    7.776204   8.144975   8.507523   7.910491   6.616697
                   31         32         33         34         35
    31  H    0.000000
    32  H    1.808159   0.000000
    33  H    1.794765   1.810010   0.000000
    34  Rh   3.066330   3.953125   3.002583   0.000000
    35  H    7.410590   7.108048   5.749206   6.008258   0.000000
 Stoichiometry    C11H19N3ORh(1+)
 Framework group  C1[X(C11H19N3ORh)]
 Deg. of freedom    99
 Full point group                 C1      NOp   1
 Largest Abelian subgroup         C1      NOp   1
 Largest concise Abelian subgroup C1      NOp   1
                         Standard orientation:                         
 ---------------------------------------------------------------------
 Center     Atomic      Atomic             Coordinates (Angstroms)
 Number     Number       Type             X           Y           Z
 ---------------------------------------------------------------------
      1          6           0        1.326580    1.110068   -0.305432
      2          6           0        1.205972   -1.252355   -0.303888
      3          6           0        2.680327    1.087818   -0.087975
      4          6           0        2.554961   -1.367803   -0.086371
      5          6           0        3.405867   -0.180138    0.059432
      6          1           0        3.253915    2.019222   -0.045820
      7          1           0        3.030715   -2.352723   -0.042962
      8          8           0        4.626179   -0.242300    0.270731
      9          7           0        0.591474   -0.036757   -0.402641
     10          6           0        0.457556    2.311514   -0.589448
     11          1           0        0.273837    2.360313   -1.679163
     12          1           0        0.918566    3.266355   -0.261837
     13          6           0        0.219092   -2.359422   -0.586395
     14          1           0        0.031286   -2.390678   -1.676058
     15          1           0        0.580485   -3.355820   -0.257509
     16          7           0       -0.884461    2.132789    0.057982
     17          7           0       -1.097703   -2.044111    0.060712
     18          6           0       -1.862049    3.038748   -0.574216
     19          1           0       -2.832485    2.929449   -0.062711
     20          1           0       -1.529519    4.096815   -0.490760
     21          1           0       -1.974618    2.764710   -1.633891
     22          6           0       -0.757289    2.480415    1.494692
     23          1           0       -0.497613    3.557125    1.601419
     24          1           0       -1.711056    2.279106    2.005970
     25          1           0        0.033312    1.861193    1.945032
     26          6           0       -2.162514   -2.846626   -0.570369
     27          1           0       -1.939461   -3.932946   -0.485513
     28          1           0       -3.116740   -2.638399   -0.059072
     29          1           0       -2.246660   -2.563940   -1.630408
     30          6           0       -1.006489   -2.401008    1.497892
     31          1           0       -1.934772   -2.102947    2.008834
     32          1           0       -0.857819   -3.498425    1.606031
     33          1           0       -0.156917   -1.864933    1.947468
     34         45           0       -1.281073    0.059063   -0.064997
     35          1           0        4.677165    0.756399    0.270078
 ---------------------------------------------------------------------
 Rotational constants (GHZ):           0.5417775           0.4215002           0.2640554
 Standard basis: def2TZVPP (5D, 7F)
 There are   896 symmetry adapted cartesian basis functions of A   symmetry.
 There are   787 symmetry adapted basis functions of A   symmetry.
   787 basis functions,  1187 primitive gaussians,   896 cartesian basis functions
    65 alpha electrons       65 beta electrons
       nuclear repulsion energy      1368.5387225971 Hartrees.
 NAtoms=   35 NActive=   35 NUniq=   35 SFac= 1.00D+00 NAtFMM=   60 NAOKFM=F Big=F
 Integral buffers will be    131072 words long.
 Raffenetti 2 integral format.
 Two-electron integral symmetry is turned on.
 Nuclear repulsion after empirical dispersion term =     1368.5062120404 Hartrees.
 ------------------------------------------------------------------------------
 Polarizable Continuum Model (PCM)
 =================================
 Model                : PCM.
 Atomic radii         : UFF (Universal Force Field).
 Polarization charges : Total charges.
 Charge compensation  : None.
 Solution method      : On-the-fly selection.
 Cavity type          : Scaled VdW (van der Waals Surface) (Alpha=1.100).
 Cavity algorithm     : GePol (No added spheres)
                        Default sphere list used, NSphG=   35.
                        Lebedev-Laikov grids with approx.  5.0 points / Ang**2.
                        Smoothing algorithm: York/Karplus (Gamma=1.0000).
                        Polarization charges: spherical gaussians, with
                                              point-specific exponents (IZeta= 3).
                        Self-potential: point-specific (ISelfS= 7).
                        Self-field    : sphere-specific E.n sum rule (ISelfD= 2).
 1st derivatives      : Analytical E(r).r(x)/FMM algorithm (CHGder, D1EAlg=3).
                        Cavity 1st derivative terms included.
 Solvent              : Dichloromethane, Eps=   8.930000 Eps(inf)=   2.028346
 ------------------------------------------------------------------------------
 One-electron integrals computed using PRISM.
   1 Symmetry operations used in ECPInt.
 ECPInt:  NShTT=   43660 NPrTT=  113450 LenC2=   39476 LenP2D=   78711.
 LDataN:  DoStor=T MaxTD1= 8 Len=  415
 NBasis=   787 RedAO= T EigKep=  2.03D-05  NBF=   787
 NBsUse=   787 1.00D-06 EigRej= -1.00D+00 NBFU=   787
 Defaulting to unpruned grid for atomic number  45.
 ExpMin= 3.70D-02 ExpMax= 2.70D+04 ExpMxC= 9.22D+02 IAcc=3 IRadAn=         5 AccDes= 0.00D+00
 Harris functional with IExCor= 4639 and IRadAn=       5 diagonalized for initial guess.
 HarFok:  IExCor= 4639 AccDes= 0.00D+00 IRadAn=         5 IDoV= 1 UseB2=F ITyADJ=14
 ICtDFT=  3500011 ScaDFX=  1.000000  1.000000  1.000000  1.000000
 Defaulting to unpruned grid for atomic number  45.
 FoFCou: FMM=F IPFlag=           0 FMFlag=      100000 FMFlg1=           0
         NFxFlg=           0 DoJE=T BraDBF=F KetDBF=T FulRan=T
         wScrn=  0.000000 ICntrl=       500 IOpCl=  0 I1Cent=   200000004 NGrid=           0
         NMat0=    1 NMatS0=      1 NMatT0=    0 NMatD0=    1 NMtDS0=    0 NMtDT0=    0
 Petite list used in FoFCou.
 Requested convergence on RMS density matrix=1.00D-08 within 128 cycles.
 Requested convergence on MAX density matrix=1.00D-06.
 Requested convergence on             energy=1.00D-06.
 No special actions if energy rises.
 Defaulting to unpruned grid for atomic number  45.
 Defaulting to unpruned grid for atomic number  45.
 Defaulting to unpruned grid for atomic number  45.
 Defaulting to unpruned grid for atomic number  45.
 Defaulting to unpruned grid for atomic number  45.
 Defaulting to unpruned grid for atomic number  45.
 Inv3:  Mode=1 IEnd=    17323227.
 Iteration    1 A*A^-1 deviation from unit magnitude is 3.44D-15 for    751.
 Iteration    1 A*A^-1 deviation from orthogonality  is 1.83D-15 for    742    131.
 Iteration    1 A^-1*A deviation from unit magnitude is 3.44D-15 for    751.
 Iteration    1 A^-1*A deviation from orthogonality  is 2.22D-15 for   1681    631.
 Restarting incremental Fock formation.
 Error on total polarization charges =  0.01920
 SCF Done:  E(RwB97XD) =  -780.579224593     A.U. after   21 cycles
            NFock= 21  Conv=0.44D-08     -V/T= 2.1039

 **********************************************************************

            Population analysis using the SCF Density.

 **********************************************************************

 Orbital symmetries:
       Occupied  (A) (A) (A) (A) (A) (A) (A) (A) (A) (A) (A) (A)
                 (A) (A) (A) (A) (A) (A) (A) (A) (A) (A) (A) (A)
                 (A) (A) (A) (A) (A) (A) (A) (A) (A) (A) (A) (A)
                 (A) (A) (A) (A) (A) (A) (A) (A) (A) (A) (A) (A)
                 (A) (A) (A) (A) (A) (A) (A) (A) (A) (A) (A) (A)
                 (A) (A) (A) (A) (A)
       Virtual   (A) (A) (A) (A) (A) (A) (A) (A) (A) (A) (A) (A)
                 (A) (A) (A) (A) (A) (A) (A) (A) (A) (A) (A) (A)
                 (A) (A) (A) (A) (A) (A) (A) (A) (A) (A) (A) (A)
                 (A) (A) (A) (A) (A) (A) (A) (A) (A) (A) (A) (A)
                 (A) (A) (A) (A) (A) (A) (A) (A) (A) (A) (A) (A)
                 (A) (A) (A) (A) (A) (A) (A) (A) (A) (A) (A) (A)
                 (A) (A) (A) (A) (A) (A) (A) (A) (A) (A) (A) (A)
                 (A) (A) (A) (A) (A) (A) (A) (A) (A) (A) (A) (A)
                 (A) (A) (A) (A) (A) (A) (A) (A) (A) (A) (A) (A)
                 (A) (A) (A) (A) (A) (A) (A) (A) (A) (A) (A) (A)
                 (A) (A) (A) (A) (A) (A) (A) (A) (A) (A) (A) (A)
                 (A) (A) (A) (A) (A) (A) (A) (A) (A) (A) (A) (A)
                 (A) (A) (A) (A) (A) (A) (A) (A) (A) (A) (A) (A)
                 (A) (A) (A) (A) (A) (A) (A) (A) (A) (A) (A) (A)
                 (A) (A) (A) (A) (A) (A) (A) (A) (A) (A) (A) (A)
                 (A) (A) (A) (A) (A) (A) (A) (A) (A) (A) (A) (A)
                 (A) (A) (A) (A) (A) (A) (A) (A) (A) (A) (A) (A)
                 (A) (A) (A) (A) (A) (A) (A) (A) (A) (A) (A) (A)
                 (A) (A) (A) (A) (A) (A) (A) (A) (A) (A) (A) (A)
                 (A) (A) (A) (A) (A) (A) (A) (A) (A) (A) (A) (A)
                 (A) (A) (A) (A) (A) (A) (A) (A) (A) (A) (A) (A)
                 (A) (A) (A) (A) (A) (A) (A) (A) (A) (A) (A) (A)
                 (A) (A) (A) (A) (A) (A) (A) (A) (A) (A) (A) (A)
                 (A) (A) (A) (A) (A) (A) (A) (A) (A) (A) (A) (A)
                 (A) (A) (A) (A) (A) (A) (A) (A) (A) (A) (A) (A)
                 (A) (A) (A) (A) (A) (A) (A) (A) (A) (A) (A) (A)
                 (A) (A) (A) (A) (A) (A) (A) (A) (A) (A) (A) (A)
                 (A) (A) (A) (A) (A) (A) (A) (A) (A) (A) (A) (A)
                 (A) (A) (A) (A) (A) (A) (A) (A) (A) (A) (A) (A)
                 (A) (A) (A) (A) (A) (A) (A) (A) (A) (A) (A) (A)
                 (A) (A) (A) (A) (A) (A) (A) (A) (A) (A) (A) (A)
                 (A) (A) (A) (A) (A) (A) (A) (A) (A) (A) (A) (A)
                 (A) (A) (A) (A) (A) (A) (A) (A) (A) (A) (A) (A)
                 (A) (A) (A) (A) (A) (A) (A) (A) (A) (A) (A) (A)
                 (A) (A) (A) (A) (A) (A) (A) (A) (A) (A) (A) (A)
                 (A) (A) (A) (A) (A) (A) (A) (A) (A) (A) (A) (A)
                 (A) (A) (A) (A) (A) (A) (A) (A) (A) (A) (A) (A)
                 (A) (A) (A) (A) (A) (A) (A) (A) (A) (A) (A) (A)
                 (A) (A) (A) (A) (A) (A) (A) (A) (A) (A) (A) (A)
                 (A) (A) (A) (A) (A) (A) (A) (A) (A) (A) (A) (A)
                 (A) (A) (A) (A) (A) (A) (A) (A) (A) (A) (A) (A)
                 (A) (A) (A) (A) (A) (A) (A) (A) (A) (A) (A) (A)
                 (A) (A) (A) (A) (A) (A) (A) (A) (A) (A) (A) (A)
                 (A) (A) (A) (A) (A) (A) (A) (A) (A) (A) (A) (A)
                 (A) (A) (A) (A) (A) (A) (A) (A) (A) (A) (A) (A)
                 (A) (A) (A) (A) (A) (A) (A) (A) (A) (A) (A) (A)
                 (A) (A) (A) (A) (A) (A) (A) (A) (A) (A) (A) (A)
                 (A) (A) (A) (A) (A) (A) (A) (A) (A) (A) (A) (A)
                 (A) (A) (A) (A) (A) (A) (A) (A) (A) (A) (A) (A)
                 (A) (A) (A) (A) (A) (A) (A) (A) (A) (A) (A) (A)
                 (A) (A) (A) (A) (A) (A) (A) (A) (A) (A) (A) (A)
                 (A) (A) (A) (A) (A) (A) (A) (A) (A) (A) (A) (A)
                 (A) (A) (A) (A) (A) (A) (A) (A) (A) (A) (A) (A)
                 (A) (A) (A) (A) (A) (A) (A) (A) (A) (A) (A) (A)
                 (A) (A) (A) (A) (A) (A) (A) (A) (A) (A) (A) (A)
                 (A) (A) (A) (A) (A) (A) (A) (A) (A) (A) (A) (A)
                 (A) (A) (A) (A) (A) (A) (A) (A) (A) (A) (A) (A)
                 (A) (A) (A) (A) (A) (A) (A) (A) (A) (A) (A) (A)
                 (A) (A) (A) (A) (A) (A) (A) (A) (A) (A) (A) (A)
                 (A) (A) (A) (A) (A) (A) (A) (A) (A) (A) (A) (A)
                 (A) (A)
 The electronic state is 1-A.
 Alpha  occ. eigenvalues --  -19.34774 -14.50902 -14.50840 -14.50201 -10.41832
 Alpha  occ. eigenvalues --  -10.37369 -10.37099 -10.35550 -10.35414 -10.33239
 Alpha  occ. eigenvalues --  -10.33125 -10.33124 -10.33083 -10.33072 -10.32627
 Alpha  occ. eigenvalues --   -3.29167  -2.05742  -2.05389  -2.01859  -1.28004
 Alpha  occ. eigenvalues --   -1.10258  -1.07206  -1.06101  -0.93326  -0.91527
 Alpha  occ. eigenvalues --   -0.85245  -0.83566  -0.83165  -0.83115  -0.76784
 Alpha  occ. eigenvalues --   -0.75315  -0.72236  -0.71780  -0.68713  -0.64405
 Alpha  occ. eigenvalues --   -0.61872  -0.60948  -0.60068  -0.59615  -0.59229
 Alpha  occ. eigenvalues --   -0.58239  -0.58015  -0.57646  -0.55322  -0.53924
 Alpha  occ. eigenvalues --   -0.52755  -0.52027  -0.50898  -0.50558  -0.49401
 Alpha  occ. eigenvalues --   -0.48851  -0.48430  -0.47851  -0.47518  -0.46865
 Alpha  occ. eigenvalues --   -0.46204  -0.45151  -0.42961  -0.38257  -0.37516
 Alpha  occ. eigenvalues --   -0.37112  -0.30787  -0.28405  -0.27089  -0.26125
 Alpha virt. eigenvalues --   -0.00225   0.01690   0.02807   0.06675   0.07393
 Alpha virt. eigenvalues --    0.08427   0.09345   0.09957   0.12293   0.13463
 Alpha virt. eigenvalues --    0.13510   0.13943   0.14206   0.14803   0.15689
 Alpha virt. eigenvalues --    0.15944   0.16101   0.16468   0.16704   0.17785
 Alpha virt. eigenvalues --    0.18597   0.18719   0.18937   0.19458   0.20572
 Alpha virt. eigenvalues --    0.20851   0.21416   0.21637   0.21721   0.22190
 Alpha virt. eigenvalues --    0.22487   0.22808   0.23227   0.24216   0.24814
 Alpha virt. eigenvalues --    0.25759   0.26490   0.27082   0.27921   0.28738
 Alpha virt. eigenvalues --    0.29561   0.30179   0.30896   0.31270   0.31588
 Alpha virt. eigenvalues --    0.32233   0.32799   0.33467   0.33781   0.34862
 Alpha virt. eigenvalues --    0.35047   0.35920   0.36204   0.37523   0.37893
 Alpha virt. eigenvalues --    0.38352   0.38594   0.39188   0.39790   0.40241
 Alpha virt. eigenvalues --    0.40600   0.40864   0.41832   0.42276   0.43055
 Alpha virt. eigenvalues --    0.43945   0.44071   0.44576   0.45479   0.45784
 Alpha virt. eigenvalues --    0.46542   0.46846   0.47387   0.48146   0.48288
 Alpha virt. eigenvalues --    0.48586   0.49319   0.49612   0.50074   0.50463
 Alpha virt. eigenvalues --    0.50800   0.50935   0.51182   0.51367   0.51797
 Alpha virt. eigenvalues --    0.52187   0.52394   0.52978   0.53399   0.53903
 Alpha virt. eigenvalues --    0.54850   0.55357   0.55870   0.56398   0.56875
 Alpha virt. eigenvalues --    0.58061   0.58139   0.59322   0.59725   0.61187
 Alpha virt. eigenvalues --    0.61469   0.62051   0.63692   0.63875   0.64524
 Alpha virt. eigenvalues --    0.65665   0.66460   0.66678   0.68246   0.68786
 Alpha virt. eigenvalues --    0.69844   0.70217   0.71051   0.71351   0.72201
 Alpha virt. eigenvalues --    0.73075   0.73150   0.73628   0.73867   0.74174
 Alpha virt. eigenvalues --    0.75811   0.76577   0.79515   0.80074   0.80987
 Alpha virt. eigenvalues --    0.81951   0.82914   0.83152   0.84199   0.84868
 Alpha virt. eigenvalues --    0.85445   0.86334   0.86880   0.87362   0.88099
 Alpha virt. eigenvalues --    0.88905   0.89975   0.90565   0.90826   0.91093
 Alpha virt. eigenvalues --    0.93797   0.94441   0.94507   0.95113   0.95684
 Alpha virt. eigenvalues --    0.96125   0.97227   0.97755   0.98105   0.98294
 Alpha virt. eigenvalues --    1.00663   1.00819   1.01613   1.03019   1.03703
 Alpha virt. eigenvalues --    1.03807   1.04199   1.04741   1.04988   1.05597
 Alpha virt. eigenvalues --    1.06487   1.07966   1.08238   1.08604   1.08900
 Alpha virt. eigenvalues --    1.09993   1.10345   1.11791   1.12089   1.12643
 Alpha virt. eigenvalues --    1.12866   1.13237   1.14524   1.15542   1.16408
 Alpha virt. eigenvalues --    1.17753   1.18170   1.19575   1.19633   1.20383
 Alpha virt. eigenvalues --    1.20795   1.22405   1.23353   1.24363   1.25167
 Alpha virt. eigenvalues --    1.25752   1.26506   1.26842   1.27166   1.28004
 Alpha virt. eigenvalues --    1.28846   1.29196   1.29807   1.30600   1.31186
 Alpha virt. eigenvalues --    1.32065   1.33299   1.34623   1.34929   1.35675
 Alpha virt. eigenvalues --    1.36547   1.36660   1.37728   1.38331   1.39504
 Alpha virt. eigenvalues --    1.40035   1.40243   1.41280   1.43307   1.43584
 Alpha virt. eigenvalues --    1.43985   1.44507   1.45045   1.45316   1.46865
 Alpha virt. eigenvalues --    1.47444   1.47636   1.48712   1.49428   1.50218
 Alpha virt. eigenvalues --    1.50832   1.51512   1.52280   1.53017   1.53332
 Alpha virt. eigenvalues --    1.53611   1.53996   1.54645   1.55359   1.55885
 Alpha virt. eigenvalues --    1.56291   1.57192   1.58395   1.58842   1.59701
 Alpha virt. eigenvalues --    1.60297   1.60984   1.61867   1.62932   1.63104
 Alpha virt. eigenvalues --    1.63436   1.64452   1.66094   1.66894   1.67145
 Alpha virt. eigenvalues --    1.67330   1.68350   1.68482   1.69993   1.70993
 Alpha virt. eigenvalues --    1.72966   1.73515   1.74378   1.75397   1.76831
 Alpha virt. eigenvalues --    1.77648   1.78278   1.80421   1.80653   1.81360
 Alpha virt. eigenvalues --    1.81723   1.82443   1.82714   1.84246   1.86035
 Alpha virt. eigenvalues --    1.86342   1.87215   1.87649   1.89780   1.90084
 Alpha virt. eigenvalues --    1.90523   1.90965   1.92063   1.92517   1.94104
 Alpha virt. eigenvalues --    1.96112   1.97869   1.98342   1.99354   2.01725
 Alpha virt. eigenvalues --    2.03648   2.04675   2.04913   2.06454   2.07022
 Alpha virt. eigenvalues --    2.08722   2.09768   2.12112   2.13548   2.15379
 Alpha virt. eigenvalues --    2.17070   2.19251   2.19373   2.19769   2.21325
 Alpha virt. eigenvalues --    2.21775   2.21982   2.25643   2.26060   2.27102
 Alpha virt. eigenvalues --    2.28230   2.29412   2.30837   2.32740   2.33657
 Alpha virt. eigenvalues --    2.34324   2.36556   2.37476   2.39500   2.41672
 Alpha virt. eigenvalues --    2.42303   2.42711   2.46064   2.47454   2.49814
 Alpha virt. eigenvalues --    2.51583   2.53502   2.57051   2.58343   2.58792
 Alpha virt. eigenvalues --    2.58936   2.59829   2.60197   2.64577   2.64979
 Alpha virt. eigenvalues --    2.65505   2.65733   2.67309   2.67710   2.69152
 Alpha virt. eigenvalues --    2.69387   2.69485   2.70974   2.72757   2.72962
 Alpha virt. eigenvalues --    2.73542   2.74619   2.77424   2.78615   2.79650
 Alpha virt. eigenvalues --    2.80255   2.81217   2.82478   2.83194   2.84363
 Alpha virt. eigenvalues --    2.84966   2.85126   2.86561   2.87805   2.87977
 Alpha virt. eigenvalues --    2.89233   2.89383   2.90288   2.90606   2.91287
 Alpha virt. eigenvalues --    2.92503   2.92915   2.94005   2.94931   2.95335
 Alpha virt. eigenvalues --    2.95773   2.96361   2.97435   2.98343   2.98699
 Alpha virt. eigenvalues --    2.99165   3.00417   3.00890   3.01297   3.01970
 Alpha virt. eigenvalues --    3.02416   3.02651   3.04270   3.04382   3.05779
 Alpha virt. eigenvalues --    3.07340   3.07634   3.08645   3.09172   3.09582
 Alpha virt. eigenvalues --    3.09943   3.11063   3.11451   3.11882   3.12945
 Alpha virt. eigenvalues --    3.13225   3.14397   3.15508   3.16030   3.17451
 Alpha virt. eigenvalues --    3.18213   3.18468   3.19563   3.19850   3.20739
 Alpha virt. eigenvalues --    3.21047   3.22108   3.23528   3.24024   3.24673
 Alpha virt. eigenvalues --    3.26482   3.26926   3.27693   3.27924   3.29081
 Alpha virt. eigenvalues --    3.29729   3.30249   3.30875   3.31360   3.32345
 Alpha virt. eigenvalues --    3.32888   3.34066   3.34893   3.35259   3.36147
 Alpha virt. eigenvalues --    3.36740   3.37623   3.38007   3.39709   3.39952
 Alpha virt. eigenvalues --    3.40836   3.42051   3.42486   3.43250   3.43423
 Alpha virt. eigenvalues --    3.44313   3.45076   3.45596   3.46180   3.46472
 Alpha virt. eigenvalues --    3.48810   3.49211   3.50244   3.50329   3.51444
 Alpha virt. eigenvalues --    3.52038   3.52705   3.53174   3.54776   3.55221
 Alpha virt. eigenvalues --    3.55631   3.56219   3.57861   3.58311   3.58622
 Alpha virt. eigenvalues --    3.58965   3.59683   3.60307   3.61306   3.62662
 Alpha virt. eigenvalues --    3.62949   3.65024   3.65379   3.66089   3.66854
 Alpha virt. eigenvalues --    3.67524   3.68727   3.69853   3.70617   3.72095
 Alpha virt. eigenvalues --    3.72427   3.73310   3.73622   3.74011   3.75024
 Alpha virt. eigenvalues --    3.75327   3.76659   3.77843   3.78187   3.79206
 Alpha virt. eigenvalues --    3.80383   3.81013   3.82190   3.83534   3.83889
 Alpha virt. eigenvalues --    3.84494   3.84719   3.85973   3.86532   3.88092
 Alpha virt. eigenvalues --    3.88781   3.89119   3.89325   3.91788   3.93047
 Alpha virt. eigenvalues --    3.93105   3.93621   3.94003   3.94973   3.96137
 Alpha virt. eigenvalues --    3.97475   3.98038   3.98997   3.99716   4.02023
 Alpha virt. eigenvalues --    4.02196   4.03710   4.04192   4.05555   4.06594
 Alpha virt. eigenvalues --    4.07450   4.07990   4.08796   4.09555   4.10151
 Alpha virt. eigenvalues --    4.11636   4.12690   4.14034   4.14328   4.14504
 Alpha virt. eigenvalues --    4.15446   4.15718   4.16654   4.17150   4.17563
 Alpha virt. eigenvalues --    4.17847   4.19261   4.19872   4.20115   4.20458
 Alpha virt. eigenvalues --    4.20783   4.21605   4.22109   4.22813   4.23289
 Alpha virt. eigenvalues --    4.23984   4.24837   4.25478   4.26050   4.26714
 Alpha virt. eigenvalues --    4.28000   4.28099   4.28625   4.29282   4.30200
 Alpha virt. eigenvalues --    4.31300   4.32181   4.32573   4.32771   4.33216
 Alpha virt. eigenvalues --    4.33757   4.34047   4.35089   4.36179   4.36508
 Alpha virt. eigenvalues --    4.38308   4.38622   4.39205   4.40490   4.41296
 Alpha virt. eigenvalues --    4.43022   4.43402   4.43808   4.44464   4.44937
 Alpha virt. eigenvalues --    4.45627   4.45919   4.46214   4.46688   4.48330
 Alpha virt. eigenvalues --    4.49118   4.50023   4.51591   4.51932   4.52330
 Alpha virt. eigenvalues --    4.52630   4.53318   4.54768   4.55941   4.56763
 Alpha virt. eigenvalues --    4.57657   4.58588   4.64472   4.64675   4.67627
 Alpha virt. eigenvalues --    4.68950   4.70215   4.71612   4.72405   4.73258
 Alpha virt. eigenvalues --    4.74642   4.75638   4.76647   4.78015   4.78385
 Alpha virt. eigenvalues --    4.79695   4.80597   4.81088   4.82112   4.83016
 Alpha virt. eigenvalues --    4.84669   4.85784   4.87390   4.88661   4.90014
 Alpha virt. eigenvalues --    4.90956   4.91499   4.92377   4.94325   4.95890
 Alpha virt. eigenvalues --    4.98550   4.99278   5.02011   5.02346   5.03772
 Alpha virt. eigenvalues --    5.04787   5.05322   5.06635   5.06885   5.08361
 Alpha virt. eigenvalues --    5.09499   5.09986   5.10860   5.13779   5.14285
 Alpha virt. eigenvalues --    5.15505   5.15567   5.16561   5.17900   5.18388
 Alpha virt. eigenvalues --    5.19968   5.20539   5.21672   5.22437   5.23707
 Alpha virt. eigenvalues --    5.24488   5.24875   5.25652   5.26870   5.28713
 Alpha virt. eigenvalues --    5.28760   5.29127   5.31308   5.32221   5.32582
 Alpha virt. eigenvalues --    5.33576   5.34422   5.35085   5.36238   5.37125
 Alpha virt. eigenvalues --    5.38253   5.39330   5.39664   5.41147   5.42483
 Alpha virt. eigenvalues --    5.42699   5.44598   5.46026   5.47818   5.48622
 Alpha virt. eigenvalues --    5.49578   5.50701   5.51617   5.52140   5.52864
 Alpha virt. eigenvalues --    5.54040   5.54978   5.59738   5.60050   5.62672
 Alpha virt. eigenvalues --    5.62895   5.63645   5.64955   5.65096   5.66648
 Alpha virt. eigenvalues --    5.67713   5.67748   5.69373   5.70860   5.71165
 Alpha virt. eigenvalues --    5.73085   5.73451   5.75206   5.75581   5.76655
 Alpha virt. eigenvalues --    5.77140   5.77869   5.78355   5.79350   5.81165
 Alpha virt. eigenvalues --    5.83408   5.90830   5.95752   5.98726   6.05103
 Alpha virt. eigenvalues --    6.06233   6.07919   6.08657   6.11656   6.13503
 Alpha virt. eigenvalues --    6.18760   6.22413   6.26614   6.30487   6.30888
 Alpha virt. eigenvalues --    6.35180   6.40513   6.64356   6.67273   6.82069
 Alpha virt. eigenvalues --    6.82589   6.96145   7.27620   7.35102   7.55946
 Alpha virt. eigenvalues --   22.88323  23.08631  23.28164  23.39721  23.42247
 Alpha virt. eigenvalues --   23.48691  23.70590  23.72454  23.73706  23.80777
 Alpha virt. eigenvalues --   23.82575  30.97472  32.86572  32.93992  33.09189
 Alpha virt. eigenvalues --   44.12720 102.28378
          Condensed to atoms (all electrons):
               1          2          3          4          5          6
     1  C    5.203748  -0.064942   0.404426  -0.033221  -0.013222  -0.000153
     2  C   -0.064942   5.095544  -0.036093   0.552429  -0.046093   0.000155
     3  C    0.404426  -0.036093   5.237913   0.005121   0.422627   0.408768
     4  C   -0.033221   0.552429   0.005121   4.959696   0.464575   0.002594
     5  C   -0.013222  -0.046093   0.422627   0.464575   4.638188  -0.037333
     6  H   -0.000153   0.000155   0.408768   0.002594  -0.037333   0.517835
     7  H   -0.002582  -0.023935   0.011290   0.422097  -0.036922  -0.000141
     8  O    0.008125   0.001247  -0.076899  -0.051717   0.368960  -0.001709
     9  N    0.375645   0.364094  -0.089538  -0.078374  -0.002503   0.002909
    10  C    0.198467  -0.004317  -0.053908  -0.001939   0.005463  -0.005489
    11  H   -0.025101   0.001206  -0.000924   0.000576  -0.000572   0.000269
    12  H   -0.058448  -0.000317  -0.004431  -0.000484   0.001400   0.000344
    13  C   -0.003660   0.219163  -0.003520  -0.067381   0.010707  -0.000000
    14  H    0.001118  -0.026351   0.000608  -0.000350  -0.000687   0.000003
    15  H   -0.000329  -0.058505  -0.000486  -0.003454   0.001372  -0.000004
    16  N   -0.013842   0.000832   0.000792  -0.000151  -0.000107   0.000174
    17  N    0.000749  -0.016177   0.000030   0.002147  -0.000469  -0.000001
    18  C    0.016369   0.000279   0.000285   0.000101  -0.000060  -0.000003
    19  H   -0.000323   0.000022   0.000047   0.000004  -0.000002   0.000001
    20  H    0.000808  -0.000019  -0.000049  -0.000006   0.000005   0.000006
    21  H   -0.001957   0.000004  -0.000196  -0.000005   0.000005  -0.000005
    22  C    0.003309  -0.000661   0.005192  -0.000118  -0.000356  -0.000102
    23  H   -0.004811  -0.000064  -0.000839  -0.000020   0.000034  -0.000023
    24  H   -0.000730   0.000085  -0.000198   0.000004   0.000004  -0.000001
    25  H    0.015998  -0.000705   0.007851   0.000829  -0.000810   0.000272
    26  C    0.000302   0.016682   0.000077   0.000025  -0.000006   0.000000
    27  H   -0.000019   0.000802  -0.000005  -0.000057   0.000005  -0.000000
    28  H    0.000021  -0.000360   0.000005   0.000049  -0.000003   0.000000
    29  H    0.000005  -0.001811  -0.000009  -0.000197   0.000009   0.000000
    30  C   -0.000622   0.003271  -0.000255   0.005155  -0.000355   0.000003
    31  H    0.000086  -0.000742   0.000002  -0.000199   0.000007   0.000000
    32  H   -0.000062  -0.004752  -0.000018  -0.000791   0.000032  -0.000000
    33  H   -0.000699   0.015633   0.000880   0.007609  -0.000807   0.000007
    34  Rh  -0.081466  -0.079616  -0.019701  -0.017931   0.009378  -0.001226
    35  H    0.011700  -0.001040  -0.029620   0.002319  -0.054315   0.007925
               7          8          9         10         11         12
     1  C   -0.002582   0.008125   0.375645   0.198467  -0.025101  -0.058448
     2  C   -0.023935   0.001247   0.364094  -0.004317   0.001206  -0.000317
     3  C    0.011290  -0.076899  -0.089538  -0.053908  -0.000924  -0.004431
     4  C    0.422097  -0.051717  -0.078374  -0.001939   0.000576  -0.000484
     5  C   -0.036922   0.368960  -0.002503   0.005463  -0.000572   0.001400
     6  H   -0.000141  -0.001709   0.002909  -0.005489   0.000269   0.000344
     7  H    0.503861   0.003607   0.002824   0.000062   0.000003  -0.000005
     8  O    0.003607   7.641890   0.000535  -0.000325  -0.000000   0.000009
     9  N    0.002824   0.000535   6.427872   0.008254  -0.007023   0.003448
    10  C    0.000062  -0.000325   0.008254   4.932899   0.426026   0.452895
    11  H    0.000003  -0.000000  -0.007023   0.426026   0.525984  -0.014649
    12  H   -0.000005   0.000009   0.003448   0.452895  -0.014649   0.531271
    13  C   -0.005107  -0.000054   0.006325   0.000594  -0.000195   0.000094
    14  H    0.000375   0.000001  -0.006699  -0.000170   0.000012  -0.000006
    15  H   -0.000011  -0.000005   0.003302   0.000092  -0.000006   0.000000
    16  N   -0.000003   0.000003  -0.028883   0.239177  -0.029745  -0.028706
    17  N    0.000200   0.000000  -0.029099   0.000604  -0.000015  -0.000025
    18  C    0.000001  -0.000000  -0.002126  -0.054155  -0.003556  -0.005446
    19  H    0.000000   0.000000  -0.000091   0.008107   0.000492  -0.000494
    20  H   -0.000000   0.000000   0.000016  -0.009565  -0.003014   0.005506
    21  H    0.000000  -0.000000  -0.000008  -0.005800   0.002333  -0.000114
    22  C    0.000002   0.000003  -0.004983  -0.025413   0.005533  -0.015522
    23  H   -0.000000   0.000000   0.000538  -0.007705  -0.000303   0.006753
    24  H    0.000000  -0.000000   0.000179   0.007477  -0.000152   0.000004
    25  H    0.000008  -0.000006  -0.005813  -0.020316   0.000569  -0.003234
    26  C   -0.000013  -0.000000  -0.002079  -0.000153   0.000004  -0.000001
    27  H    0.000005  -0.000000   0.000016   0.000003  -0.000000   0.000000
    28  H    0.000001   0.000000  -0.000084  -0.000009   0.000002   0.000000
    29  H   -0.000006  -0.000000  -0.000018   0.000007  -0.000002  -0.000000
    30  C   -0.000105   0.000001  -0.004998   0.000291  -0.000008   0.000010
    31  H   -0.000001  -0.000000   0.000180  -0.000008   0.000002  -0.000000
    32  H   -0.000025   0.000000   0.000532   0.000005  -0.000001   0.000000
    33  H    0.000280  -0.000006  -0.005820  -0.000107   0.000007  -0.000009
    34  Rh  -0.001239   0.000236   0.270179  -0.012387  -0.009699   0.011631
    35  H   -0.000936   0.330342   0.000165  -0.000510   0.000004   0.000018
              13         14         15         16         17         18
     1  C   -0.003660   0.001118  -0.000329  -0.013842   0.000749   0.016369
     2  C    0.219163  -0.026351  -0.058505   0.000832  -0.016177   0.000279
     3  C   -0.003520   0.000608  -0.000486   0.000792   0.000030   0.000285
     4  C   -0.067381  -0.000350  -0.003454  -0.000151   0.002147   0.000101
     5  C    0.010707  -0.000687   0.001372  -0.000107  -0.000469  -0.000060
     6  H   -0.000000   0.000003  -0.000004   0.000174  -0.000001  -0.000003
     7  H   -0.005107   0.000375  -0.000011  -0.000003   0.000200   0.000001
     8  O   -0.000054   0.000001  -0.000005   0.000003   0.000000  -0.000000
     9  N    0.006325  -0.006699   0.003302  -0.028883  -0.029099  -0.002126
    10  C    0.000594  -0.000170   0.000092   0.239177   0.000604  -0.054155
    11  H   -0.000195   0.000012  -0.000006  -0.029745  -0.000015  -0.003556
    12  H    0.000094  -0.000006   0.000000  -0.028706  -0.000025  -0.005446
    13  C    4.913422   0.427437   0.452502   0.000601   0.241653  -0.000145
    14  H    0.427437   0.525966  -0.014556  -0.000020  -0.029996   0.000004
    15  H    0.452502  -0.014556   0.530746  -0.000025  -0.028839  -0.000001
    16  N    0.000601  -0.000020  -0.000025   6.411622  -0.007930   0.258192
    17  N    0.241653  -0.029996  -0.028839  -0.007930   6.409974   0.000318
    18  C   -0.000145   0.000004  -0.000001   0.258192   0.000318   4.794068
    19  H   -0.000009   0.000002   0.000000  -0.029669   0.000026   0.415556
    20  H    0.000003  -0.000000   0.000000  -0.020504  -0.000013   0.408183
    21  H    0.000007  -0.000002  -0.000000  -0.034046   0.000034   0.427151
    22  C    0.000267  -0.000009   0.000010   0.219453   0.001598  -0.040773
    23  H    0.000005  -0.000001   0.000000  -0.026049  -0.000029  -0.008840
    24  H   -0.000007   0.000002  -0.000000  -0.027138   0.000081  -0.007653
    25  H   -0.000097   0.000007  -0.000009  -0.028775   0.000082   0.007602
    26  C   -0.054309  -0.003576  -0.005428   0.000321   0.258516  -0.000040
    27  H   -0.009473  -0.003021   0.005501  -0.000013  -0.020626   0.000002
    28  H    0.008156   0.000505  -0.000497   0.000026  -0.029663  -0.000015
    29  H   -0.006017   0.002301  -0.000104   0.000033  -0.033990  -0.000012
    30  C   -0.024695   0.005454  -0.015232   0.001598   0.219653  -0.000046
    31  H    0.007508  -0.000152   0.000008   0.000081  -0.027160  -0.000004
    32  H   -0.007854  -0.000304   0.006722  -0.000030  -0.026002  -0.000000
    33  H   -0.020008   0.000561  -0.003210   0.000085  -0.028725   0.000002
    34  Rh  -0.014247  -0.009514   0.011465   0.230247   0.230358  -0.045363
    35  H    0.000031  -0.000001   0.000000   0.000006  -0.000001  -0.000001
              19         20         21         22         23         24
     1  C   -0.000323   0.000808  -0.001957   0.003309  -0.004811  -0.000730
     2  C    0.000022  -0.000019   0.000004  -0.000661  -0.000064   0.000085
     3  C    0.000047  -0.000049  -0.000196   0.005192  -0.000839  -0.000198
     4  C    0.000004  -0.000006  -0.000005  -0.000118  -0.000020   0.000004
     5  C   -0.000002   0.000005   0.000005  -0.000356   0.000034   0.000004
     6  H    0.000001   0.000006  -0.000005  -0.000102  -0.000023  -0.000001
     7  H    0.000000  -0.000000   0.000000   0.000002  -0.000000   0.000000
     8  O    0.000000   0.000000  -0.000000   0.000003   0.000000  -0.000000
     9  N   -0.000091   0.000016  -0.000008  -0.004983   0.000538   0.000179
    10  C    0.008107  -0.009565  -0.005800  -0.025413  -0.007705   0.007477
    11  H    0.000492  -0.003014   0.002333   0.005533  -0.000303  -0.000152
    12  H   -0.000494   0.005506  -0.000114  -0.015522   0.006753   0.000004
    13  C   -0.000009   0.000003   0.000007   0.000267   0.000005  -0.000007
    14  H    0.000002  -0.000000  -0.000002  -0.000009  -0.000001   0.000002
    15  H    0.000000   0.000000  -0.000000   0.000010   0.000000  -0.000000
    16  N   -0.029669  -0.020504  -0.034046   0.219453  -0.026049  -0.027138
    17  N    0.000026  -0.000013   0.000034   0.001598  -0.000029   0.000081
    18  C    0.415556   0.408183   0.427151  -0.040773  -0.008840  -0.007653
    19  H    0.548569  -0.022033  -0.017649  -0.005062  -0.001747   0.002371
    20  H   -0.022033   0.551233  -0.021975  -0.012450   0.007250  -0.001134
    21  H   -0.017649  -0.021975   0.542617   0.007423  -0.000256   0.000100
    22  C   -0.005062  -0.012450   0.007423   4.820501   0.406383   0.419747
    23  H   -0.001747   0.007250  -0.000256   0.406383   0.557741  -0.020594
    24  H    0.002371  -0.001134   0.000100   0.419747  -0.020594   0.537765
    25  H    0.000185  -0.000378  -0.000161   0.420825  -0.021779  -0.016016
    26  C   -0.000015   0.000002  -0.000012  -0.000045  -0.000000  -0.000004
    27  H    0.000000  -0.000000   0.000000   0.000002   0.000000  -0.000000
    28  H   -0.000003   0.000000   0.000000  -0.000002  -0.000000  -0.000002
    29  H    0.000000   0.000000  -0.000008  -0.000008   0.000000   0.000001
    30  C   -0.000002   0.000002  -0.000008  -0.001080   0.000038   0.000009
    31  H   -0.000002  -0.000000   0.000001   0.000010  -0.000005   0.000047
    32  H   -0.000000   0.000000   0.000000   0.000038  -0.000000  -0.000005
    33  H    0.000000   0.000000  -0.000001  -0.000161  -0.000015   0.000050
    34  Rh  -0.008325   0.011061  -0.005410  -0.043541   0.012491  -0.006653
    35  H    0.000000  -0.000000  -0.000000   0.000000  -0.000000   0.000000
              25         26         27         28         29         30
     1  C    0.015998   0.000302  -0.000019   0.000021   0.000005  -0.000622
     2  C   -0.000705   0.016682   0.000802  -0.000360  -0.001811   0.003271
     3  C    0.007851   0.000077  -0.000005   0.000005  -0.000009  -0.000255
     4  C    0.000829   0.000025  -0.000057   0.000049  -0.000197   0.005155
     5  C   -0.000810  -0.000006   0.000005  -0.000003   0.000009  -0.000355
     6  H    0.000272   0.000000  -0.000000   0.000000   0.000000   0.000003
     7  H    0.000008  -0.000013   0.000005   0.000001  -0.000006  -0.000105
     8  O   -0.000006  -0.000000  -0.000000   0.000000  -0.000000   0.000001
     9  N   -0.005813  -0.002079   0.000016  -0.000084  -0.000018  -0.004998
    10  C   -0.020316  -0.000153   0.000003  -0.000009   0.000007   0.000291
    11  H    0.000569   0.000004  -0.000000   0.000002  -0.000002  -0.000008
    12  H   -0.003234  -0.000001   0.000000   0.000000  -0.000000   0.000010
    13  C   -0.000097  -0.054309  -0.009473   0.008156  -0.006017  -0.024695
    14  H    0.000007  -0.003576  -0.003021   0.000505   0.002301   0.005454
    15  H   -0.000009  -0.005428   0.005501  -0.000497  -0.000104  -0.015232
    16  N   -0.028775   0.000321  -0.000013   0.000026   0.000033   0.001598
    17  N    0.000082   0.258516  -0.020626  -0.029663  -0.033990   0.219653
    18  C    0.007602  -0.000040   0.000002  -0.000015  -0.000012  -0.000046
    19  H    0.000185  -0.000015   0.000000  -0.000003   0.000000  -0.000002
    20  H   -0.000378   0.000002  -0.000000   0.000000   0.000000   0.000002
    21  H   -0.000161  -0.000012   0.000000   0.000000  -0.000008  -0.000008
    22  C    0.420825  -0.000045   0.000002  -0.000002  -0.000008  -0.001080
    23  H   -0.021779  -0.000000   0.000000  -0.000000   0.000000   0.000038
    24  H   -0.016016  -0.000004  -0.000000  -0.000002   0.000001   0.000009
    25  H    0.537542   0.000002   0.000000   0.000000  -0.000001  -0.000160
    26  C    0.000002   4.793553   0.408351   0.415502   0.427095  -0.040700
    27  H    0.000000   0.408351   0.551002  -0.022047  -0.021983  -0.012407
    28  H    0.000000   0.415502  -0.022047   0.549031  -0.017738  -0.005112
    29  H   -0.000001   0.427095  -0.021983  -0.017738   0.543091   0.007443
    30  C   -0.000160  -0.040700  -0.012407  -0.005112   0.007443   4.819455
    31  H    0.000050  -0.007693  -0.001137   0.002367   0.000103   0.419670
    32  H   -0.000015  -0.008841   0.007248  -0.001743  -0.000255   0.406545
    33  H    0.000457   0.007605  -0.000379   0.000187  -0.000162   0.420755
    34  Rh  -0.013300  -0.045108   0.011046  -0.008302  -0.005373  -0.043316
    35  H    0.000000   0.000000   0.000000  -0.000000   0.000000   0.000001
              31         32         33         34         35
     1  C    0.000086  -0.000062  -0.000699  -0.081466   0.011700
     2  C   -0.000742  -0.004752   0.015633  -0.079616  -0.001040
     3  C    0.000002  -0.000018   0.000880  -0.019701  -0.029620
     4  C   -0.000199  -0.000791   0.007609  -0.017931   0.002319
     5  C    0.000007   0.000032  -0.000807   0.009378  -0.054315
     6  H    0.000000  -0.000000   0.000007  -0.001226   0.007925
     7  H   -0.000001  -0.000025   0.000280  -0.001239  -0.000936
     8  O   -0.000000   0.000000  -0.000006   0.000236   0.330342
     9  N    0.000180   0.000532  -0.005820   0.270179   0.000165
    10  C   -0.000008   0.000005  -0.000107  -0.012387  -0.000510
    11  H    0.000002  -0.000001   0.000007  -0.009699   0.000004
    12  H   -0.000000   0.000000  -0.000009   0.011631   0.000018
    13  C    0.007508  -0.007854  -0.020008  -0.014247   0.000031
    14  H   -0.000152  -0.000304   0.000561  -0.009514  -0.000001
    15  H    0.000008   0.006722  -0.003210   0.011465   0.000000
    16  N    0.000081  -0.000030   0.000085   0.230247   0.000006
    17  N   -0.027160  -0.026002  -0.028725   0.230358  -0.000001
    18  C   -0.000004  -0.000000   0.000002  -0.045363  -0.000001
    19  H   -0.000002  -0.000000   0.000000  -0.008325   0.000000
    20  H   -0.000000   0.000000   0.000000   0.011061  -0.000000
    21  H    0.000001   0.000000  -0.000001  -0.005410  -0.000000
    22  C    0.000010   0.000038  -0.000161  -0.043541   0.000000
    23  H   -0.000005  -0.000000  -0.000015   0.012491  -0.000000
    24  H    0.000047  -0.000005   0.000050  -0.006653   0.000000
    25  H    0.000050  -0.000015   0.000457  -0.013300   0.000000
    26  C   -0.007693  -0.008841   0.007605  -0.045108   0.000000
    27  H   -0.001137   0.007248  -0.000379   0.011046   0.000000
    28  H    0.002367  -0.001743   0.000187  -0.008302  -0.000000
    29  H    0.000103  -0.000255  -0.000162  -0.005373   0.000000
    30  C    0.419670   0.406545   0.420755  -0.043316   0.000001
    31  H    0.538495  -0.020697  -0.016185  -0.006698   0.000000
    32  H   -0.020697   0.557526  -0.021547   0.012459  -0.000000
    33  H   -0.016185  -0.021547   0.537318  -0.013246   0.000001
    34  Rh  -0.006698   0.012459  -0.013246  16.683559  -0.000096
    35  H    0.000000  -0.000000   0.000001  -0.000096   0.466190
 Mulliken charges:
               1
     1  C    0.065313
     2  C    0.095053
     3  C   -0.189226
     4  C   -0.168936
     5  C    0.271850
     6  H    0.104927
     7  H    0.126415
     8  O   -0.224239
     9  N   -0.198872
    10  C   -0.078147
    11  H    0.131943
    12  H    0.118509
    13  C   -0.071697
    14  H    0.131058
    15  H    0.118982
    16  N   -0.087612
    17  N   -0.087264
    18  C   -0.159876
    19  H    0.110045
    20  H    0.107064
    21  H    0.107939
    22  C   -0.160011
    23  H    0.101850
    24  H    0.112362
    25  H    0.119298
    26  C   -0.160014
    27  H    0.107182
    28  H    0.109727
    29  H    0.107607
    30  C   -0.160250
    31  H    0.112067
    32  H    0.101835
    33  H    0.119648
    34  Rh  -0.002348
    35  H    0.267817
 Sum of Mulliken charges =   1.00000
 Mulliken charges with hydrogens summed into heavy atoms:
               1
     1  C    0.065313
     2  C    0.095053
     3  C   -0.084300
     4  C   -0.042521
     5  C    0.271850
     8  O    0.043579
     9  N   -0.198872
    10  C    0.172305
    13  C    0.178343
    16  N   -0.087612
    17  N   -0.087264
    18  C    0.165172
    22  C    0.173499
    26  C    0.164501
    30  C    0.173301
    34  Rh  -0.002348
 Electronic spatial extent (au):  <R**2>=           4065.6219
 Charge=              1.0000 electrons
 Dipole moment (field-independent basis, Debye):
    X=              0.7934    Y=              1.6166    Z=              0.9075  Tot=              2.0165
 Quadrupole moment (field-independent basis, Debye-Ang):
   XX=            -77.1740   YY=            -72.6650   ZZ=           -106.2539
   XY=              8.3283   XZ=             -1.7932   YZ=              0.5487
 Traceless Quadrupole moment (field-independent basis, Debye-Ang):
   XX=              8.1903   YY=             12.6993   ZZ=            -20.8896
   XY=              8.3283   XZ=             -1.7932   YZ=              0.5487
 Octapole moment (field-independent basis, Debye-Ang**2):
  XXX=            -13.4086  YYY=              5.6594  ZZZ=              0.7040  XYY=            -25.0820
  XXY=             37.3104  XXZ=              7.2217  XZZ=            -27.2601  YZZ=              1.7424
  YYZ=             -3.0632  XYZ=              1.9086
 Hexadecapole moment (field-independent basis, Debye-Ang**3):
 XXXX=          -2162.5093 YYYY=          -2095.1399 ZZZZ=           -433.0365 XXXY=            185.7910
 XXXZ=              9.1829 YYYX=              1.0713 YYYZ=             -0.3696 ZZZX=              5.9192
[...]
 0051884,-0.00011087,-0.00003786,-0.00003251,0.00003336,0.00002008,0.00
 001842,0.00005823,-0.00069442,-0.00016263,-0.00004668,0.00118119,-0.00
 034449,-0.00074679,0.00039449,-0.00009320,-0.00020639,0.00001569,-0.00
 001249,0.00001025,-0.00013142,-0.00009846,0.00001551,0.01102845,0.0036
 2725,-0.02384320,0.00101355,0.00066367,0.00041544,-0.00313124,0.000708
 50,0.00128505,0.00005012,-0.00184097,0.00019916,0.00317756,0.01051789,
 -0.18907788,-0.00044274,-0.00011610,-0.00031056,0.00004168,0.00000910,
 0.00000066,0.00010240,-0.00023613,0.00008067,0.00000845,0.00002063,0.0
 0001524,-0.00003905,-0.00001915,0.00059129,-0.00004286,-0.00016064,-0.
 00013633,0.00002728,-0.00000717,-0.00003563,-0.00001530,-0.00000347,-0
 .00002694,-0.00897581,0.00296889,-0.03136259,0.00207907,0.00185508,0.0
 0206642,0.00159953,0.00091711,0.00116302,-0.00126993,-0.00098337,-0.00
 002886,-0.00178003,0.04899574,0.48742605,0.00000039,-0.00003498,-0.000
 03897,0.00038972,0.00050794,0.00003186,0.00007079,-0.00007715,0.000022
 07,-0.00008373,-0.00015128,-0.00000479,0.00005562,0.00016564,-0.000007
 52,0.00000525,-0.00000504,0.00001157,0.00002004,0.00000166,-0.00001058
 ,-0.00002994,-0.00003534,0.00000059,0.00012141,0.00013940,-0.00031311,
 -0.00000117,-0.00003290,-0.00001168,0.00000055,-0.00001104,-0.00000459
 ,-0.00000259,-0.00000412,0.00000468,0.00137785,-0.00016634,-0.00013239
 ,0.00002614,-0.00011961,0.00014858,0.00023831,-0.00028040,-0.00014723,
 -0.00007712,-0.00011936,0.00000290,0.00041133,-0.00092738,-0.00056435,
 -0.00001468,-0.00000039,-0.00001243,0.00000496,0.00000201,0.00000375,0
 .00000230,-0.00000694,0.00000227,0.00000397,-0.00000376,0.00000117,-0.
 00000125,0.00002182,0.00003177,-0.00000081,-0.00000990,-0.00000141,0.0
 0000587,-0.00000705,-0.00000024,-0.00000878,-0.00000590,0.00000162,0.0
 0078486,-0.00012521,-0.00099682,-0.00018979,0.00002667,0.00001330,0.00
 038052,0.00014746,-0.00001140,0.00033566,-0.00006650,0.00007189,-0.273
 71716,0.05788789,0.09482905,0.29016897,-0.00000162,0.00004781,-0.00001
 521,0.00027446,0.00020801,-0.00034461,0.00001389,-0.00003732,0.0000077
 9,0.00002352,-0.00004842,0.00004225,-0.00002161,0.00002701,0.00001258,
 -0.00000030,0.00000010,0.00000217,0.00000331,-0.00000314,0.00000098,0.
 00003188,-0.00000884,-0.00000472,-0.00013018,-0.00001183,-0.00007778,-
 0.00002943,0.00000410,0.00001125,0.00000043,-0.00000362,-0.00000570,0.
 00001290,0.00000336,0.00000059,0.00079490,0.00032347,0.00177345,-0.000
 59605,0.00039901,0.00025264,-0.00037773,0.00028244,0.00003801,0.000103
 41,0.00003577,-0.00006713,-0.00983222,0.00064622,0.00511003,0.00000655
 ,-0.00001420,0.00000633,0.00000347,-0.00000634,0.00000133,0.00000098,0
 .00000959,0.00000518,-0.00000055,-0.00000044,0.00000199,-0.00002403,-0
 .00000495,0.00000457,0.00000599,0.00001211,-0.00000849,0.00000886,-0.0
 0002469,-0.00000272,-0.00001217,-0.00000668,0.00000275,0.00016332,-0.0
 0018598,-0.00046038,0.00021226,-0.00002933,0.00012936,-0.00008228,0.00
 018524,-0.00033866,-0.00012457,-0.00011381,0.00006136,0.06011216,-0.06
 443213,-0.02534811,-0.06290379,0.06463625,-0.00006538,-0.00007023,-0.0
 0006237,-0.00026167,-0.00051250,-0.00031015,0.00004410,0.00006590,-0.0
 0001904,0.00010919,0.00021632,0.00007605,-0.00002862,-0.00005322,0.000
 01498,0.00000086,0.00000325,0.00000994,-0.00000946,-0.00000358,-0.0000
 2491,0.00003759,0.00002920,0.00000690,0.00036707,0.00001264,0.00023775
 ,0.00000313,0.00002711,0.00000243,-0.00000009,0.00000785,0.00000512,0.
 00000048,0.00000590,-0.00000289,-0.00156028,0.00071880,-0.00601724,0.0
 0188440,-0.00001257,-0.00076991,-0.00015595,-0.00003955,0.00001915,0.0
 0003442,0.00016391,-0.00008052,0.03175047,-0.00493684,-0.01766943,0.00
 002798,0.00001528,0.00000788,-0.00000815,0.00000639,0.00000062,-0.0000
 1165,0.00000750,-0.00000676,-0.00000065,0.00000179,-0.00000368,0.00000
 609,-0.00003942,-0.00003421,-0.00000570,-0.00000103,-0.00000385,-0.000
 00123,0.00000275,0.00001755,-0.00000504,0.00000096,0.00000281,0.002249
 18,0.00009223,0.00105245,-0.00022211,-0.00004853,-0.00009307,-0.000779
 37,-0.00017505,-0.00047265,-0.00014628,0.00024303,0.00030308,0.0857503
 8,-0.02285883,-0.08602209,-0.10239205,0.02265196,0.10098992,0.00010083
 ,0.00005941,0.00002732,-0.00028555,-0.00029166,-0.00010146,-0.00003134
 ,0.00002260,0.00001911,0.00013385,0.00010191,0.00002398,-0.00007424,-0
 .00009445,-0.00001381,0.00000758,0.00000457,-0.00000626,-0.00001706,-0
 .00000234,0.00002419,0.00009621,0.00001974,0.00000397,-0.00022969,0.00
 044035,-0.00030935,-0.00002375,-0.00003226,-0.00000220,-0.00000647,-0.
 00000103,-0.00000321,0.00000408,0.00001121,0.00000149,0.00120955,-0.00
 231003,0.00047650,0.00001208,0.00008653,-0.00011606,-0.00023086,0.0004
 7941,-0.00008475,-0.00014171,0.00014119,0.00011996,-0.00024501,-0.0000
 8138,-0.00083201,0.00002831,0.00000006,0.00004093,0.00000125,0.0000005
 1,0.00000300,-0.00000353,0.00001884,-0.00001302,0.00000229,-0.00000354
 ,-0.00000830,-0.00000952,0.00004059,-0.00004646,0.00001268,0.00001594,
 0.00001998,0.00000019,-0.00000528,-0.00000547,0.00000526,0.00000037,0.
 00000169,0.00017231,0.00126678,-0.00018983,0.00002897,-0.00017675,-0.0
 0022203,-0.00008322,0.00012615,0.00013182,-0.00006505,-0.00021464,0.00
 007581,-0.05928287,0.04258817,-0.00306289,-0.00299385,0.02782516,-0.00
 267737,0.05561340,-0.00007650,0.00014937,0.00001910,0.00004688,0.00001
 870,-0.00003153,-0.00011596,0.00002801,-0.00003531,-0.00011867,-0.0001
 1436,-0.00005182,0.00031084,0.00000135,0.00001049,-0.00003294,-0.00001
 017,-0.00000753,-0.00003009,0.00000289,0.00001393,-0.00038352,-0.00001
 972,-0.00002331,0.00009826,-0.00010910,0.00017645,0.00012176,0.0000695
 3,-0.00003689,0.00002137,0.00001281,0.00000866,-0.00002777,-0.00003470
 ,-0.00000578,0.00057329,0.00091471,-0.00112004,-0.00019989,0.00029802,
 -0.00008063,-0.00091708,-0.00044560,0.00076311,0.00017284,-0.00021362,
 -0.00026548,0.00157805,-0.01052341,0.00759429,-0.00012445,0.00003779,-
 0.00009762,0.00001019,0.00000708,-0.00000489,0.00001439,-0.00006834,0.
 00001634,-0.00000416,0.00002536,-0.00000368,-0.00003310,-0.00009476,0.
 00016127,-0.00001482,-0.00004864,-0.00006323,0.00000759,0.00001011,0.0
 0000054,-0.00000131,0.00001974,0.00000178,-0.00082737,0.00194963,-0.00
 113312,0.00073928,0.00033330,0.00078765,0.00007934,-0.00017203,0.00003
 045,-0.00002125,0.00034972,-0.00003697,0.04232352,-0.29268007,0.018235
 45,0.00000329,-0.00539836,-0.00004520,-0.04733236,0.31885893,0.0000449
 7,0.00002996,0.00001078,0.00027316,-0.00015241,0.00004040,-0.00002194,
 -0.00001894,-0.00000556,0.00009225,0.00007686,0.00001916,-0.00002481,-
 0.00004520,0.00000863,0.00000539,0.00000366,-0.00000852,0.00001157,0.0
 0000137,0.00000638,0.00007223,0.00001008,0.00000372,-0.00034062,-0.000
 17551,0.00010494,-0.00014966,-0.00002733,0.00007073,0.00000605,-0.0000
 0434,-0.00000938,0.00002384,0.00001342,-0.00000310,-0.00336553,0.00220
 408,0.00089772,-0.00009047,-0.00021992,0.00023958,0.00058899,-0.000812
 66,0.00060384,-0.00006385,0.00047520,0.00071428,-0.00575669,0.03773553
 ,-0.01673843,0.00010345,-0.00007134,0.00009452,-0.00000987,0.00000256,
 0.00000046,-0.00001040,0.00003794,-0.00002128,-0.00000357,-0.00001521,
 -0.00001645,0.00004506,0.00021446,-0.00013731,0.00001827,0.00006322,0.
 00008928,-0.00000056,0.00000914,-0.00000357,0.00000906,0.00000774,0.00
 000303,0.00129678,0.00347754,0.00182835,0.00011520,-0.00111784,0.00017
 000,-0.00007211,-0.00029020,-0.00012276,0.00018196,-0.00043312,0.00023
 692,-0.00230291,0.01376403,-0.05149899,0.00079364,-0.01175117,0.001871
 79,0.00394565,-0.02764607,0.06140892,0.00009137,0.00009062,0.00006451,
 -0.00002215,-0.00025986,-0.00004938,-0.00011410,0.00009129,-0.00001325
 ,0.00008782,0.00018633,-0.00003476,0.00000308,-0.00019279,0.00002968,-
 0.00000609,0.00000297,-0.00001962,-0.00001050,0.00000642,0.00000539,-0
 .00003111,0.00003214,-0.00000168,-0.00009340,-0.00006427,0.00023957,0.
 00000988,0.00001785,-0.00000253,0.00000114,0.00000858,0.00000346,-0.00
 000399,-0.00000144,-0.00000468,0.00042408,0.00072485,0.00069213,0.0000
 9072,0.00002348,-0.00015853,0.00008672,0.00005149,0.00008992,-0.000005
 09,0.00008167,0.00008661,0.00090654,0.00158033,0.00180438,-0.00000925,
 0.00000257,0.00001355,0.00000010,0.00000067,-0.00000345,0.00000231,-0.
 00000678,-0.00000821,-0.00000220,0.00000199,-0.00000659,-0.00001380,0.
 00001010,-0.00001653,0.00000526,0.00000084,0.00000859,-0.00000763,0.00
 001124,-0.00000497,0.00001682,0.00003177,-0.00000576,0.00057400,0.0005
 7096,0.00018775,-0.00005537,-0.00013304,0.00000395,0.00049778,0.000008
 31,0.00008732,0.00038728,-0.00026630,-0.00009337,-0.18971226,-0.102529
 13,-0.09408315,-0.01730304,-0.01509425,-0.01379678,0.00526436,0.004164
 14,0.00405197,0.19857758,-0.00004050,-0.00003261,-0.00000661,-0.000014
 68,0.00013277,0.00024187,0.00003149,-0.00004477,0.00000083,0.00000498,
 -0.00004237,0.00002669,0.00000016,0.00006783,0.00001515,0.00000275,-0.
 00000228,-0.00000493,0.00002216,-0.00000327,-0.00002331,0.00001587,-0.
 00001498,0.00000284,-0.00020551,-0.00006560,0.00011702,-0.00003356,-0.
 00000432,0.00001348,0.00000555,0.,-0.00000375,0.00000601,0.00000258,0.
 00000330,-0.00007954,0.00043711,-0.00027330,0.00014377,-0.00013121,0.0
 0003880,-0.00008647,-0.00041787,0.00001235,-0.00003396,0.00015741,0.00
 000396,0.00888663,0.00501842,0.00577481,0.00002665,0.00000645,0.000013
 06,0.00000044,0.00000176,0.00000072,-0.00000752,0.00001376,-0.00000475
 ,-0.00000217,0.00000242,-0.00000664,0.00002120,0.00000924,0.00000153,-
 0.00000049,0.00001948,-0.00000637,0.00000519,-0.00000570,-0.00000089,-
 0.00003058,-0.00001397,-0.00000930,-0.00018880,0.00021565,0.00103353,0
 .00012021,0.00046826,0.00038402,-0.00012215,-0.00016253,0.00006814,0.0
 0006473,0.00051292,0.00034553,-0.10498787,-0.12488010,-0.07046261,0.00
 611303,0.00408977,0.00459476,-0.02187441,-0.01376034,-0.01412134,0.111
 17586,0.12967901,0.00007317,0.00014908,-0.00004397,0.00063484,0.000345
 53,-0.00043973,-0.00005547,-0.00005112,-0.00001826,0.00008196,0.000003
 71,0.00003503,0.00017887,0.00002518,-0.00001282,-0.00000524,-0.0000043
 6,0.00000549,-0.00000713,0.00000207,0.00001182,-0.00012238,-0.00001454
 ,-0.00000709,-0.00007087,0.00028448,-0.00005697,-0.00004364,0.00001827
 ,0.00003156,0.00001405,-0.00000420,-0.00000413,0.00001321,-0.00000641,
 -0.00000661,-0.00150576,-0.00064100,0.00078416,-0.00015162,0.00000410,
 0.00021856,0.00024357,-0.00013743,-0.00011592,0.00000855,0.00019567,0.
 00002393,-0.02582672,-0.01678513,-0.02098342,0.00001414,0.00001470,0.0
 0000856,0.00000349,0.00000166,0.00000219,-0.00000710,-0.00000134,-0.00
 001435,-0.00000298,0.00000056,-0.00001285,0.00000071,-0.00001135,-0.00
 002674,0.00000150,-0.00000227,0.00000302,0.00000117,-0.00000253,0.0000
 0242,-0.00000580,0.00000784,0.00000820,0.00192644,0.00290296,-0.005854
 08,0.00013382,-0.00005971,0.00004225,-0.00007252,0.00017355,0.00024686
 ,-0.00135560,-0.00109509,-0.00101274,-0.08596378,-0.06415340,-0.108661
 79,0.00841044,0.00732805,0.00734905,0.00261640,0.00115290,0.00236265,0
 .10088659,0.07100051,0.12643881,-0.01949263,-0.01960349,0.00200077,-0.
 01984282,0.01931247,0.00216240,0.00024336,0.00426270,0.00021577,0.0007
 3589,-0.00392946,0.00020489,0.00362766,-0.00068078,0.00028603,0.000422
 80,-0.00007619,-0.00008695,0.00040818,0.00009183,-0.00009151,-0.007057
 03,-0.00031327,-0.00038182,-0.14494204,-0.00052242,0.01166661,-0.00635
 907,-0.00962614,0.00017946,0.00083580,-0.00024745,-0.00014882,-0.00224
 454,-0.00006328,0.00070132,-0.00631783,0.00980401,0.00022351,0.0008055
 3,0.00023654,-0.00017393,-0.00225345,0.00003205,0.00070843,-0.03607868
 ,0.00474476,0.00283196,-0.03702236,-0.00369786,0.00072795,0.00194396,0
 .00946193,0.00045425,0.00037658,0.00039501,0.00029487,-0.00101945,0.00
 227408,-0.00146025,0.00005789,0.00007709,-0.00010238,-0.00032675,-0.00
 064385,-0.00132147,0.00103520,0.00007319,0.00055905,0.00003632,0.00037
 521,-0.00015487,0.00036135,-0.00104260,-0.00006198,0.00345708,-0.00798
 148,0.00116610,-0.00104135,-0.00230899,-0.00145664,0.00036038,-0.00051
 343,0.00025902,0.00005393,-0.00006131,-0.00009381,-0.00061740,0.001145
 56,-0.00142027,0.00001631,-0.00036354,-0.00013546,0.00103734,-0.000036
 38,0.00053564,0.00035831,0.00106301,-0.00006367,0.26812802,-0.01508967
 ,-0.00105644,0.00073024,0.01485295,-0.00071590,-0.00070918,0.00102466,
 -0.00411783,-0.00011502,-0.00098325,-0.00421778,0.00009335,0.00003166,
 0.00232696,-0.00000528,-0.00055643,0.00019508,-0.00020477,0.00053388,0
 .00020980,0.00021315,-0.00000380,-0.00039086,0.00001709,-0.00040072,-0
 .02373526,0.00001262,-0.01495112,-0.00788689,0.00422458,0.00062110,0.0
 0021483,-0.00062138,0.00102990,0.00040067,0.00018225,0.01472866,-0.007
 91095,-0.00432652,-0.00060159,0.00020438,0.00063925,-0.00102049,0.0003
 8991,-0.00015904,-0.01281792,-0.04165754,-0.00179656,0.01386374,-0.043
 08111,0.00158265,0.00493202,-0.00654272,0.00521647,-0.00000816,0.00009
 843,-0.00072360,-0.00029071,0.00187863,-0.00111945,-0.00079018,-0.0001
 2415,-0.00070398,-0.00050825,-0.00662958,-0.01062656,0.00083161,0.0006
 0398,0.00123911,0.00003996,-0.00046214,0.00006894,0.00034789,-0.001264
 54,0.00064799,-0.00330839,-0.00645491,-0.00425298,0.00028597,0.0018878
 9,0.00110265,-0.00001329,0.00007136,0.00070592,0.00079578,-0.00009054,
 0.00069374,0.00087070,-0.00642104,0.01004341,0.00007555,-0.00057731,-0
 .00007106,-0.00082119,0.00058084,-0.00121907,-0.00033079,-0.00125299,-
 0.00064884,-0.00232377,0.15551539,0.00109420,0.00267322,0.00388750,0.0
 0121339,-0.00264842,0.00384210,0.00001878,-0.00108324,0.00160428,-0.00
 003771,0.00102790,0.00155739,-0.00074324,0.00009808,-0.00037917,-0.000
 15047,0.00004673,0.00000424,-0.00013897,-0.00004965,-0.00001178,0.0012
 0662,0.00006174,-0.00003578,0.01264981,0.00013332,-0.00790780,0.001179
 42,0.00393747,-0.00001102,-0.00056991,0.00025977,0.00019580,0.00150752
 ,0.00022612,0.00012779,0.00124999,-0.00412655,0.00002094,-0.00054223,-
 0.00027192,0.00021316,0.00152519,-0.00022289,0.00013056,0.00230241,-0.
 00006051,-0.03295563,0.00039170,-0.00014081,-0.03266978,0.00060754,0.0
 0706575,0.00008147,-0.00013183,-0.00005452,0.00018730,-0.00130397,0.00
 125579,-0.00020092,0.00030116,0.00064345,-0.00002561,-0.00237276,-0.01
 310080,-0.00270557,0.00021822,-0.00170609,-0.00222507,0.00038546,-0.00
 086176,-0.00037504,0.00006085,-0.00126184,-0.00031176,0.00136846,-0.00
 607570,0.00056887,-0.00126811,-0.00125252,-0.00018028,-0.00012706,0.00
 008441,0.00017801,0.00030521,-0.00059774,-0.00000805,-0.00258878,0.012
 29187,-0.00243481,0.00026790,0.00098139,-0.00037226,0.00016370,0.00171
 059,-0.00221742,0.00005213,0.00123298,-0.00030356,-0.01804355,-0.00009
 396,0.07275603,-0.00115276,-0.00085048,-0.00003944,0.00007240,-0.00222
 435,-0.00034438,0.00399234,-0.00181211,0.00009920,-0.00549184,0.002911
 22,-0.00042692,-0.02976231,-0.04701677,-0.00160092,0.00072886,0.002128
 40,-0.00060867,0.00010775,0.00011433,0.00006516,-0.10925254,-0.1387999
 8,-0.00588025,0.00042598,0.00118079,0.00017702,0.00009131,0.00025774,0
 .00006371,0.00008217,-0.00004331,-0.00001407,0.00000639,0.00000526,-0.
 00002337,-0.00026763,0.00020864,0.00016131,0.00005766,0.00003684,-0.00
 002806,0.00002918,0.00004148,-0.00001080,0.00016264,-0.00015279,0.0000
 4308,-0.00005945,0.00000297,-0.00004357,-0.00001103,0.00007550,-0.0001
 1568,0.00003873,-0.00001491,0.00000892,-0.00000726,-0.00003212,0.00000
 111,-0.00000540,-0.00000014,-0.00000148,0.00002172,0.00003748,0.000095
 12,-0.00001250,-0.00003540,-0.00000552,0.00001553,-0.00000239,-0.00001
 495,-0.00001007,-0.00000669,0.00002041,-0.00005838,-0.00001965,-0.0000
 2073,0.00000083,0.00002975,0.00000137,0.00000372,-0.00000609,-0.000003
 48,0.00000008,-0.00000184,-0.00000162,-0.00000029,-0.00001364,0.000037
 00,0.00000307,-0.00000312,-0.00000207,-0.00000685,0.00003261,-0.000002
 13,0.00000484,-0.00000147,0.00001733,0.00031349,-0.00004632,-0.0000510
 9,0.13993961,-0.00040708,-0.00093133,-0.00002391,-0.00081918,-0.000001
 01,-0.00008286,0.00548434,0.00330218,0.00030568,0.00230755,0.00246745,
 0.00013137,0.00112450,0.00231252,0.00006404,-0.00042472,-0.00072917,0.
 00037558,0.00016300,0.00032730,0.00004984,-0.19209370,-0.46311360,-0.0
 1117089,-0.00021757,-0.00006249,0.00022620,0.00010597,0.00008100,0.000
 00170,-0.00000114,0.00001060,-0.00001391,0.00001918,-0.00004915,-0.000
 01571,0.00004814,-0.00000059,0.00000735,-0.00000464,-0.00001234,-0.000
 01493,-0.00000180,0.00000450,-0.00000901,0.00002461,-0.00006901,0.0000
 0700,0.00001643,0.00003537,0.00000969,-0.00002874,0.00001528,-0.000035
 09,0.00000574,0.00000078,0.00000272,0.00000367,-0.00002831,0.00000006,
 0.00000125,0.00000468,-0.00000332,-0.00000087,0.00000822,0.00004714,-0
 .00000344,-0.00003320,-0.00000619,-0.00000466,0.00000167,-0.00000011,0
 .00000679,0.00000750,0.00000678,-0.00001975,-0.00002020,-0.00003142,0.
 00000007,0.00002218,0.,0.00000904,0.00000025,0.00000225,0.00000056,-0.
 00000244,-0.00000128,0.00000362,-0.00000225,0.00004262,0.00000203,-0.0
 0000288,0.00000009,-0.00000817,0.00002532,-0.00000512,0.00000219,0.000
 00007,0.00000788,0.00068626,0.00001234,-0.00012165,0.18402052,0.456418
 80,-0.00002532,-0.00012534,-0.00065449,-0.00002744,-0.00027077,0.00180
 488,0.00008006,0.00001930,-0.00051775,-0.00064148,0.00015876,0.0033702
 9,-0.00151769,-0.00262877,-0.00326600,-0.00047974,0.00047123,0.0000572
 7,0.00004084,0.00005316,-0.00059558,-0.00592599,-0.00811802,-0.0064048
 5,0.00003652,0.00017977,-0.00001691,-0.00001435,0.00003170,0.00008926,
 0.00000801,-0.00001867,-0.00000714,-0.00001167,-0.00000158,0.00000721,
 0.00003579,0.00000935,-0.00037022,-0.00007176,-0.00007294,-0.00000470,
 0.00001522,0.00003164,0.00001304,0.00001090,-0.00000201,-0.00000829,-0
 .00000627,0.00004214,-0.00003491,0.00000487,0.00000077,-0.00000323,0.0
 0000353,0.00000065,-0.00000055,-0.00000181,-0.00000138,0.00000261,-0.0
 0000404,-0.00000126,-0.00000465,0.00000966,0.00000322,0.00002496,0.000
 00184,-0.00000805,0.00000044,-0.00000266,-0.00000118,-0.00000568,0.000
 00250,0.00000642,-0.00000021,0.00000088,-0.00000089,-0.00000733,-0.000
 00019,0.00000112,0.00000109,0.00000186,0.00000056,0.00000316,-0.000000
 90,-0.00000076,0.00000212,0.00001588,0.00000797,0.00002729,0.00000049,
 -0.00000133,-0.00000248,-0.00000101,0.00000607,-0.00000332,-0.00000428
 ,-0.00000209,0.00000048,0.00001932,-0.00001617,-0.00002417,0.00844844,
 0.01024739,0.00652836\\0.00008621,-0.00001160,-0.00000962,0.00005109,0
 .00002416,-0.00001096,-0.00000147,-0.00003927,0.00000599,0.00001521,0.
 00006951,0.00001590,-0.00005615,-0.00002983,-0.00000260,-0.00000534,-0
 .00000230,0.00000340,-0.00000497,-0.00000161,0.00000308,0.00002369,0.0
 0002605,-0.00000679,-0.00008327,-0.00000429,0.00002867,-0.00000123,0.0
 0002982,0.00000438,0.00000801,-0.00000615,0.00001147,-0.00000883,-0.00
 001148,-0.00000077,0.00001263,-0.00002873,0.00000023,0.00000368,0.0000
 0535,0.00001031,-0.00001217,0.00000585,-0.00000734,-0.00001577,0.00000
 607,-0.00004871,-0.00002554,0.00002526,-0.00003796,0.00001705,0.000010
 83,0.00000679,0.00001011,0.00000330,-0.00000478,-0.00000032,-0.0000079
 9,-0.00000008,0.00000732,0.00000877,0.00000267,0.00000372,-0.00002324,
 0.00002128,-0.00000069,-0.00000236,0.00000240,0.00000443,0.00000810,-0
 .00000594,-0.00000936,0.00001207,-0.00000286,0.00001028,-0.00000458,0.
 00000207,-0.00000537,0.00000937,-0.00000470,0.00000685,0.00000050,-0.0
 0000847,0.00000360,-0.00000183,-0.00000096,-0.00000076,0.00000817,0.00
 002593,0.00000067,-0.00000551,-0.00000851,-0.00000544,0.00000455,-0.00
 000290,-0.00001090,-0.00001120,-0.00000537,0.00002563,-0.00002632,0.00
 000411,-0.00004261,-0.00003945,0.00002068\\\@
 The archive entry for this job was punched.


 We're simply so accustomed to the marvels of everyday thought
 that we never wonder about it.
 -- Marvin Minsky in "Why people think computers are smart"
 Job cpu time:       1 days  3 hours 28 minutes 29.0 seconds.
 Elapsed time:       0 days  4 hours 35 minutes 51.8 seconds.
 File lengths (MBytes):  RWF=   1519 Int=      0 D2E=      0 Chk=     60 Scr=      1
 Normal termination of Gaussian 16 at Fri Mar 29 03:20:38 2024.
