 Entering Gaussian System, Link 0=/cm/shared/apps//g16/g16
 Input=HZRhMeH.gjf
 Output=HZRhMeH.log
 Initial command:
 /cm/shared/apps//g16/l1.exe "/local/mvanvleet/pbs.14639.josephine/Gau-1651208.inp" -scrdir="/local/mvanvleet/pbs.14639.josephine/"
 Entering Link 1 = /cm/shared/apps//g16/l1.exe PID=   1651211.
  
 Copyright (c) 1988-2019, Gaussian, Inc.  All Rights Reserved.
  
 This is part of the Gaussian(R) 16 program.  It is based on
 the Gaussian(R) 09 system (copyright 2009, Gaussian, Inc.),
 the Gaussian(R) 03 system (copyright 2003, Gaussian, Inc.),
 the Gaussian(R) 98 system (copyright 1998, Gaussian, Inc.),
 the Gaussian(R) 94 system (copyright 1995, Gaussian, Inc.),
 the Gaussian 92(TM) system (copyright 1992, Gaussian, Inc.),
 the Gaussian 90(TM) system (copyright 1990, Gaussian, Inc.),
 the Gaussian 88(TM) system (copyright 1988, Gaussian, Inc.),
 the Gaussian 86(TM) system (copyright 1986, Carnegie Mellon
 University), and the Gaussian 82(TM) system (copyright 1983,
 Carnegie Mellon University). Gaussian is a federally registered
 trademark of Gaussian, Inc.
  
 This software contains proprietary and confidential information,
 including trade secrets, belonging to Gaussian, Inc.
  
 This software is provided under written license and may be
 used, copied, transmitted, or stored only in accord with that
 written license.
  
 The following legend is applicable only to US Government
 contracts under FAR:
  
                    RESTRICTED RIGHTS LEGEND
  
 Use, reproduction and disclosure by the US Government is
 subject to restrictions as set forth in subparagraphs (a)
 and (c) of the Commercial Computer Software - Restricted
 Rights clause in FAR 52.227-19.
  
 Gaussian, Inc.
 340 Quinnipiac St., Bldg. 40, Wallingford CT 06492
  
  
 ---------------------------------------------------------------
 Warning -- This program may not be used in any manner that
 competes with the business of Gaussian, Inc. or will provide
 assistance to any competitor of Gaussian, Inc.  The licensee
 of this program is prohibited from giving any competitor of
 Gaussian, Inc. access to this program.  By using this program,
 the user acknowledges that Gaussian, Inc. is engaged in the
 business of creating and licensing software in the field of
 computational chemistry and represents and warrants to the
 licensee that it is not a competitor of Gaussian, Inc. and that
 it will not use this program in any manner prohibited above.
 ---------------------------------------------------------------
  

 Cite this work as:
 Gaussian 16, Revision C.01,
 M. J. Frisch, G. W. Trucks, H. B. Schlegel, G. E. Scuseria, 
 M. A. Robb, J. R. Cheeseman, G. Scalmani, V. Barone, 
 G. A. Petersson, H. Nakatsuji, X. Li, M. Caricato, A. V. Marenich, 
 J. Bloino, B. G. Janesko, R. Gomperts, B. Mennucci, H. P. Hratchian, 
 J. V. Ortiz, A. F. Izmaylov, J. L. Sonnenberg, D. Williams-Young, 
 F. Ding, F. Lipparini, F. Egidi, J. Goings, B. Peng, A. Petrone, 
 T. Henderson, D. Ranasinghe, V. G. Zakrzewski, J. Gao, N. Rega, 
 G. Zheng, W. Liang, M. Hada, M. Ehara, K. Toyota, R. Fukuda, 
 J. Hasegawa, M. Ishida, T. Nakajima, Y. Honda, O. Kitao, H. Nakai, 
 T. Vreven, K. Throssell, J. A. Montgomery, Jr., J. E. Peralta, 
 F. Ogliaro, M. J. Bearpark, J. J. Heyd, E. N. Brothers, K. N. Kudin, 
 V. N. Staroverov, T. A. Keith, R. Kobayashi, J. Normand, 
 K. Raghavachari, A. P. Rendell, J. C. Burant, S. S. Iyengar, 
 J. Tomasi, M. Cossi, J. M. Millam, M. Klene, C. Adamo, R. Cammi, 
 J. W. Ochterski, R. L. Martin, K. Morokuma, O. Farkas, 
 J. B. Foresman, and D. J. Fox, Gaussian, Inc., Wallingford CT, 2019.
 
 ******************************************
 Gaussian 16:  ES64L-G16RevC.01  3-Jul-2019
                28-Mar-2024 
 ******************************************
 %nprocshared=6
 Will use up to    6 processors via shared memory.
 %chk=HZRhMeH.chk
 %mem=2GB
 ----------------------------------------------------------
 # wb97xd def2TZVPP SCRF=(solvent=dichloromethane) opt freq
 ----------------------------------------------------------
 1/18=20,19=15,26=3,38=1/1,3;
 2/9=110,12=2,17=6,18=5,40=1/2;
 3/5=44,7=202,11=2,25=1,30=1,70=2201,71=1,72=9,74=-58/1,2,3;
 4//1;
 5/5=2,38=5,53=9/2;
 6/7=2,8=2,9=2,10=2,28=1/1;
 7//1,2,3,16;
 1/18=20,19=15,26=3/3(2);
 2/9=110/2;
 99//99;
 2/9=110/2;
 3/5=44,7=202,11=2,25=1,30=1,70=2205,71=1,72=9,74=-58/1,2,3;
 4/5=5,16=3,69=1/1;
 5/5=2,38=5,53=9/2;
 7//1,2,3,16;
 1/18=20,19=15,26=3/3(-5);
 2/9=110/2;
 6/7=2,8=2,9=2,10=2,19=2,28=1/1;
 99/9=1/99;
 -------
 HZRhMeH
 -------
 Symbolic Z-matrix:
 Charge =  1 Multiplicity = 1
 C                     1.51181   1.18135  -0.38925 
 C                     1.51182  -1.18134  -0.38925 
 C                     2.81966   1.23658   0.01348 
 C                     2.81966  -1.23656   0.01348 
 C                     3.5873    0.00001   0.23635 
 H                     3.3274    2.19241   0.1772 
 H                     3.32741  -2.1924    0.17721 
 O                     4.77147   0.00001   0.5977 
 N                     0.86014   0.       -0.60563 
 C                     0.57829   2.3314   -0.70206 
 H                     0.40153   2.35296  -1.79341 
 H                     0.97642   3.31606  -0.38431 
 C                     0.57829  -2.3314   -0.70205 
 H                     0.40154  -2.35297  -1.7934 
 H                     0.97643  -3.31605  -0.38429 
 N                    -0.76845   2.09813  -0.0609 
 N                    -0.76844  -2.09813  -0.0609 
 C                    -2.79168   0.00002   1.04029 
 H                    -2.39208   0.00013   2.08004 
 H                    -3.44736   0.88771   0.93664 
 H                    -3.44729  -0.88773   0.93678 
 C                    -1.78058   2.95542  -0.70948 
 H                    -2.74827   2.8044   -0.20767 
 H                    -1.48738   4.024    -0.63449 
 H                    -1.87003   2.66575  -1.76701 
 C                    -0.6691    2.45861   1.37438 
 H                    -0.38858   3.52774   1.47647 
 H                    -1.63797   2.28252   1.86342 
 H                     0.10669   1.8356    1.85062 
 C                    -1.78056  -2.95543  -0.70949 
 H                    -1.48736  -4.024    -0.63451 
 H                    -2.74826  -2.80442  -0.20769 
 H                    -1.87001  -2.66576  -1.76702 
 C                    -0.66909  -2.45863   1.37438 
 H                    -1.63798  -2.28261   1.86341 
 H                    -0.38852  -3.52775   1.47645 
 H                     0.10666  -1.83559   1.85064 
 H                    -2.35382  -0.00001  -1.01973 
 Rh                   -1.09885   0.       -0.14422 
 H                     4.77147   1.00001   0.5977 
 

 GradGradGradGradGradGradGradGradGradGradGradGradGradGradGradGradGradGrad
 Berny optimization.
 Initialization pass.
                           ----------------------------
                           !    Initial Parameters    !
                           ! (Angstroms and Degrees)  !
 --------------------------                            --------------------------
 ! Name  Definition              Value          Derivative Info.                !
 --------------------------------------------------------------------------------
 ! R1    R(1,3)                  1.3696         estimate D2E/DX2                !
 ! R2    R(1,9)                  1.3664         estimate D2E/DX2                !
 ! R3    R(1,10)                 1.5139         estimate D2E/DX2                !
 ! R4    R(2,4)                  1.3696         estimate D2E/DX2                !
 ! R5    R(2,9)                  1.3664         estimate D2E/DX2                !
 ! R6    R(2,13)                 1.5139         estimate D2E/DX2                !
 ! R7    R(3,5)                  1.4724         estimate D2E/DX2                !
 ! R8    R(3,6)                  1.0946         estimate D2E/DX2                !
 ! R9    R(4,5)                  1.4724         estimate D2E/DX2                !
 ! R10   R(4,7)                  1.0946         estimate D2E/DX2                !
 ! R11   R(5,8)                  1.2381         estimate D2E/DX2                !
 ! R12   R(8,40)                 1.0            estimate D2E/DX2                !
 ! R13   R(9,39)                 2.0126         estimate D2E/DX2                !
 ! R14   R(10,11)                1.1058         estimate D2E/DX2                !
 ! R15   R(10,12)                1.1086         estimate D2E/DX2                !
 ! R16   R(10,16)                1.5097         estimate D2E/DX2                !
 ! R17   R(13,14)                1.1058         estimate D2E/DX2                !
 ! R18   R(13,15)                1.1086         estimate D2E/DX2                !
 ! R19   R(13,17)                1.5097         estimate D2E/DX2                !
 ! R20   R(16,22)                1.4765         estimate D2E/DX2                !
 ! R21   R(16,26)                1.4832         estimate D2E/DX2                !
 ! R22   R(16,39)                2.1256         estimate D2E/DX2                !
 ! R23   R(17,30)                1.4765         estimate D2E/DX2                !
 ! R24   R(17,34)                1.4832         estimate D2E/DX2                !
 ! R25   R(17,39)                2.1256         estimate D2E/DX2                !
 ! R26   R(18,19)                1.1139         estimate D2E/DX2                !
 ! R27   R(18,20)                1.1084         estimate D2E/DX2                !
 ! R28   R(18,21)                1.1084         estimate D2E/DX2                !
 ! R29   R(18,39)                2.0661         estimate D2E/DX2                !
 ! R30   R(22,23)                1.1005         estimate D2E/DX2                !
 ! R31   R(22,24)                1.1106         estimate D2E/DX2                !
 ! R32   R(22,25)                1.1001         estimate D2E/DX2                !
 ! R33   R(26,27)                1.11           estimate D2E/DX2                !
 ! R34   R(26,28)                1.0995         estimate D2E/DX2                !
 ! R35   R(26,29)                1.1031         estimate D2E/DX2                !
 ! R36   R(30,31)                1.1106         estimate D2E/DX2                !
 ! R37   R(30,32)                1.1005         estimate D2E/DX2                !
 ! R38   R(30,33)                1.1001         estimate D2E/DX2                !
 ! R39   R(34,35)                1.0995         estimate D2E/DX2                !
 ! R40   R(34,36)                1.11           estimate D2E/DX2                !
 ! R41   R(34,37)                1.1031         estimate D2E/DX2                !
 ! R42   R(38,39)                1.5302         estimate D2E/DX2                !
 ! A1    A(3,1,9)              122.4701         estimate D2E/DX2                !
 ! A2    A(3,1,10)             128.2407         estimate D2E/DX2                !
 ! A3    A(9,1,10)             109.2668         estimate D2E/DX2                !
 ! A4    A(4,2,9)              122.4703         estimate D2E/DX2                !
 ! A5    A(4,2,13)             128.241          estimate D2E/DX2                !
 ! A6    A(9,2,13)             109.2663         estimate D2E/DX2                !
 ! A7    A(1,3,5)              120.5634         estimate D2E/DX2                !
 ! A8    A(1,3,6)              121.4758         estimate D2E/DX2                !
 ! A9    A(5,3,6)              117.9607         estimate D2E/DX2                !
 ! A10   A(2,4,5)              120.5638         estimate D2E/DX2                !
 ! A11   A(2,4,7)              121.4757         estimate D2E/DX2                !
 ! A12   A(5,4,7)              117.9604         estimate D2E/DX2                !
 ! A13   A(3,5,4)              114.2415         estimate D2E/DX2                !
 ! A14   A(3,5,8)              122.8758         estimate D2E/DX2                !
 ! A15   A(4,5,8)              122.8758         estimate D2E/DX2                !
 ! A16   A(5,8,40)              90.0            estimate D2E/DX2                !
 ! A17   A(1,9,2)              119.6652         estimate D2E/DX2                !
 ! A18   A(1,9,39)             115.3352         estimate D2E/DX2                !
 ! A19   A(2,9,39)             115.3357         estimate D2E/DX2                !
 ! A20   A(1,10,11)            108.5001         estimate D2E/DX2                !
 ! A21   A(1,10,12)            113.2067         estimate D2E/DX2                !
 ! A22   A(1,10,16)            110.178          estimate D2E/DX2                !
 ! A23   A(11,10,12)           108.8424         estimate D2E/DX2                !
 ! A24   A(11,10,16)           106.2343         estimate D2E/DX2                !
 ! A25   A(12,10,16)           109.6255         estimate D2E/DX2                !
 ! A26   A(2,13,14)            108.4998         estimate D2E/DX2                !
 ! A27   A(2,13,15)            113.206          estimate D2E/DX2                !
 ! A28   A(2,13,17)            110.1783         estimate D2E/DX2                !
 ! A29   A(14,13,15)           108.8425         estimate D2E/DX2                !
 ! A30   A(14,13,17)           106.2347         estimate D2E/DX2                !
 ! A31   A(15,13,17)           109.6259         estimate D2E/DX2                !
 ! A32   A(10,16,22)           109.5867         estimate D2E/DX2                !
 ! A33   A(10,16,26)           108.2804         estimate D2E/DX2                !
 ! A34   A(10,16,39)           105.9338         estimate D2E/DX2                !
 ! A35   A(22,16,26)           109.2617         estimate D2E/DX2                !
 ! A36   A(22,16,39)           116.7019         estimate D2E/DX2                !
 ! A37   A(26,16,39)           106.7529         estimate D2E/DX2                !
 ! A38   A(13,17,30)           109.5861         estimate D2E/DX2                !
 ! A39   A(13,17,34)           108.28           estimate D2E/DX2                !
 ! A40   A(13,17,39)           105.9341         estimate D2E/DX2                !
 ! A41   A(30,17,34)           109.2614         estimate D2E/DX2                !
 ! A42   A(30,17,39)           116.7021         estimate D2E/DX2                !
 ! A43   A(34,17,39)           106.7536         estimate D2E/DX2                !
 ! A44   A(19,18,20)           107.4223         estimate D2E/DX2                !
 ! A45   A(19,18,21)           107.4235         estimate D2E/DX2                !
 ! A46   A(19,18,39)           103.9584         estimate D2E/DX2                !
 ! A47   A(20,18,21)           106.4267         estimate D2E/DX2                !
 ! A48   A(20,18,39)           115.535          estimate D2E/DX2                !
 ! A49   A(21,18,39)           115.5355         estimate D2E/DX2                !
 ! A50   A(16,22,23)           108.8323         estimate D2E/DX2                !
 ! A51   A(16,22,24)           110.3665         estimate D2E/DX2                !
 ! A52   A(16,22,25)           108.9727         estimate D2E/DX2                !
 ! A53   A(23,22,24)           109.4749         estimate D2E/DX2                !
 ! A54   A(23,22,25)           109.3116         estimate D2E/DX2                !
 ! A55   A(24,22,25)           109.8595         estimate D2E/DX2                !
 ! A56   A(16,26,27)           109.878          estimate D2E/DX2                !
 ! A57   A(16,26,28)           109.4188         estimate D2E/DX2                !
 ! A58   A(16,26,29)           109.125          estimate D2E/DX2                !
 ! A59   A(27,26,28)           109.6359         estimate D2E/DX2                !
 ! A60   A(27,26,29)           109.059          estimate D2E/DX2                !
 ! A61   A(28,26,29)           109.7097         estimate D2E/DX2                !
 ! A62   A(17,30,31)           110.3671         estimate D2E/DX2                !
 ! A63   A(17,30,32)           108.8326         estimate D2E/DX2                !
 ! A64   A(17,30,33)           108.9729         estimate D2E/DX2                !
 ! A65   A(31,30,32)           109.4749         estimate D2E/DX2                !
 ! A66   A(31,30,33)           109.859          estimate D2E/DX2                !
 ! A67   A(32,30,33)           109.3112         estimate D2E/DX2                !
 ! A68   A(17,34,35)           109.4189         estimate D2E/DX2                !
 ! A69   A(17,34,36)           109.8777         estimate D2E/DX2                !
 ! A70   A(17,34,37)           109.125          estimate D2E/DX2                !
 ! A71   A(35,34,36)           109.6352         estimate D2E/DX2                !
 ! A72   A(35,34,37)           109.7103         estimate D2E/DX2                !
 ! A73   A(36,34,37)           109.0593         estimate D2E/DX2                !
 ! A74   A(9,39,16)             81.8184         estimate D2E/DX2                !
 ! A75   A(9,39,17)             81.8182         estimate D2E/DX2                !
 ! A76   A(9,39,18)            158.2723         estimate D2E/DX2                !
 ! A77   A(9,39,38)            131.8455         estimate D2E/DX2                !
 ! A78   A(16,39,17)           161.5507         estimate D2E/DX2                !
 ! A79   A(16,39,18)            96.0199         estimate D2E/DX2                !
 ! A80   A(16,39,38)            98.622          estimate D2E/DX2                !
 ! A81   A(17,39,18)            96.0212         estimate D2E/DX2                !
 ! A82   A(17,39,38)            98.6214         estimate D2E/DX2                !
 ! A83   A(18,39,38)            69.8823         estimate D2E/DX2                !
 ! D1    D(9,1,3,5)             -0.1627         estimate D2E/DX2                !
 ! D2    D(9,1,3,6)            179.6861         estimate D2E/DX2                !
 ! D3    D(10,1,3,5)          -178.249          estimate D2E/DX2                !
 ! D4    D(10,1,3,6)             1.5997         estimate D2E/DX2                !
 ! D5    D(3,1,9,2)              1.4837         estimate D2E/DX2                !
 ! D6    D(3,1,9,39)           146.026          estimate D2E/DX2                !
 ! D7    D(10,1,9,2)           179.8916         estimate D2E/DX2                !
 ! D8    D(10,1,9,39)          -35.5661         estimate D2E/DX2                !
 ! D9    D(3,1,10,11)          109.2593         estimate D2E/DX2                !
 ! D10   D(3,1,10,12)          -11.6715         estimate D2E/DX2                !
 ! D11   D(3,1,10,16)         -134.8256         estimate D2E/DX2                !
 ! D12   D(9,1,10,11)          -69.0305         estimate D2E/DX2                !
 ! D13   D(9,1,10,12)          170.0387         estimate D2E/DX2                !
 ! D14   D(9,1,10,16)           46.8847         estimate D2E/DX2                !
 ! D15   D(9,2,4,5)              0.1624         estimate D2E/DX2                !
 ! D16   D(9,2,4,7)           -179.6866         estimate D2E/DX2                !
 ! D17   D(13,2,4,5)           178.2496         estimate D2E/DX2                !
 ! D18   D(13,2,4,7)            -1.5994         estimate D2E/DX2                !
 ! D19   D(4,2,9,1)             -1.4836         estimate D2E/DX2                !
 ! D20   D(4,2,9,39)          -146.0257         estimate D2E/DX2                !
 ! D21   D(13,2,9,1)          -179.8922         estimate D2E/DX2                !
 ! D22   D(13,2,9,39)           35.5656         estimate D2E/DX2                !
 ! D23   D(4,2,13,14)         -109.259          estimate D2E/DX2                !
 ! D24   D(4,2,13,15)           11.6711         estimate D2E/DX2                !
 ! D25   D(4,2,13,17)          134.8254         estimate D2E/DX2                !
 ! D26   D(9,2,13,14)           69.0316         estimate D2E/DX2                !
 ! D27   D(9,2,13,15)         -170.0383         estimate D2E/DX2                !
 ! D28   D(9,2,13,17)          -46.884          estimate D2E/DX2                !
 ! D29   D(1,3,5,4)             -1.0741         estimate D2E/DX2                !
 ! D30   D(1,3,5,8)            179.8545         estimate D2E/DX2                !
 ! D31   D(6,3,5,4)            179.0719         estimate D2E/DX2                !
 ! D32   D(6,3,5,8)              0.0006         estimate D2E/DX2                !
 ! D33   D(2,4,5,3)              1.0743         estimate D2E/DX2                !
 ! D34   D(2,4,5,8)           -179.8544         estimate D2E/DX2                !
 ! D35   D(7,4,5,3)           -179.0715         estimate D2E/DX2                !
 ! D36   D(7,4,5,8)             -0.0002         estimate D2E/DX2                !
 ! D37   D(3,5,8,40)            -0.5041         estimate D2E/DX2                !
 ! D38   D(4,5,8,40)          -179.4959         estimate D2E/DX2                !
 ! D39   D(1,9,39,16)           12.6735         estimate D2E/DX2                !
 ! D40   D(1,9,39,17)         -158.7759         estimate D2E/DX2                !
 ! D41   D(1,9,39,18)          -73.0498         estimate D2E/DX2                !
 ! D42   D(1,9,39,38)          106.9492         estimate D2E/DX2                !
 ! D43   D(2,9,39,16)          158.7758         estimate D2E/DX2                !
 ! D44   D(2,9,39,17)          -12.6736         estimate D2E/DX2                !
 ! D45   D(2,9,39,18)           73.0525         estimate D2E/DX2                !
 ! D46   D(2,9,39,38)         -106.9485         estimate D2E/DX2                !
 ! D47   D(1,10,16,22)        -161.5596         estimate D2E/DX2                !
 ! D48   D(1,10,16,26)          79.3429         estimate D2E/DX2                !
 ! D49   D(1,10,16,39)         -34.8622         estimate D2E/DX2                !
 ! D50   D(11,10,16,22)        -44.2306         estimate D2E/DX2                !
 ! D51   D(11,10,16,26)       -163.3281         estimate D2E/DX2                !
 ! D52   D(11,10,16,39)         82.4669         estimate D2E/DX2                !
 ! D53   D(12,10,16,22)         73.2181         estimate D2E/DX2                !
 ! D54   D(12,10,16,26)        -45.8793         estimate D2E/DX2                !
 ! D55   D(12,10,16,39)       -160.0844         estimate D2E/DX2                !
 ! D56   D(2,13,17,30)         161.5593         estimate D2E/DX2                !
 ! D57   D(2,13,17,34)         -79.3442         estimate D2E/DX2                !
 ! D58   D(2,13,17,39)          34.8618         estimate D2E/DX2                !
 ! D59   D(14,13,17,30)         44.2304         estimate D2E/DX2                !
 ! D60   D(14,13,17,34)        163.3269         estimate D2E/DX2                !
 ! D61   D(14,13,17,39)        -82.4672         estimate D2E/DX2                !
 ! D62   D(15,13,17,30)        -73.2188         estimate D2E/DX2                !
 ! D63   D(15,13,17,34)         45.8777         estimate D2E/DX2                !
 ! D64   D(15,13,17,39)        160.0836         estimate D2E/DX2                !
 ! D65   D(10,16,22,23)       -177.8403         estimate D2E/DX2                !
 ! D66   D(10,16,22,24)        -57.6846         estimate D2E/DX2                !
 ! D67   D(10,16,22,25)         63.0333         estimate D2E/DX2                !
 ! D68   D(26,16,22,23)        -59.3497         estimate D2E/DX2                !
 ! D69   D(26,16,22,24)         60.806          estimate D2E/DX2                !
 ! D70   D(26,16,22,25)       -178.4761         estimate D2E/DX2                !
 ! D71   D(39,16,22,23)         61.8186         estimate D2E/DX2                !
 ! D72   D(39,16,22,24)       -178.0257         estimate D2E/DX2                !
 ! D73   D(39,16,22,25)        -57.3078         estimate D2E/DX2                !
 ! D74   D(10,16,26,27)         60.3424         estimate D2E/DX2                !
 ! D75   D(10,16,26,28)       -179.2371         estimate D2E/DX2                !
 ! D76   D(10,16,26,29)        -59.1886         estimate D2E/DX2                !
 ! D77   D(22,16,26,27)        -58.9601         estimate D2E/DX2                !
 ! D78   D(22,16,26,28)         61.4605         estimate D2E/DX2                !
 ! D79   D(22,16,26,29)       -178.4911         estimate D2E/DX2                !
 ! D80   D(39,16,26,27)        174.0063         estimate D2E/DX2                !
 ! D81   D(39,16,26,28)        -65.5731         estimate D2E/DX2                !
 ! D82   D(39,16,26,29)         54.4754         estimate D2E/DX2                !
 ! D83   D(10,16,39,9)          13.2139         estimate D2E/DX2                !
 ! D84   D(10,16,39,17)         40.9269         estimate D2E/DX2                !
 ! D85   D(10,16,39,18)        171.4235         estimate D2E/DX2                !
 ! D86   D(10,16,39,38)       -118.0774         estimate D2E/DX2                !
 ! D87   D(22,16,39,9)         135.4795         estimate D2E/DX2                !
 ! D88   D(22,16,39,17)        163.1925         estimate D2E/DX2                !
 ! D89   D(22,16,39,18)        -66.3109         estimate D2E/DX2                !
 ! D90   D(22,16,39,38)          4.1883         estimate D2E/DX2                !
 ! D91   D(26,16,39,9)        -102.038          estimate D2E/DX2                !
 ! D92   D(26,16,39,17)        -74.3251         estimate D2E/DX2                !
 ! D93   D(26,16,39,18)         56.1715         estimate D2E/DX2                !
 ! D94   D(26,16,39,38)        126.6707         estimate D2E/DX2                !
 ! D95   D(13,17,30,31)         57.684          estimate D2E/DX2                !
 ! D96   D(13,17,30,32)        177.8401         estimate D2E/DX2                !
 ! D97   D(13,17,30,33)        -63.0338         estimate D2E/DX2                !
 ! D98   D(34,17,30,31)        -60.8056         estimate D2E/DX2                !
 ! D99   D(34,17,30,32)         59.3505         estimate D2E/DX2                !
 ! D100  D(34,17,30,33)        178.4766         estimate D2E/DX2                !
 ! D101  D(39,17,30,31)        178.0253         estimate D2E/DX2                !
 ! D102  D(39,17,30,32)        -61.8186         estimate D2E/DX2                !
 ! D103  D(39,17,30,33)         57.3074         estimate D2E/DX2                !
 ! D104  D(13,17,34,35)        179.2411         estimate D2E/DX2                !
 ! D105  D(13,17,34,36)        -60.3392         estimate D2E/DX2                !
 ! D106  D(13,17,34,37)         59.1919         estimate D2E/DX2                !
 ! D107  D(30,17,34,35)        -61.4575         estimate D2E/DX2                !
 ! D108  D(30,17,34,36)         58.9621         estimate D2E/DX2                !
 ! D109  D(30,17,34,37)        178.4933         estimate D2E/DX2                !
 ! D110  D(39,17,34,35)         65.5766         estimate D2E/DX2                !
 ! D111  D(39,17,34,36)       -174.0037         estimate D2E/DX2                !
 ! D112  D(39,17,34,37)        -54.4726         estimate D2E/DX2                !
 ! D113  D(13,17,39,9)         -13.2137         estimate D2E/DX2                !
 ! D114  D(13,17,39,16)        -40.9267         estimate D2E/DX2                !
 ! D115  D(13,17,39,18)       -171.4232         estimate D2E/DX2                !
 ! D116  D(13,17,39,38)        118.0776         estimate D2E/DX2                !
 ! D117  D(30,17,39,9)        -135.479          estimate D2E/DX2                !
 ! D118  D(30,17,39,16)       -163.192          estimate D2E/DX2                !
 ! D119  D(30,17,39,18)         66.3116         estimate D2E/DX2                !
 ! D120  D(30,17,39,38)         -4.1877         estimate D2E/DX2                !
 ! D121  D(34,17,39,9)         102.0382         estimate D2E/DX2                !
 ! D122  D(34,17,39,16)         74.3252         estimate D2E/DX2                !
 ! D123  D(34,17,39,18)        -56.1712         estimate D2E/DX2                !
 ! D124  D(34,17,39,38)       -126.6705         estimate D2E/DX2                !
 ! D125  D(19,18,39,9)           0.0043         estimate D2E/DX2                !
 ! D126  D(19,18,39,16)        -82.9924         estimate D2E/DX2                !
 ! D127  D(19,18,39,17)         83.0036         estimate D2E/DX2                !
 ! D128  D(19,18,39,38)       -179.9949         estimate D2E/DX2                !
 ! D129  D(20,18,39,9)         117.4342         estimate D2E/DX2                !
 ! D130  D(20,18,39,16)         34.4375         estimate D2E/DX2                !
 ! D131  D(20,18,39,17)       -159.5665         estimate D2E/DX2                !
 ! D132  D(20,18,39,38)        -62.565          estimate D2E/DX2                !
 ! D133  D(21,18,39,9)        -117.4273         estimate D2E/DX2                !
 ! D134  D(21,18,39,16)        159.576          estimate D2E/DX2                !
 ! D135  D(21,18,39,17)        -34.4279         estimate D2E/DX2                !
 ! D136  D(21,18,39,38)         62.5735         estimate D2E/DX2                !
 --------------------------------------------------------------------------------
 Trust Radius=3.00D-01 FncErr=1.00D-07 GrdErr=1.00D-06 EigMax=2.50D+02 EigMin=1.00D-04
 Number of steps in this run=    240 maximum allowed number of steps=    240.
 GradGradGradGradGradGradGradGradGradGradGradGradGradGradGradGradGradGrad

                          Input orientation:                          
 ---------------------------------------------------------------------
 Center     Atomic      Atomic             Coordinates (Angstroms)
 Number     Number       Type             X           Y           Z
 ---------------------------------------------------------------------
      1          6           0        1.511810    1.181350   -0.389250
      2          6           0        1.511820   -1.181340   -0.389250
      3          6           0        2.819660    1.236580    0.013480
      4          6           0        2.819660   -1.236560    0.013480
      5          6           0        3.587300    0.000010    0.236350
      6          1           0        3.327400    2.192410    0.177200
      7          1           0        3.327410   -2.192400    0.177210
      8          8           0        4.771470    0.000010    0.597700
      9          7           0        0.860140    0.000000   -0.605630
     10          6           0        0.578290    2.331400   -0.702060
     11          1           0        0.401530    2.352960   -1.793410
     12          1           0        0.976420    3.316060   -0.384310
     13          6           0        0.578290   -2.331400   -0.702050
     14          1           0        0.401540   -2.352970   -1.793400
     15          1           0        0.976430   -3.316050   -0.384290
     16          7           0       -0.768450    2.098130   -0.060900
     17          7           0       -0.768440   -2.098130   -0.060900
     18          6           0       -2.791680    0.000020    1.040290
     19          1           0       -2.392080    0.000130    2.080040
     20          1           0       -3.447360    0.887710    0.936640
     21          1           0       -3.447290   -0.887730    0.936780
     22          6           0       -1.780580    2.955420   -0.709480
     23          1           0       -2.748270    2.804400   -0.207670
     24          1           0       -1.487380    4.024000   -0.634490
     25          1           0       -1.870030    2.665750   -1.767010
     26          6           0       -0.669100    2.458610    1.374380
     27          1           0       -0.388580    3.527740    1.476470
     28          1           0       -1.637970    2.282520    1.863420
     29          1           0        0.106690    1.835600    1.850620
     30          6           0       -1.780560   -2.955430   -0.709490
     31          1           0       -1.487360   -4.024000   -0.634510
     32          1           0       -2.748260   -2.804420   -0.207690
     33          1           0       -1.870010   -2.665760   -1.767020
     34          6           0       -0.669090   -2.458630    1.374380
     35          1           0       -1.637980   -2.282610    1.863410
     36          1           0       -0.388520   -3.527750    1.476450
     37          1           0        0.106660   -1.835590    1.850640
     38          1           0       -2.353820   -0.000010   -1.019730
     39         45           0       -1.098850    0.000000   -0.144220
     40          1           0        4.771470    1.000010    0.597700
 ---------------------------------------------------------------------
                    Distance matrix (angstroms):
                    1          2          3          4          5
     1  C    0.000000
     2  C    2.362690   0.000000
     3  C    1.369567   2.778304   0.000000
     4  C    2.778300   1.369557   2.473140   0.000000
     5  C    2.468724   2.468720   1.472429   1.472429   0.000000
     6  H    2.153944   3.872904   1.094630   3.470222   2.208544
     7  H    3.872915   2.153947   3.470234   1.094645   2.208552
     8  O    3.604860   3.604855   2.383271   2.383271   1.238076
     9  N    1.366412   1.366408   2.398363   2.398353   2.854178
    10  C    1.513910   3.648105   2.595066   4.273883   3.920476
    11  H    2.139406   3.961778   3.218464   4.690081   4.450329
    12  H    2.200830   4.529159   2.807135   4.927689   4.265923
    13  C    3.648111   1.513922   4.273898   2.595072   3.920486
    14  H    3.961787   2.139410   4.690095   3.218461   4.450333
    15  H    4.529157   2.200830   4.927693   2.807133   4.265922
    16  N    2.479493   4.007788   3.690845   4.899002   4.843864
    17  N    4.007785   2.479497   4.899009   3.690840   4.843864
    18  C    4.686059   4.686076   5.836999   5.837003   6.429441
    19  H    4.767917   4.767987   5.741229   5.741281   6.257170
    20  H    5.141748   5.534656   6.344247   6.681339   7.124946
    21  H    5.534629   5.141725   6.681305   6.344196   7.124896
    22  C    3.753625   5.296719   4.963798   6.265587   6.200256
    23  H    4.562406   5.836734   5.788680   6.883321   6.942709
    24  H    4.139558   6.012562   5.171090   6.829638   6.534771
    25  H    3.941891   5.304266   5.215924   6.355420   6.395473
    26  C    3.081907   4.595219   3.939144   5.260967   5.045470
    27  H    3.549358   5.409978   4.205063   5.927200   5.458058
    28  H    4.025942   5.195577   4.938293   5.972995   5.929642
    29  H    2.723862   4.011650   3.330783   4.491487   4.253223
    30  C    5.296716   3.753627   6.265593   4.963791   6.200255
    31  H    6.012557   4.139559   6.829642   5.171086   6.534771
    32  H    5.836739   4.562415   6.883337   5.788682   6.942717
    33  H    5.304264   3.941894   6.355426   5.215918   6.395471
    34  C    4.595233   3.081920   5.260989   3.939147   5.045481
    35  H    5.195640   4.025980   5.973064   4.938321   5.929690
    36  H    5.409964   3.549334   5.927187   4.205027   5.458029
    37  H    4.011668   2.723899   4.491520   3.330820   4.253259
    38  H    4.090992   4.090992   5.418632   5.418623   6.072450
    39  Rh   2.875965   2.875970   4.112021   4.112015   4.701578
    40  H    3.410621   4.044462   2.051058   3.025412   1.591487
                    6          7          8          9         10
     6  H    0.000000
     7  H    4.384810   0.000000
     8  O    2.658717   2.658718   0.000000
     9  N    3.392176   3.392179   4.092249   0.000000
    10  C    2.889640   5.366148   4.970665   2.350354   0.000000
    11  H    3.531260   5.753644   5.509098   2.675363   1.105782
    12  H    2.665519   6.015446   5.134485   3.325471   1.108615
    13  C    5.366148   2.889650   4.970672   2.350354   4.662800
    14  H    5.753642   3.531261   5.509098   2.675365   4.813064
    15  H    6.015435   2.665517   5.134480   3.325463   5.670378
    16  N    4.103848   5.936448   5.960417   2.711307   1.509705
    17  N    5.936441   4.103848   5.960415   2.711301   4.673917
    18  C    6.557030   6.557048   7.576089   4.005601   4.452843
    19  H    6.413996   6.414087   7.315311   4.217791   4.690202
    20  H    6.940920   7.480730   8.273576   4.660599   4.579895
    21  H    7.480685   6.940870   8.273516   4.660584   5.408686
    22  C    5.240214   7.306013   7.305650   3.964681   2.440025
    23  H    6.118531   7.875915   8.065960   4.587336   3.396197
    24  H    5.214947   7.904726   7.542148   4.658783   2.671414
    25  H    5.569316   7.375296   7.537078   3.988591   2.690758
    26  C    4.180444   6.247976   6.020610   3.507674   2.425648
    27  H    4.156888   6.943822   6.312150   4.282452   2.666845
    28  H    5.244650   6.893708   6.920464   4.188873   3.390558
    29  H    3.647002   5.422004   5.167143   3.157575   2.642801
    30  C    7.306007   5.240211   7.305646   3.964675   5.789197
    31  H    7.904716   5.214946   7.542145   4.658773   6.683007
    32  H    7.875919   6.118536   8.065967   4.587339   6.138973
    33  H    7.375288   5.569315   7.537074   3.988586   5.665679
    34  C    6.247987   4.180443   6.020618   3.507684   5.367676
    35  H    6.893773   5.244665   6.920508   4.188922   5.725607
    36  H    6.943799   4.156840   6.312114   4.282433   6.325367
    37  H    5.422025   3.647042   5.167179   3.157592   4.909432
    38  H    6.206094   6.206095   7.306561   3.240527   3.759475
    39  Rh   4.949915   4.949920   5.917018   2.012596   2.925647
    40  H    1.919369   3.528966   1.000000   4.212663   4.587454
                   11         12         13         14         15
    11  H    0.000000
    12  H    1.801006   0.000000
    13  C    4.813059   5.670385   0.000000
    14  H    4.705930   5.869746   1.105781   0.000000
    15  H    5.869736   6.632110   1.108613   1.801003   0.000000
    16  N    2.106035   2.152329   4.673919   4.917593   5.697590
    17  N    4.917583   5.697595   1.509692   2.106028   2.152320
    18  C    4.874707   5.217680   4.452860   4.874732   5.217701
    19  H    5.323878   5.330591   4.690326   5.323996   5.330744
    20  H    4.941061   5.216476   5.408681   5.724435   6.243907
    21  H    5.724458   6.243904   4.579873   4.941083   5.216442
    22  C    2.509874   2.799437   5.789196   5.840851   6.858439
    23  H    3.555223   3.763816   6.138962   6.247744   7.166903
    24  H    2.775509   2.575671   6.683013   6.751062   7.746567
    25  H    2.293146   3.230641   5.665679   5.508927   6.767288
    26  C    3.345490   2.556550   5.367657   5.859386   6.256787
    27  H    3.563214   2.317442   6.325370   6.774887   7.222406
    28  H    4.187712   3.599379   5.725531   6.246575   6.575049
    29  H    3.692363   2.818351   4.909422   5.559671   5.682497
    30  C    5.840839   6.858445   2.440009   2.509856   2.799428
    31  H    6.751042   7.746567   2.671398   2.775484   2.575668
    32  H    6.247740   7.166918   3.396185   3.555211   3.763810
    33  H    5.508915   6.767291   2.690749   2.293136   3.230641
    34  C    5.859396   6.256815   2.425635   3.345481   2.556526
    35  H    6.246635   6.575138   3.390548   4.187702   3.599346
    36  H    6.774874   7.222411   2.666803   3.563176   2.317382
    37  H    5.559676   5.682515   2.642818   3.692379   2.818364
    38  H    3.704997   4.742423   3.759464   3.704996   4.742412
    39  Rh   3.241510   3.919266   2.925645   3.241517   3.919261
    40  H    5.161807   4.553113   5.510935   6.004675   5.830524
                   16         17         18         19         20
    16  N    0.000000
    17  N    4.196260   0.000000
    18  C    3.115790   3.115823   0.000000
    19  H    3.409018   3.409183   1.113894   0.000000
    20  H    3.104313   4.133635   1.108446   1.791306   0.000000
    21  H    4.133631   3.104299   1.108440   1.791314   1.775440
    22  C    1.476485   5.194560   3.580280   4.109634   3.124627
    23  H    2.107142   5.289241   3.069827   3.636539   2.339203
    24  H    2.134207   6.190828   4.549561   4.937478   4.018244
    25  H    2.108668   5.178693   3.979509   4.709338   3.599878
    26  C    1.483187   4.778470   3.265215   3.083949   3.221501
    27  H    2.133446   5.844503   4.290682   4.101505   4.076433
    28  H    2.119687   4.863043   2.686707   2.413485   2.465423
    29  H    2.118655   4.460268   3.525129   3.108928   3.790135
    30  C    5.194565   1.476489   3.580332   4.109838   4.500855
    31  H    6.190827   2.134209   4.549609   4.937704   5.516793
    32  H    5.289252   2.107150   3.069890   3.636767   3.928111
    33  H    5.178699   2.108674   3.979554   4.709501   4.735500
    34  C    4.778490   1.483192   3.265266   3.084178   4.371315
    35  H    4.863120   2.119694   2.686810   2.413814   3.766124
    36  H    5.844512   2.133447   4.290755   4.101769   5.398535
    37  H    4.460264   2.118658   3.525125   3.109050   4.569772
    38  H    2.799097   2.799088   2.106040   3.100006   2.410656
    39  Rh   2.125619   2.125620   2.066092   2.572893   2.733457
    40  H    5.685977   6.381444   7.641800   7.383329   8.226582
                   21         22         23         24         25
    21  H    0.000000
    22  C    4.500877   0.000000
    23  H    3.928132   1.100475   0.000000
    24  H    5.516813   1.110609   1.805393   0.000000
    25  H    4.735552   1.100127   1.795013   1.809383   0.000000
    26  C    4.371250   2.413437   2.635413   2.674993   3.369491
    27  H    5.398458   2.653977   2.987923   2.431005   3.668499
    28  H    3.766004   2.663259   2.407185   3.048768   3.657969
    29  H    4.569727   3.371928   3.650470   3.675041   4.205213
    30  C    3.124672   5.910850   5.862075   6.985988   5.720491
    31  H    4.018267   6.985979   6.956949   8.048000   6.795715
    32  H    2.339264   5.862078   5.608820   6.956960   5.755478
    33  H    3.599964   5.720494   5.755481   6.795728   5.331510
    34  C    3.221431   5.906761   5.875828   6.835909   6.129426
    35  H    2.465347   5.837556   5.603551   6.784948   6.141666
    36  H    4.076398   6.981949   6.964252   7.917859   7.146632
    37  H    3.790005   5.750623   5.823811   6.561374   6.103831
    38  H    2.410737   3.026454   2.946141   4.134221   2.810473
    39  Rh   2.733459   3.085252   3.254116   4.072333   3.214714
    40  H    8.439583   6.961444   7.775020   7.059463   7.244037
                   26         27         28         29         30
    26  C    0.000000
    27  H    1.110024   0.000000
    28  H    1.099489   1.805901   0.000000
    29  H    1.103085   1.802392   1.801039   0.000000
    30  C    5.906749   6.981943   5.837492   5.750639   0.000000
    31  H    6.835892   7.917849   6.784875   6.561385   1.110599
    32  H    5.875826   6.964247   5.603499   5.823845   1.100477
    33  H    6.129417   7.146629   6.141613   6.103843   1.100127
    34  C    4.917240   5.993808   4.863784   4.389653   2.413439
    35  H    4.863851   5.955744   4.565130   4.472549   2.663237
    36  H    5.993801   7.055490   5.955679   5.399144   2.653989
    37  H    4.389622   5.399127   4.472441   3.671190   3.371929
    38  H    3.822938   4.747442   3.746323   4.202676   3.026447
    39  Rh   2.921574   3.946653   3.087259   2.966840   3.085259
    40  H    5.685996   5.812725   6.657913   4.901856   7.764235
                   31         32         33         34         35
    31  H    0.000000
    32  H    1.805386   0.000000
    33  H    1.809369   1.795010   0.000000
    34  C    2.674993   2.635425   3.369496   0.000000
    35  H    3.048726   2.407169   3.657959   1.099491   0.000000
    36  H    2.431021   2.987960   3.668506   1.110025   1.805896
    37  H    3.675052   3.650469   4.205219   1.103082   1.801044
    38  H    4.134204   2.946134   2.810469   3.822943   3.746356
    39  Rh   4.072334   3.254129   3.214723   2.921592   3.087320
    40  H    8.119850   8.465736   7.946007   6.493467   7.311543
                   36         37         38         39         40
    36  H    0.000000
    37  H    1.802395   0.000000
    38  H    4.747449   4.202659   0.000000
    39  Rh   3.946664   2.966835   1.530185   0.000000
    40  H    6.920860   5.600977   7.374678   6.000927   0.000000
 Stoichiometry    C12H23N3ORh(1+)
 Framework group  C1[X(C12H23N3ORh)]
 Deg. of freedom   114
 Full point group                 C1      NOp   1
 Largest Abelian subgroup         C1      NOp   1
 Largest concise Abelian subgroup C1      NOp   1
                         Standard orientation:                         
 ---------------------------------------------------------------------
 Center     Atomic      Atomic             Coordinates (Angstroms)
 Number     Number       Type             X           Y           Z
 ---------------------------------------------------------------------
      1          6           0        1.513884    1.132961   -0.401830
      2          6           0        1.447813   -1.228803   -0.398456
      3          6           0        2.824767    1.152100   -0.005684
      4          6           0        2.755597   -1.320070   -0.002152
      5          6           0        3.558628   -0.105172    0.215135
      6          1           0        3.359855    2.093562    0.154146
      7          1           0        3.237228   -2.289528    0.160418
      8          8           0        4.744129   -0.137834    0.570596
      9          7           0        0.828353   -0.029974   -0.613282
     10          6           0        0.611340    2.308272   -0.711640
     11          1           0        0.429789    2.333362   -1.802128
     12          1           0        1.038439    3.281818   -0.397279
     13          6           0        0.480928   -2.352699   -0.704971
     14          1           0        0.298181   -2.370722   -1.795397
     15          1           0        0.852959   -3.347692   -0.387788
     16          7           0       -0.738171    2.113595   -0.063463
     17          7           0       -0.855524   -2.081019   -0.057471
     18          6           0       -2.813751    0.074328    1.050762
     19          1           0       -2.409103    0.064598    2.088512
     20          1           0       -3.444858    0.979879    0.949104
     21          1           0       -3.494444   -0.794867    0.951779
     22          6           0       -1.729162    2.998028   -0.708229
     23          1           0       -2.698173    2.874785   -0.201402
     24          1           0       -1.405819    4.058083   -0.636223
     25          1           0       -1.831973    2.709611   -1.764887
     26          6           0       -0.621592    2.473004    1.370789
     27          1           0       -0.310772    3.533998    1.469957
     28          1           0       -1.592547    2.324717    1.864889
     29          1           0        0.138845    1.829149    1.844058
     30          6           0       -1.894460   -2.910504   -0.699798
     31          1           0       -1.630889   -3.986761   -0.624750
     32          1           0       -2.855033   -2.731835   -0.193412
     33          1           0       -1.981068   -2.619808   -1.757283
     34          6           0       -0.759110   -2.442308    1.377811
     35          1           0       -1.720237   -2.238622    1.871398
     36          1           0       -0.508044   -3.518726    1.480012
     37          1           0        0.036137   -1.840600    1.849320
     38          1           0       -2.386383    0.059394   -1.011406
     39         45           0       -1.127536    0.025424   -0.142144
     40          1           0        4.772098    0.861773    0.569168
 ---------------------------------------------------------------------
 Rotational constants (GHZ):           0.5217335           0.3720660           0.2467189
 Standard basis: def2TZVPP (5D, 7F)
 There are   992 symmetry adapted cartesian basis functions of A   symmetry.
 There are   874 symmetry adapted basis functions of A   symmetry.
   874 basis functions,  1306 primitive gaussians,   992 cartesian basis functions
    70 alpha electrons       70 beta electrons
       nuclear repulsion energy      1560.0834279710 Hartrees.
 NAtoms=   40 NActive=   40 NUniq=   40 SFac= 1.00D+00 NAtFMM=   60 NAOKFM=F Big=F
 Integral buffers will be    131072 words long.
 Raffenetti 2 integral format.
 Two-electron integral symmetry is turned on.
 Nuclear repulsion after empirical dispersion term =     1560.0414412163 Hartrees.
 ------------------------------------------------------------------------------
 Polarizable Continuum Model (PCM)
 =================================
 Model                : PCM.
 Atomic radii         : UFF (Universal Force Field).
 Polarization charges : Total charges.
 Charge compensation  : None.
 Solution method      : On-the-fly selection.
 Cavity type          : Scaled VdW (van der Waals Surface) (Alpha=1.100).
 Cavity algorithm     : GePol (No added spheres)
                        Default sphere list used, NSphG=   40.
                        Lebedev-Laikov grids with approx.  5.0 points / Ang**2.
                        Smoothing algorithm: York/Karplus (Gamma=1.0000).
                        Polarization charges: spherical gaussians, with
                                              point-specific exponents (IZeta= 3).
                        Self-potential: point-specific (ISelfS= 7).
                        Self-field    : sphere-specific E.n sum rule (ISelfD= 2).
 1st derivatives      : Analytical E(r).r(x)/FMM algorithm (CHGder, D1EAlg=3).
                        Cavity 1st derivative terms included.
 Solvent              : Dichloromethane, Eps=   8.930000 Eps(inf)=   2.028346
 ------------------------------------------------------------------------------
 One-electron integrals computed using PRISM.
   1 Symmetry operations used in ECPInt.
 ECPInt:  NShTT=   54615 NPrTT=  139562 LenC2=   49518 LenP2D=   96872.
 LDataN:  DoStor=T MaxTD1= 8 Len=  415
 NBasis=   874 RedAO= T EigKep=  1.89D-05  NBF=   874
 NBsUse=   874 1.00D-06 EigRej= -1.00D+00 NBFU=   874
 Defaulting to unpruned grid for atomic number  45.
 ExpMin= 3.70D-02 ExpMax= 2.70D+04 ExpMxC= 9.22D+02 IAcc=3 IRadAn=         5 AccDes= 0.00D+00
 Harris functional with IExCor= 4639 and IRadAn=       5 diagonalized for initial guess.
 HarFok:  IExCor= 4639 AccDes= 0.00D+00 IRadAn=         5 IDoV= 1 UseB2=F ITyADJ=14
 ICtDFT=  3500011 ScaDFX=  1.000000  1.000000  1.000000  1.000000
 Defaulting to unpruned grid for atomic number  45.
 FoFCou: FMM=F IPFlag=           0 FMFlag=      100000 FMFlg1=           0
         NFxFlg=           0 DoJE=T BraDBF=F KetDBF=T FulRan=T
         wScrn=  0.000000 ICntrl=       500 IOpCl=  0 I1Cent=   200000004 NGrid=           0
         NMat0=    1 NMatS0=      1 NMatT0=    0 NMatD0=    1 NMtDS0=    0 NMtDT0=    0
 Petite list used in FoFCou.
 Requested convergence on RMS density matrix=1.00D-08 within 128 cycles.
 Requested convergence on MAX density matrix=1.00D-06.
 Requested convergence on             energy=1.00D-06.
 No special actions if energy rises.
 Defaulting to unpruned grid for atomic number  45.
 Defaulting to unpruned grid for atomic number  45.
 Defaulting to unpruned grid for atomic number  45.
 Defaulting to unpruned grid for atomic number  45.
 Defaulting to unpruned grid for atomic number  45.
 Defaulting to unpruned grid for atomic number  45.
 Inv3:  Mode=1 IEnd=    18825075.
 Iteration    1 A*A^-1 deviation from unit magnitude is 3.55D-15 for   2397.
 Iteration    1 A*A^-1 deviation from orthogonality  is 2.78D-15 for   1514    959.
 Iteration    1 A^-1*A deviation from unit magnitude is 3.55D-15 for   2397.
 Iteration    1 A^-1*A deviation from orthogonality  is 1.99D-15 for   2402   2121.
 Error on total polarization charges =  0.01803
 SCF Done:  E(RwB97XD) =  -821.096384413     A.U. after   17 cycles
            NFock= 17  Conv=0.52D-08     -V/T= 2.0993

 **********************************************************************

            Population analysis using the SCF Density.

 **********************************************************************

 Orbital symmetries:
       Occupied  (A) (A) (A) (A) (A) (A) (A) (A) (A) (A) (A) (A)
                 (A) (A) (A) (A) (A) (A) (A) (A) (A) (A) (A) (A)
                 (A) (A) (A) (A) (A) (A) (A) (A) (A) (A) (A) (A)
                 (A) (A) (A) (A) (A) (A) (A) (A) (A) (A) (A) (A)
                 (A) (A) (A) (A) (A) (A) (A) (A) (A) (A) (A) (A)
                 (A) (A) (A) (A) (A) (A) (A) (A) (A) (A)
       Virtual   (A) (A) (A) (A) (A) (A) (A) (A) (A) (A) (A) (A)
                 (A) (A) (A) (A) (A) (A) (A) (A) (A) (A) (A) (A)
                 (A) (A) (A) (A) (A) (A) (A) (A) (A) (A) (A) (A)
                 (A) (A) (A) (A) (A) (A) (A) (A) (A) (A) (A) (A)
                 (A) (A) (A) (A) (A) (A) (A) (A) (A) (A) (A) (A)
                 (A) (A) (A) (A) (A) (A) (A) (A) (A) (A) (A) (A)
                 (A) (A) (A) (A) (A) (A) (A) (A) (A) (A) (A) (A)
                 (A) (A) (A) (A) (A) (A) (A) (A) (A) (A) (A) (A)
                 (A) (A) (A) (A) (A) (A) (A) (A) (A) (A) (A) (A)
                 (A) (A) (A) (A) (A) (A) (A) (A) (A) (A) (A) (A)
                 (A) (A) (A) (A) (A) (A) (A) (A) (A) (A) (A) (A)
                 (A) (A) (A) (A) (A) (A) (A) (A) (A) (A) (A) (A)
                 (A) (A) (A) (A) (A) (A) (A) (A) (A) (A) (A) (A)
                 (A) (A) (A) (A) (A) (A) (A) (A) (A) (A) (A) (A)
                 (A) (A) (A) (A) (A) (A) (A) (A) (A) (A) (A) (A)
                 (A) (A) (A) (A) (A) (A) (A) (A) (A) (A) (A) (A)
                 (A) (A) (A) (A) (A) (A) (A) (A) (A) (A) (A) (A)
                 (A) (A) (A) (A) (A) (A) (A) (A) (A) (A) (A) (A)
                 (A) (A) (A) (A) (A) (A) (A) (A) (A) (A) (A) (A)
                 (A) (A) (A) (A) (A) (A) (A) (A) (A) (A) (A) (A)
                 (A) (A) (A) (A) (A) (A) (A) (A) (A) (A) (A) (A)
                 (A) (A) (A) (A) (A) (A) (A) (A) (A) (A) (A) (A)
                 (A) (A) (A) (A) (A) (A) (A) (A) (A) (A) (A) (A)
                 (A) (A) (A) (A) (A) (A) (A) (A) (A) (A) (A) (A)
                 (A) (A) (A) (A) (A) (A) (A) (A) (A) (A) (A) (A)
                 (A) (A) (A) (A) (A) (A) (A) (A) (A) (A) (A) (A)
                 (A) (A) (A) (A) (A) (A) (A) (A) (A) (A) (A) (A)
                 (A) (A) (A) (A) (A) (A) (A) (A) (A) (A) (A) (A)
                 (A) (A) (A) (A) (A) (A) (A) (A) (A) (A) (A) (A)
                 (A) (A) (A) (A) (A) (A) (A) (A) (A) (A) (A) (A)
                 (A) (A) (A) (A) (A) (A) (A) (A) (A) (A) (A) (A)
                 (A) (A) (A) (A) (A) (A) (A) (A) (A) (A) (A) (A)
                 (A) (A) (A) (A) (A) (A) (A) (A) (A) (A) (A) (A)
                 (A) (A) (A) (A) (A) (A) (A) (A) (A) (A) (A) (A)
                 (A) (A) (A) (A) (A) (A) (A) (A) (A) (A) (A) (A)
                 (A) (A) (A) (A) (A) (A) (A) (A) (A) (A) (A) (A)
                 (A) (A) (A) (A) (A) (A) (A) (A) (A) (A) (A) (A)
                 (A) (A) (A) (A) (A) (A) (A) (A) (A) (A) (A) (A)
                 (A) (A) (A) (A) (A) (A) (A) (A) (A) (A) (A) (A)
                 (A) (A) (A) (A) (A) (A) (A) (A) (A) (A) (A) (A)
                 (A) (A) (A) (A) (A) (A) (A) (A) (A) (A) (A) (A)
                 (A) (A) (A) (A) (A) (A) (A) (A) (A) (A) (A) (A)
                 (A) (A) (A) (A) (A) (A) (A) (A) (A) (A) (A) (A)
                 (A) (A) (A) (A) (A) (A) (A) (A) (A) (A) (A) (A)
                 (A) (A) (A) (A) (A) (A) (A) (A) (A) (A) (A) (A)
                 (A) (A) (A) (A) (A) (A) (A) (A) (A) (A) (A) (A)
                 (A) (A) (A) (A) (A) (A) (A) (A) (A) (A) (A) (A)
                 (A) (A) (A) (A) (A) (A) (A) (A) (A) (A) (A) (A)
                 (A) (A) (A) (A) (A) (A) (A) (A) (A) (A) (A) (A)
                 (A) (A) (A) (A) (A) (A) (A) (A) (A) (A) (A) (A)
                 (A) (A) (A) (A) (A) (A) (A) (A) (A) (A) (A) (A)
                 (A) (A) (A) (A) (A) (A) (A) (A) (A) (A) (A) (A)
                 (A) (A) (A) (A) (A) (A) (A) (A) (A) (A) (A) (A)
                 (A) (A) (A) (A) (A) (A) (A) (A) (A) (A) (A) (A)
                 (A) (A) (A) (A) (A) (A) (A) (A) (A) (A) (A) (A)
                 (A) (A) (A) (A) (A) (A) (A) (A) (A) (A) (A) (A)
                 (A) (A) (A) (A) (A) (A) (A) (A) (A) (A) (A) (A)
                 (A) (A) (A) (A) (A) (A) (A) (A) (A) (A) (A) (A)
                 (A) (A) (A) (A) (A) (A) (A) (A) (A) (A) (A) (A)
                 (A) (A) (A) (A) (A) (A) (A) (A) (A) (A) (A) (A)
                 (A) (A) (A) (A) (A) (A) (A) (A) (A) (A) (A) (A)
                 (A) (A) (A) (A) (A) (A) (A) (A) (A) (A) (A) (A)
                 (A) (A) (A) (A) (A) (A) (A) (A) (A) (A) (A) (A)
                 (A) (A) (A) (A) (A) (A) (A) (A) (A) (A) (A) (A)
                 (A) (A) (A) (A) (A) (A) (A) (A) (A) (A) (A) (A)
                 (A) (A) (A) (A) (A) (A) (A) (A) (A) (A) (A) (A)
                 (A) (A) (A) (A) (A) (A) (A) (A) (A) (A) (A) (A)
 The electronic state is 1-A.
 Alpha  occ. eigenvalues --  -19.35786 -14.52066 -14.52005 -14.49031 -10.43097
 Alpha  occ. eigenvalues --  -10.38366 -10.38049 -10.36176 -10.36033 -10.34000
 Alpha  occ. eigenvalues --  -10.33604 -10.33546 -10.33357 -10.33306 -10.33263
 Alpha  occ. eigenvalues --  -10.27352  -3.34748  -2.10583  -2.09965  -2.08499
 Alpha  occ. eigenvalues --   -1.29029  -1.10643  -1.07833  -1.06678  -0.93919
 Alpha  occ. eigenvalues --   -0.92155  -0.85693  -0.84295  -0.83671  -0.83622
 Alpha  occ. eigenvalues --   -0.77409  -0.76446  -0.75786  -0.72870  -0.72157
 Alpha  occ. eigenvalues --   -0.69417  -0.65046  -0.62501  -0.61404  -0.60716
 Alpha  occ. eigenvalues --   -0.60196  -0.59821  -0.58923  -0.58555  -0.58461
 Alpha  occ. eigenvalues --   -0.56060  -0.54153  -0.53735  -0.52802  -0.51414
 Alpha  occ. eigenvalues --   -0.51203  -0.49793  -0.49511  -0.49489  -0.49177
 Alpha  occ. eigenvalues --   -0.48105  -0.47944  -0.47031  -0.46596  -0.46504
 Alpha  occ. eigenvalues --   -0.45615  -0.44433  -0.41725  -0.39409  -0.38179
 Alpha  occ. eigenvalues --   -0.37148  -0.35717  -0.33614  -0.32786  -0.30756
 Alpha virt. eigenvalues --   -0.01722   0.01023   0.02601   0.05278   0.07186
 Alpha virt. eigenvalues --    0.08206   0.09236   0.09342   0.10698   0.12040
 Alpha virt. eigenvalues --    0.12812   0.13564   0.13973   0.14019   0.15256
 Alpha virt. eigenvalues --    0.15349   0.15477   0.15703   0.16345   0.16513
 Alpha virt. eigenvalues --    0.17159   0.17401   0.18562   0.19193   0.20179
 Alpha virt. eigenvalues --    0.20272   0.20592   0.20761   0.20881   0.21300
 Alpha virt. eigenvalues --    0.21927   0.22242   0.22664   0.23566   0.23614
 Alpha virt. eigenvalues --    0.23856   0.24456   0.25021   0.25993   0.26202
 Alpha virt. eigenvalues --    0.27121   0.28217   0.28622   0.29224   0.29655
 Alpha virt. eigenvalues --    0.29829   0.30666   0.31012   0.31358   0.32096
 Alpha virt. eigenvalues --    0.32356   0.32655   0.33942   0.34262   0.35146
 Alpha virt. eigenvalues --    0.35812   0.36354   0.36770   0.37287   0.37472
 Alpha virt. eigenvalues --    0.37557   0.38644   0.39380   0.39649   0.40390
 Alpha virt. eigenvalues --    0.40912   0.41104   0.41573   0.41752   0.43053
 Alpha virt. eigenvalues --    0.43097   0.43242   0.43520   0.43884   0.44260
 Alpha virt. eigenvalues --    0.45733   0.46126   0.46550   0.46763   0.47521
 Alpha virt. eigenvalues --    0.47930   0.48310   0.49078   0.49209   0.49325
 Alpha virt. eigenvalues --    0.50130   0.50422   0.50510   0.50650   0.50980
 Alpha virt. eigenvalues --    0.51780   0.51931   0.52413   0.53056   0.53127
 Alpha virt. eigenvalues --    0.53446   0.53989   0.54559   0.54817   0.55529
 Alpha virt. eigenvalues --    0.56427   0.56851   0.57627   0.57887   0.57910
 Alpha virt. eigenvalues --    0.59298   0.59932   0.60584   0.60983   0.61228
 Alpha virt. eigenvalues --    0.61638   0.61874   0.62677   0.63211   0.63887
 Alpha virt. eigenvalues --    0.64819   0.65472   0.66222   0.67621   0.67888
 Alpha virt. eigenvalues --    0.69017   0.70034   0.70241   0.71188   0.71262
 Alpha virt. eigenvalues --    0.71470   0.72256   0.73048   0.74135   0.74466
 Alpha virt. eigenvalues --    0.74501   0.75140   0.76981   0.78882   0.79316
 Alpha virt. eigenvalues --    0.80101   0.81076   0.81981   0.82578   0.83746
 Alpha virt. eigenvalues --    0.84539   0.85371   0.85843   0.86190   0.87218
 Alpha virt. eigenvalues --    0.87964   0.88077   0.88160   0.88855   0.89477
 Alpha virt. eigenvalues --    0.90163   0.90503   0.92106   0.92290   0.92454
 Alpha virt. eigenvalues --    0.93230   0.93670   0.95126   0.95361   0.96161
 Alpha virt. eigenvalues --    0.96960   0.97965   0.99073   0.99865   1.01035
 Alpha virt. eigenvalues --    1.01332   1.01350   1.02357   1.02996   1.03594
 Alpha virt. eigenvalues --    1.04053   1.04399   1.04927   1.05028   1.05425
 Alpha virt. eigenvalues --    1.06218   1.07074   1.07632   1.08715   1.08828
 Alpha virt. eigenvalues --    1.09122   1.09911   1.10237   1.11087   1.12055
 Alpha virt. eigenvalues --    1.12343   1.12741   1.13383   1.14220   1.14742
 Alpha virt. eigenvalues --    1.15278   1.15829   1.16855   1.17365   1.18492
 Alpha virt. eigenvalues --    1.18950   1.19265   1.20160   1.20375   1.21402
 Alpha virt. eigenvalues --    1.22469   1.22927   1.23771   1.24885   1.25167
 Alpha virt. eigenvalues --    1.25958   1.27122   1.27427   1.28232   1.28861
 Alpha virt. eigenvalues --    1.29645   1.30014   1.31121   1.31300   1.32037
 Alpha virt. eigenvalues --    1.32928   1.33537   1.34283   1.34846   1.35167
 Alpha virt. eigenvalues --    1.36141   1.36813   1.37791   1.38382   1.39401
 Alpha virt. eigenvalues --    1.39521   1.40304   1.40608   1.41441   1.41915
 Alpha virt. eigenvalues --    1.42194   1.42315   1.42845   1.43283   1.43909
 Alpha virt. eigenvalues --    1.45050   1.45334   1.46385   1.46685   1.47704
 Alpha virt. eigenvalues --    1.48184   1.48550   1.49871   1.50086   1.50840
 Alpha virt. eigenvalues --    1.52131   1.52342   1.53824   1.54333   1.54769
 Alpha virt. eigenvalues --    1.54823   1.55159   1.55782   1.56288   1.56950
 Alpha virt. eigenvalues --    1.57803   1.58340   1.59007   1.59451   1.59755
 Alpha virt. eigenvalues --    1.60784   1.60909   1.61185   1.61752   1.63282
 Alpha virt. eigenvalues --    1.63830   1.64291   1.65070   1.65920   1.66015
 Alpha virt. eigenvalues --    1.66842   1.68167   1.68426   1.69281   1.70232
 Alpha virt. eigenvalues --    1.71178   1.71441   1.71612   1.72613   1.73808
 Alpha virt. eigenvalues --    1.74562   1.75989   1.76292   1.77821   1.78096
 Alpha virt. eigenvalues --    1.79800   1.81167   1.81525   1.82443   1.82567
 Alpha virt. eigenvalues --    1.83392   1.84322   1.85365   1.87041   1.88598
 Alpha virt. eigenvalues --    1.88952   1.89523   1.90103   1.90730   1.91086
 Alpha virt. eigenvalues --    1.93072   1.93367   1.93935   1.95776   1.96719
 Alpha virt. eigenvalues --    1.99060   1.99809   2.00099   2.00714   2.03803
 Alpha virt. eigenvalues --    2.04671   2.07121   2.07187   2.07693   2.08322
 Alpha virt. eigenvalues --    2.09355   2.09971   2.11421   2.12208   2.14024
 Alpha virt. eigenvalues --    2.16020   2.17261   2.18277   2.18591   2.20376
 Alpha virt. eigenvalues --    2.21276   2.21813   2.22792   2.25099   2.26070
 Alpha virt. eigenvalues --    2.28006   2.28830   2.29283   2.30702   2.30972
 Alpha virt. eigenvalues --    2.32184   2.32846   2.34931   2.36650   2.39569
 Alpha virt. eigenvalues --    2.41487   2.41895   2.43185   2.44082   2.44486
 Alpha virt. eigenvalues --    2.47856   2.48759   2.50349   2.52342   2.54758
 Alpha virt. eigenvalues --    2.54923   2.56745   2.58421   2.59413   2.60502
 Alpha virt. eigenvalues --    2.61510   2.61993   2.63237   2.64584   2.65519
 Alpha virt. eigenvalues --    2.66731   2.67029   2.68659   2.69027   2.69552
 Alpha virt. eigenvalues --    2.71392   2.72015   2.72290   2.72640   2.73859
 Alpha virt. eigenvalues --    2.74973   2.77318   2.77908   2.78200   2.78373
 Alpha virt. eigenvalues --    2.79567   2.80657   2.81505   2.81744   2.83573
 Alpha virt. eigenvalues --    2.84594   2.85173   2.85743   2.86879   2.87899
 Alpha virt. eigenvalues --    2.88893   2.89616   2.90278   2.90477   2.91330
 Alpha virt. eigenvalues --    2.91456   2.92152   2.92177   2.93602   2.94361
 Alpha virt. eigenvalues --    2.94479   2.95138   2.95532   2.96445   2.96789
 Alpha virt. eigenvalues --    2.97326   2.98044   2.98709   2.99188   2.99554
 Alpha virt. eigenvalues --    3.00271   3.00481   3.01902   3.02456   3.02955
 Alpha virt. eigenvalues --    3.03477   3.03822   3.04214   3.05005   3.05556
 Alpha virt. eigenvalues --    3.06141   3.06272   3.08278   3.08884   3.09133
 Alpha virt. eigenvalues --    3.09564   3.10389   3.10997   3.11925   3.12464
 Alpha virt. eigenvalues --    3.13196   3.13780   3.14508   3.14906   3.16003
 Alpha virt. eigenvalues --    3.17166   3.17523   3.17869   3.19410   3.19727
 Alpha virt. eigenvalues --    3.20071   3.20731   3.21165   3.22100   3.22324
 Alpha virt. eigenvalues --    3.23227   3.23604   3.24480   3.24991   3.25855
 Alpha virt. eigenvalues --    3.27006   3.27421   3.28391   3.29748   3.30277
 Alpha virt. eigenvalues --    3.30663   3.30964   3.31804   3.32401   3.33412
 Alpha virt. eigenvalues --    3.33613   3.34500   3.34801   3.35385   3.35829
 Alpha virt. eigenvalues --    3.36727   3.37826   3.38256   3.38526   3.40059
 Alpha virt. eigenvalues --    3.40699   3.41614   3.42010   3.43231   3.43339
 Alpha virt. eigenvalues --    3.44641   3.44779   3.45928   3.46077   3.46506
 Alpha virt. eigenvalues --    3.46965   3.47504   3.47920   3.49312   3.49613
 Alpha virt. eigenvalues --    3.50302   3.50439   3.50734   3.51030   3.51691
 Alpha virt. eigenvalues --    3.53207   3.54310   3.54806   3.55059   3.56085
 Alpha virt. eigenvalues --    3.56667   3.56937   3.57631   3.58314   3.58646
 Alpha virt. eigenvalues --    3.59353   3.60367   3.60690   3.61789   3.62414
 Alpha virt. eigenvalues --    3.63565   3.64180   3.65318   3.65736   3.66183
 Alpha virt. eigenvalues --    3.66423   3.67631   3.68376   3.68923   3.69722
 Alpha virt. eigenvalues --    3.70277   3.71944   3.72428   3.73022   3.73314
 Alpha virt. eigenvalues --    3.73684   3.74085   3.74886   3.75575   3.75998
 Alpha virt. eigenvalues --    3.77359   3.77643   3.79243   3.79740   3.80399
 Alpha virt. eigenvalues --    3.81101   3.81807   3.82480   3.83384   3.84053
 Alpha virt. eigenvalues --    3.84365   3.84620   3.85755   3.86659   3.87356
 Alpha virt. eigenvalues --    3.87959   3.88451   3.88895   3.90237   3.91741
 Alpha virt. eigenvalues --    3.92846   3.93283   3.93536   3.94047   3.95227
 Alpha virt. eigenvalues --    3.95917   3.96456   3.96646   3.97958   3.99802
 Alpha virt. eigenvalues --    4.00116   4.00911   4.01620   4.02445   4.02986
 Alpha virt. eigenvalues --    4.03560   4.05282   4.05483   4.06762   4.07458
 Alpha virt. eigenvalues --    4.08051   4.08854   4.09372   4.10130   4.10754
 Alpha virt. eigenvalues --    4.11157   4.12176   4.13176   4.13937   4.14169
 Alpha virt. eigenvalues --    4.15600   4.16147   4.16657   4.17549   4.18136
 Alpha virt. eigenvalues --    4.18664   4.19170   4.19372   4.19962   4.21043
 Alpha virt. eigenvalues --    4.21348   4.21597   4.22248   4.22312   4.23093
 Alpha virt. eigenvalues --    4.23526   4.24285   4.24740   4.25024   4.25590
 Alpha virt. eigenvalues --    4.25817   4.27524   4.27734   4.28185   4.28995
 Alpha virt. eigenvalues --    4.29569   4.29875   4.30061   4.31312   4.32426
 Alpha virt. eigenvalues --    4.33591   4.34352   4.34398   4.34842   4.35122
 Alpha virt. eigenvalues --    4.35772   4.36011   4.37500   4.38605   4.38897
 Alpha virt. eigenvalues --    4.39020   4.40486   4.40928   4.42304   4.43339
 Alpha virt. eigenvalues --    4.43717   4.44047   4.44654   4.45887   4.46367
 Alpha virt. eigenvalues --    4.46915   4.47726   4.48647   4.49840   4.49998
 Alpha virt. eigenvalues --    4.50746   4.51504   4.52137   4.52704   4.53245
 Alpha virt. eigenvalues --    4.53838   4.54839   4.55987   4.58055   4.60576
 Alpha virt. eigenvalues --    4.61445   4.62700   4.63663   4.64178   4.67753
 Alpha virt. eigenvalues --    4.68645   4.69276   4.69653   4.71376   4.72411
 Alpha virt. eigenvalues --    4.72837   4.73782   4.75060   4.75906   4.76311
 Alpha virt. eigenvalues --    4.78231   4.78644   4.79407   4.79566   4.80042
 Alpha virt. eigenvalues --    4.81082   4.82107   4.83244   4.84986   4.86790
 Alpha virt. eigenvalues --    4.87066   4.88201   4.90161   4.90747   4.91725
 Alpha virt. eigenvalues --    4.91779   4.93064   4.94060   4.95615   4.97831
 Alpha virt. eigenvalues --    4.99705   5.01532   5.02386   5.03029   5.04419
 Alpha virt. eigenvalues --    5.04771   5.06144   5.06712   5.07248   5.08611
 Alpha virt. eigenvalues --    5.09381   5.10263   5.10785   5.11967   5.13638
 Alpha virt. eigenvalues --    5.14793   5.15062   5.15480   5.15729   5.17194
 Alpha virt. eigenvalues --    5.17934   5.18913   5.20139   5.20336   5.20842
 Alpha virt. eigenvalues --    5.21571   5.22562   5.23250   5.23945   5.24716
 Alpha virt. eigenvalues --    5.25376   5.26392   5.27138   5.27941   5.28713
 Alpha virt. eigenvalues --    5.29074   5.30325   5.30494   5.31468   5.31761
 Alpha virt. eigenvalues --    5.33864   5.34539   5.34985   5.35975   5.36495
 Alpha virt. eigenvalues --    5.37034   5.39372   5.40207   5.40945   5.42439
 Alpha virt. eigenvalues --    5.42638   5.43534   5.44596   5.45705   5.47539
 Alpha virt. eigenvalues --    5.48158   5.48359   5.48763   5.49651   5.50548
 Alpha virt. eigenvalues --    5.51451   5.52612   5.53116   5.54225   5.54567
 Alpha virt. eigenvalues --    5.58150   5.59737   5.60675   5.62005   5.63819
 Alpha virt. eigenvalues --    5.64423   5.65309   5.66026   5.66453   5.66747
 Alpha virt. eigenvalues --    5.67932   5.70810   5.71020   5.71894   5.73395
 Alpha virt. eigenvalues --    5.74690   5.76064   5.77113   5.77327   5.78328
 Alpha virt. eigenvalues --    5.78708   5.79567   5.79854   5.81187   5.82758
 Alpha virt. eigenvalues --    5.84093   5.92411   5.96301   5.99745   6.06316
 Alpha virt. eigenvalues --    6.06654   6.07989   6.10094   6.10461   6.11812
 Alpha virt. eigenvalues --    6.17027   6.17508   6.25033   6.29391   6.29673
 Alpha virt. eigenvalues --    6.30752   6.34267   6.39495   6.64013   6.66406
 Alpha virt. eigenvalues --    6.81658   6.81713   6.95276   7.26769   7.34282
 Alpha virt. eigenvalues --    7.55146  22.88073  23.06240  23.27904  23.38250
 Alpha virt. eigenvalues --   23.40991  23.47470  23.58180  23.69224  23.73391
 Alpha virt. eigenvalues --   23.75166  23.83570  23.83940  31.12330  32.84658
 Alpha virt. eigenvalues --   32.93801  33.03491  44.11710 102.27821
          Condensed to atoms (all electrons):
               1          2          3          4          5          6
     1  C    5.139226  -0.050520   0.409255  -0.037653  -0.013951   0.002499
     2  C   -0.050520   5.037383  -0.040559   0.553219  -0.044140   0.000338
     3  C    0.409255  -0.040559   5.196288   0.007907   0.424587   0.407945
     4  C   -0.037653   0.553219   0.007907   4.933043   0.461210   0.001731
     5  C   -0.013951  -0.044140   0.424587   0.461210   4.612008  -0.037555
     6  H    0.002499   0.000338   0.407945   0.001731  -0.037555   0.513339
     7  H   -0.002241  -0.019313   0.009954   0.420127  -0.037295  -0.000129
     8  O    0.007176   0.000868  -0.072812  -0.049090   0.375491  -0.001586
     9  N    0.364360   0.351100  -0.089815  -0.078495  -0.001648   0.003118
    10  C    0.224189  -0.001681  -0.059260  -0.001336   0.006206  -0.006063
    11  H   -0.024254   0.000544  -0.000863   0.000384  -0.000389   0.000226
    12  H   -0.052910  -0.000308  -0.003441  -0.000342   0.000950   0.000591
    13  C   -0.000635   0.241671  -0.003387  -0.070880   0.011550   0.000008
    14  H    0.000461  -0.025181   0.000536   0.000143  -0.000610   0.000001
    15  H   -0.000328  -0.053486  -0.000333  -0.002433   0.000858  -0.000003
    16  N   -0.006711   0.002528   0.005757   0.000044  -0.000433   0.000208
    17  N    0.002514  -0.010819   0.000268   0.006114  -0.000811   0.000000
    18  C    0.001964   0.001921   0.000016  -0.000013   0.000010   0.000005
    19  H   -0.000072  -0.000065   0.000088   0.000086  -0.000013   0.000001
    20  H   -0.000171  -0.000048  -0.000013  -0.000005   0.000000  -0.000000
    21  H   -0.000049  -0.000169  -0.000006  -0.000013   0.000001  -0.000000
    22  C    0.010633  -0.000174  -0.000057   0.000040  -0.000022  -0.000020
    23  H   -0.000487   0.000003   0.000033   0.000002  -0.000001   0.000000
    24  H    0.001480   0.000005  -0.000000  -0.000002   0.000001   0.000012
    25  H   -0.002200  -0.000009  -0.000202  -0.000007   0.000007  -0.000005
    26  C    0.003519  -0.000592   0.001233   0.000002  -0.000084  -0.000266
    27  H   -0.004376  -0.000018  -0.000723  -0.000008  -0.000007   0.000036
    28  H    0.000108   0.000011   0.000153   0.000016  -0.000000  -0.000003
    29  H    0.013533  -0.000373   0.001449   0.000010  -0.000279   0.000242
    30  C   -0.000147   0.011334   0.000015  -0.000263   0.000026   0.000000
    31  H    0.000005   0.001433  -0.000002  -0.000018   0.000001  -0.000000
    32  H    0.000001  -0.000520   0.000002   0.000034  -0.000002   0.000000
    33  H   -0.000009  -0.002025  -0.000010  -0.000190   0.000010  -0.000000
    34  C   -0.000476   0.003855  -0.000248   0.001336   0.000062   0.000003
    35  H    0.000009   0.000053   0.000019   0.000101   0.000000   0.000000
    36  H   -0.000017  -0.004377  -0.000004  -0.000613  -0.000010  -0.000000
    37  H   -0.000284   0.012788  -0.000047   0.001790  -0.000242   0.000004
    38  H    0.000687   0.000660   0.000072   0.000054  -0.000002   0.000001
    39  Rh  -0.043308  -0.042593   0.005619   0.005410  -0.001557  -0.000608
    40  H    0.011195  -0.001000  -0.027787   0.001928  -0.052826   0.007970
               7          8          9         10         11         12
     1  C   -0.002241   0.007176   0.364360   0.224189  -0.024254  -0.052910
     2  C   -0.019313   0.000868   0.351100  -0.001681   0.000544  -0.000308
     3  C    0.009954  -0.072812  -0.089815  -0.059260  -0.000863  -0.003441
     4  C    0.420127  -0.049090  -0.078495  -0.001336   0.000384  -0.000342
     5  C   -0.037295   0.375491  -0.001648   0.006206  -0.000389   0.000950
     6  H   -0.000129  -0.001586   0.003118  -0.006063   0.000226   0.000591
     7  H    0.498601   0.003733   0.003083   0.000065   0.000001  -0.000004
     8  O    0.003733   7.616121   0.000459  -0.000315   0.000003   0.000010
     9  N    0.003083   0.000459   6.645789  -0.007518  -0.004910   0.003708
    10  C    0.000065  -0.000315  -0.007518   4.910947   0.423957   0.453315
    11  H    0.000001   0.000003  -0.004910   0.423957   0.514415  -0.012620
    12  H   -0.000004   0.000010   0.003708   0.453315  -0.012620   0.523358
    13  C   -0.005958  -0.000061  -0.009554  -0.001168  -0.000181   0.000086
    14  H    0.000312   0.000004  -0.004775  -0.000185  -0.000011  -0.000004
    15  H    0.000283  -0.000005   0.003564   0.000086  -0.000004  -0.000000
    16  N   -0.000001   0.000003  -0.043603   0.243977  -0.026946  -0.028728
    17  N    0.000263   0.000001  -0.043021   0.000637  -0.000013  -0.000033
    18  C    0.000005  -0.000000  -0.013549   0.000498  -0.000129   0.000023
    19  H    0.000001  -0.000000   0.000080  -0.000455   0.000021  -0.000007
    20  H   -0.000000   0.000000   0.000294   0.000128  -0.000007   0.000008
    21  H   -0.000000   0.000000   0.000298   0.000127  -0.000006   0.000001
    22  C    0.000000  -0.000000  -0.000060  -0.042549  -0.004495  -0.004943
    23  H    0.000000   0.000000  -0.000026   0.007092   0.000340  -0.000377
    24  H   -0.000000   0.000000  -0.000045  -0.009873  -0.002368   0.005018
    25  H    0.000000  -0.000000   0.000101  -0.004405   0.001546  -0.000124
    26  C    0.000003  -0.000002  -0.004378  -0.029564   0.004468  -0.015759
    27  H   -0.000000   0.000000   0.000319  -0.005860   0.000046   0.006103
    28  H    0.000000  -0.000000  -0.000246   0.005175  -0.000096  -0.000075
    29  H    0.000003  -0.000003  -0.002931  -0.015387   0.000140  -0.001938
    30  C   -0.000028  -0.000000  -0.000059  -0.000084   0.000004   0.000000
    31  H    0.000012  -0.000000  -0.000041   0.000003  -0.000000  -0.000000
    32  H    0.000000   0.000000  -0.000018  -0.000006  -0.000000   0.000000
    33  H   -0.000006  -0.000000   0.000082   0.000012  -0.000001   0.000000
    34  C   -0.000281  -0.000004  -0.004477   0.000075   0.000003   0.000009
    35  H   -0.000003  -0.000000  -0.000226  -0.000007   0.000000   0.000000
    36  H    0.000036   0.000000   0.000313   0.000001  -0.000000  -0.000000
    37  H    0.000232  -0.000003  -0.002999   0.000090   0.000002  -0.000005
    38  H    0.000001  -0.000000  -0.006520  -0.001580  -0.000346   0.000058
    39  Rh  -0.000603   0.000176   0.214050  -0.035247  -0.002437   0.007894
    40  H   -0.000898   0.328990   0.000191  -0.000508   0.000004   0.000022
              13         14         15         16         17         18
     1  C   -0.000635   0.000461  -0.000328  -0.006711   0.002514   0.001964
     2  C    0.241671  -0.025181  -0.053486   0.002528  -0.010819   0.001921
     3  C   -0.003387   0.000536  -0.000333   0.005757   0.000268   0.000016
     4  C   -0.070880   0.000143  -0.002433   0.000044   0.006114  -0.000013
     5  C    0.011550  -0.000610   0.000858  -0.000433  -0.000811   0.000010
     6  H    0.000008   0.000001  -0.000003   0.000208   0.000000   0.000005
     7  H   -0.005958   0.000312   0.000283  -0.000001   0.000263   0.000005
     8  O   -0.000061   0.000004  -0.000005   0.000003   0.000001  -0.000000
     9  N   -0.009554  -0.004775   0.003564  -0.043603  -0.043021  -0.013549
    10  C   -0.001168  -0.000185   0.000086   0.243977   0.000637   0.000498
    11  H   -0.000181  -0.000011  -0.000004  -0.026946  -0.000013  -0.000129
    12  H    0.000086  -0.000004  -0.000000  -0.028728  -0.000033   0.000023
    13  C    4.893245   0.424245   0.453189   0.000625   0.247672   0.000583
    14  H    0.424245   0.514874  -0.012722  -0.000019  -0.027140  -0.000132
    15  H    0.453189  -0.012722   0.522934  -0.000032  -0.028795   0.000024
    16  N    0.000625  -0.000019  -0.000032   6.362510  -0.006978  -0.005749
    17  N    0.247672  -0.027140  -0.028795  -0.006978   6.361613  -0.005715
    18  C    0.000583  -0.000132   0.000024  -0.005749  -0.005715   5.128849
    19  H   -0.000450   0.000021  -0.000007  -0.001704  -0.001711   0.410537
    20  H    0.000124  -0.000006   0.000001   0.000906   0.000529   0.419166
    21  H    0.000121  -0.000007   0.000008   0.000529   0.000919   0.419177
    22  C   -0.000079   0.000005   0.000000   0.258375   0.000351  -0.008905
    23  H   -0.000007   0.000000   0.000000  -0.027335   0.000044  -0.000617
    24  H    0.000003  -0.000000  -0.000000  -0.021453  -0.000015   0.000259
    25  H    0.000012  -0.000001   0.000000  -0.032823   0.000022   0.000211
    26  C    0.000060   0.000002   0.000009   0.226154   0.001907  -0.009470
    27  H    0.000001  -0.000000  -0.000000  -0.023468  -0.000029   0.000313
    28  H   -0.000006   0.000000   0.000000  -0.026500   0.000049  -0.000229
    29  H    0.000089   0.000002  -0.000005  -0.031820   0.000182  -0.000237
    30  C   -0.043305  -0.004495  -0.004930   0.000349   0.258880  -0.008924
    31  H   -0.009689  -0.002389   0.005030  -0.000015  -0.021608   0.000259
    32  H    0.007145   0.000354  -0.000379   0.000044  -0.027320  -0.000622
    33  H   -0.004705   0.001536  -0.000125   0.000022  -0.032740   0.000203
    34  C   -0.029178   0.004427  -0.015534   0.001919   0.225846  -0.009462
    35  H    0.005315  -0.000099  -0.000063   0.000049  -0.026399  -0.000256
    36  H   -0.005967   0.000047   0.006057  -0.000029  -0.023435   0.000311
    37  H   -0.015313   0.000137  -0.001952   0.000184  -0.031814  -0.000231
    38  H   -0.001494  -0.000333   0.000057  -0.002457  -0.002449   0.045668
    39  Rh  -0.035307  -0.002157   0.007807   0.208403   0.208417   0.169890
    40  H    0.000031  -0.000001  -0.000000   0.000007  -0.000001   0.000000
              19         20         21         22         23         24
     1  C   -0.000072  -0.000171  -0.000049   0.010633  -0.000487   0.001480
     2  C   -0.000065  -0.000048  -0.000169  -0.000174   0.000003   0.000005
[...]
 .00633928,-0.00008507,0.00009864,-0.00002075,-0.00001587,0.00001712,-0
 .00001646,0.00006889,-0.00002746,-0.00000217,0.00006301,0.00003747,0.0
 0001240,-0.00014765,0.00006933,-0.00009587,0.00000961,0.00000948,0.000
 00005,0.00001485,-0.00006065,0.00001524,0.00000589,0.00001595,0.000011
 17,-0.00007816,-0.00017167,0.00010214,-0.00000358,-0.00006947,-0.00006
 475,-0.00000471,0.00002590,0.00000049,0.00002842,0.00000116,0.00001472
 ,-0.00072317,0.00192486,-0.00090314,0.00087706,0.00000530,0.00029069,0
 .00005579,-0.00015531,0.00003856,-0.00003024,0.00024598,-0.00000661,0.
 06473901,-0.28889145,0.03070692,-0.00008038,-0.00325444,0.00003572,-0.
 07197036,0.31096289,0.00003781,0.00006294,-0.00001815,0.00032309,-0.00
 014825,-0.00001628,0.00001635,-0.00005213,-0.00000443,0.00005771,0.000
 04265,0.00002056,-0.00001755,0.00000433,0.00001311,0.00000501,0.000002
 54,-0.00000110,0.00001347,0.00000354,-0.00000058,0.00006093,-0.0000008
 2,0.00000479,-0.00035185,-0.00012435,0.00012546,-0.00021283,-0.0000088
 6,0.00012852,0.00000899,-0.00000759,-0.00001375,0.00006192,0.00002618,
 -0.00001156,-0.00325944,0.00220708,0.00105945,-0.00011808,-0.00026446,
 0.00027637,0.00070801,-0.00106298,0.00025199,0.00010012,0.00077021,0.0
 0070711,-0.00939248,0.03692392,-0.01802763,0.00014028,-0.00041365,-0.0
 0008522,-0.00016033,0.00006538,0.00016645,-0.00002294,0.00003293,0.000
 07040,-0.00016144,0.00004821,0.00003249,0.00017962,-0.00007767,0.00012
 894,-0.00001623,-0.00000240,-0.00000076,-0.00002976,0.00007053,-0.0000
 2418,-0.00000876,-0.00001425,-0.00002046,0.00004109,0.00024745,-0.0002
 2945,0.00002543,0.00006551,0.00012783,-0.00001159,0.00001071,-0.000001
 85,0.00002361,0.00000420,0.00000449,0.00111847,0.00304228,0.00177146,0
 .00038277,-0.00124469,-0.00004706,-0.00006975,-0.00025008,-0.00010856,
 0.00021854,-0.00039873,0.00024392,-0.00649550,0.02503854,-0.05244186,0
 .00185139,-0.01213625,0.00255036,0.00991066,-0.03849175,0.06404598,0.0
 0019197,0.00016567,0.00003450,0.00006394,-0.00065160,0.00020442,-0.000
 14639,0.00008707,-0.00001797,0.00013114,0.00021160,-0.00002073,-0.0000
 8088,-0.00025645,0.00001133,-0.00000105,0.00000678,-0.00000575,-0.0000
 0669,0.00000289,-0.00000324,0.00007035,0.00004468,0.00000621,-0.000488
 01,0.00014544,0.00033069,0.00002939,0.00000950,-0.00001564,-0.00001219
 ,0.00000693,0.00000433,0.00000044,0.00000459,-0.00000708,0.00038113,0.
 00053849,0.00045764,0.00006899,0.00005209,-0.00015077,0.00004522,0.000
 08086,-0.00002010,-0.00000138,0.00011062,-0.00002660,-0.00051910,0.001
 10710,0.00065035,0.00003639,-0.00005057,-0.00017617,-0.00000700,-0.000
 04354,0.00005294,0.00001413,0.00007266,0.00001761,0.00009314,0.0000171
 3,0.00006990,-0.00000702,0.00001483,0.00002020,-0.00000539,-0.00000196
 ,-0.00000281,-0.00000226,0.00000182,-0.00000706,0.00000038,0.00000225,
 -0.00000151,-0.00004875,0.00000933,-0.00007557,0.00001568,-0.00002871,
 0.00002412,-0.00002446,0.00003402,-0.00000898,0.00013626,0.00001783,0.
 00000444,0.00054027,0.00059679,-0.00018625,-0.00003807,-0.00016377,-0.
 00000239,0.00051702,0.00007374,0.00004354,0.00036017,-0.00032064,-0.00
 015442,-0.17523707,-0.11066021,-0.07876856,-0.01603607,-0.01747074,-0.
 01264491,0.00655905,0.00587359,0.00459045,0.18433211,-0.00004135,-0.00
 004655,-0.00002545,-0.00032892,0.00006921,-0.00003109,0.00002836,-0.00
 003613,0.00000552,0.00006404,-0.00001360,0.00004367,-0.00003243,0.0000
 2316,-0.00000867,0.00000666,0.00000052,-0.00000216,0.00002244,-0.00000
 494,-0.00002996,0.00005294,-0.00000636,0.00001610,-0.00030601,-0.00096
 512,0.00167241,-0.00003955,-0.00000026,0.00001065,0.00000303,-0.000000
 24,-0.00000145,0.00000847,0.00000533,-0.00000217,-0.00021782,0.0002961
 8,-0.00039233,0.00015801,-0.00010360,0.00002097,-0.00011137,-0.0003386
 9,0.00006891,-0.00002836,0.00019123,-0.00003996,0.00774766,0.00548766,
 0.00424113,-0.00004736,-0.00000290,0.00002620,-0.00000870,0.00001459,-
 0.00003592,-0.00000942,0.00000874,-0.00002234,-0.00004155,-0.00000540,
 0.00001720,0.00002909,0.00001367,0.00001378,-0.00000236,-0.00000326,-0
 .00000045,-0.00000974,0.00001533,-0.00000618,-0.00000241,-0.00000025,-
 0.00000360,0.00000299,-0.00004255,-0.00005545,0.00000086,0.00000316,-0
 .00000569,-0.00000782,0.00000194,-0.00000150,-0.00003700,-0.00011395,-
 0.00001351,0.00003215,0.00036967,0.00097317,0.00012189,0.00042594,0.00
 036853,-0.00004426,-0.00016250,0.00009452,0.00004937,0.00051220,0.0002
 5760,-0.11091554,-0.14953735,-0.06811018,0.00482440,0.00402463,0.00366
 391,-0.02135605,-0.01601005,-0.01269087,0.11910942,0.15821472,0.000041
 52,0.00020534,-0.00003971,0.00075173,0.00017687,-0.00074304,-0.0000485
 2,-0.00006472,-0.00003211,0.00003504,-0.00003651,0.00005165,0.00026954
 ,0.00009290,0.00000298,-0.00001147,-0.00000755,0.00000225,-0.00000946,
 0.00000009,0.00000693,-0.00021128,-0.00002572,-0.00001932,0.00013194,0
 .00033118,-0.00037196,-0.00006079,0.00003671,0.00005568,0.00002094,-0.
 00001079,-0.00000614,0.00002236,-0.00000799,-0.00000817,-0.00141384,-0
 .00064534,0.00092782,-0.00011459,0.00005679,0.00018106,0.00021358,-0.0
 0008335,-0.00010511,0.00003545,0.00026461,-0.00008012,-0.02566575,-0.0
 2050953,-0.01962575,-0.00001508,-0.00002229,-0.00011998,0.00004614,0.0
 0004270,-0.00001978,0.00001434,0.00000304,0.00001119,0.00004976,-0.000
 01025,0.00000158,0.00002416,0.00002687,0.00000073,0.00000207,0.0000002
 0,0.00000175,-0.00001147,0.00000908,-0.00000766,-0.00000476,0.00000372
 ,-0.00000842,0.00000262,-0.00004124,-0.00003193,0.00000576,-0.00001326
 ,0.00000343,-0.00000175,0.00000056,0.00000620,0.00000207,0.00001524,0.
 00008853,0.00162106,0.00283088,-0.00606668,0.00013308,-0.00009444,0.00
 003203,-0.00004360,0.00016314,0.00022228,-0.00134791,-0.00127728,-0.00
 085792,-0.07127952,-0.06191491,-0.09685770,0.00799144,0.00880614,0.006
 93161,0.00331362,0.00205626,0.00270413,0.08687683,0.06922262,0.1140716
 0,0.00086363,0.00109951,0.00042086,0.00085462,-0.00107452,0.00039598,-
 0.00024633,0.00025777,0.00013946,-0.00023100,-0.00025402,0.00013462,0.
 00036979,-0.00002028,-0.00001177,0.00000628,-0.00001845,-0.00000668,0.
 00000917,0.00001858,-0.00000736,-0.00040652,-0.00002282,-0.00004524,-0
 .00167316,-0.00002944,-0.00375901,0.00007977,-0.00014516,-0.00028379,0
 .00004571,-0.00009087,-0.00001079,-0.00001912,0.00002307,0.00000677,0.
 00008334,0.00013564,-0.00028557,0.00003015,0.00011121,-0.00001104,-0.0
 0001725,-0.00002530,0.00001053,-0.00018897,-0.00025913,-0.00049510,-0.
 00019717,0.00020788,-0.00055005,0.00038287,-0.00001355,0.00640425,0.00
 037370,0.00000547,-0.00047575,0.00064205,-0.00049406,-0.00045867,0.000
 64160,0.00051111,-0.00045334,-0.00004707,0.00006707,-0.00014776,0.0000
 1170,0.00000384,0.00003344,0.00002057,-0.00002103,0.00008218,0.0000339
 8,-0.00001138,0.00013000,-0.00040649,-0.00027105,0.00006108,0.00020173
 ,-0.00001761,-0.00008611,0.00018516,-0.00002802,0.00000866,0.00004272,
 -0.00008299,0.00022627,-0.00004258,-0.00005313,-0.00014450,0.00001834,
 0.00001781,0.00008118,0.00001234,-0.00000946,0.00003625,0.00003664,0.0
 0001630,0.00013470,-0.00046544,0.00029290,0.00004019,0.00018132,0.0000
 2844,0.00000882,0.00020449,0.00002702,-0.00008566,0.00005699,0.0000899
 9,0.00022542,0.02546382,-0.00000828,-0.00005357,-0.00008977,0.00001349
 ,-0.00006952,0.00009293,0.00016993,-0.00005898,0.00003633,-0.00017047,
 -0.00006496,-0.00003745,0.00000463,0.00018568,0.00000134,-0.00000204,0
 .00000101,0.00000230,0.00000219,0.00000114,-0.00000110,-0.00000469,-0.
 00001941,0.00000214,-0.00001564,0.00020759,-0.00002410,-0.00011919,0.0
 0048879,0.00011367,-0.00000723,0.00003696,0.00007582,0.00021286,0.0000
 9381,0.00000069,0.00009984,0.00049966,-0.00012091,0.00001363,0.0000391
 1,-0.00007524,-0.00021447,0.00009238,0.00000291,-0.00149195,0.00427286
 ,-0.00727632,0.00147683,0.00428796,0.00730688,0.00006445,-0.00057764,0
 .00005776,-0.00000038,0.00003678,-0.00000692,0.00013482,0.00022564,-0.
 00037576,-0.00014853,0.00023212,0.00037719,0.00043133,0.00029111,0.000
 29804,-0.00002640,0.00007176,0.00007334,-0.00017629,0.00034599,-0.0001
 8742,0.00010589,-0.00035276,-0.00014274,-0.00041575,-0.00094269,0.0000
 1496,0.00010194,-0.00045010,-0.00008348,-0.00016868,0.00012854,0.00019
 203,0.00034200,-0.00016681,0.00041376,-0.00043311,0.00028944,-0.000293
 49,0.00017256,0.00034707,0.00018835,0.00002816,0.00006809,-0.00006909,
 -0.00009177,-0.00032126,0.00014388,0.00038976,-0.00096338,-0.00001803,
 0.00016785,0.00013244,-0.00019465,-0.00009451,-0.00045088,0.00008748,-
 0.00034425,-0.00017554,-0.00040550,-0.00003866,0.01387609,-0.00035216,
 -0.00035454,-0.00013300,-0.00035692,0.00034405,-0.00013064,0.00004224,
 -0.00008776,-0.00006034,0.00003781,0.00008614,-0.00005838,-0.00004256,
 0.00001032,-0.00001116,-0.00001236,0.00000082,-0.00001327,-0.00001066,
 -0.00000200,-0.00001281,0.00004762,0.00000314,0.00002231,0.00106501,0.
 00000842,0.00174096,0.00025329,-0.00032125,-0.00035675,-0.00008907,-0.
 00005974,0.00005082,-0.00015900,-0.00007069,0.00007666,0.00024462,0.00
 032166,-0.00037612,-0.00008897,0.00005747,0.00005143,-0.00016177,0.000
 07123,0.00008108,-0.00004859,-0.00076771,0.00023315,-0.00004425,0.0007
 8753,0.00023726,-0.00017372,0.00001759,-0.00304551,0.00165337,0.000003
 88,0.00077023,0.00073323,-0.00021664,-0.00014757,0.00072879,0.00022651
 ,-0.00012566,-0.00044597,0.00002813,-0.00063002,-0.00001026,0.00005405
 ,-0.00001968,0.00012360,-0.00014964,0.00025791,0.00004660,-0.00019425,
 0.00027789,-0.00007878,-0.00038502,-0.00012235,-0.00007756,-0.00016610
 ,0.00000040,-0.00015172,0.00015081,0.00004110,0.00018240,-0.00005526,-
 0.00000415,-0.00045870,-0.00002845,-0.00063138,0.00012378,0.00015253,0
 .00025559,-0.00001023,-0.00005267,-0.00001666,0.00005587,0.00018388,0.
 00027765,-0.00004349,0.00038813,-0.00010056,-0.00014817,-0.00015315,0.
 00004147,-0.00007920,0.00016256,-0.00000083,0.00017787,0.00005840,-0.0
 0000821,0.05286529,-0.00013864,0.17525956,-0.01424407,-0.01817627,0.00
 258695,-0.01446093,0.01788135,0.00269190,0.00261832,0.00177309,0.00063
 138,0.00263954,-0.00166351,0.00059300,-0.00288964,-0.00013428,-0.00030
 712,0.00081414,0.00017520,0.00003496,0.00071707,-0.00013223,0.00001060
 ,0.00183634,0.00008280,0.00021688,-0.07351413,0.00008839,0.01008386,-0
 .00612202,-0.01251559,-0.00174024,-0.00003370,0.00042859,0.00016357,-0
 .00251620,0.00023697,0.00148152,-0.00623112,0.01271003,-0.00163412,-0.
 00001976,-0.00041662,0.00014313,-0.00250881,-0.00027465,0.00148441,-0.
 03637573,0.01252249,0.00204373,-0.03637820,-0.01225333,0.00209691,-0.0
 9759923,-0.00008755,0.00497439,0.00074538,-0.00003271,0.00504695,-0.00
 860511,0.00137596,0.00264373,-0.00843299,-0.00153136,0.00261770,0.0049
 7710,0.00874350,0.00183402,-0.00070738,0.00094905,0.00023980,-0.001890
 08,0.00221081,-0.00103129,0.00012032,0.00030600,-0.00013866,0.00203471
 ,0.00059525,-0.00117476,-0.00018122,0.00041309,0.00055923,-0.00044261,
 0.00126976,0.00098777,-0.00090783,-0.00095928,-0.00174055,0.00511050,-
 0.00865830,0.00182920,-0.00188460,-0.00223983,-0.00102795,-0.00068268,
 -0.00099165,0.00023016,0.00011298,-0.00031359,-0.00015137,0.00244707,-
 0.00052725,-0.00075696,-0.00041135,-0.00125385,0.00097971,-0.00017886,
 -0.00043302,0.00054131,-0.00098024,0.00123696,-0.00161472,-0.02694032,
 0.00004207,-0.05534105,0.32126967,-0.01392538,0.00156924,0.00050804,0.
 01379661,0.00200988,-0.00049060,0.00008025,-0.00408934,-0.00028721,-0.
 00001359,-0.00416552,0.00026083,0.00000068,0.00121606,-0.00000365,-0.0
 0067122,0.00016101,-0.00023905,0.00064680,0.00017856,0.00024046,0.0000
 4469,-0.00033528,0.00001193,0.00031472,-0.03590573,-0.00060771,-0.0143
 0101,-0.00699896,0.00547480,0.00078082,0.00000022,-0.00057809,0.001907
 19,0.00087376,0.00008824,0.01417597,-0.00692897,-0.00553022,-0.0007716
 2,-0.00002490,0.00059069,-0.00191880,0.00086320,-0.00004819,0.00593198
 ,-0.04849816,0.00715912,-0.00555718,-0.04923070,-0.00720718,-0.0002037
 3,-0.06639995,-0.00003475,-0.00023293,0.00022453,0.00005523,0.01772367
 ,0.00473079,-0.00779820,-0.01767919,0.00441492,0.00782879,0.00484682,-
 0.01215980,0.00333956,-0.00094965,0.00039064,-0.00030689,-0.00047125,0
 .00108917,-0.00028078,-0.00091350,0.00030389,-0.00130308,0.00212513,-0
 .00319086,-0.01073733,-0.00017313,0.00264610,0.00136698,0.00012848,-0.
 00110884,0.00042580,-0.00172395,-0.00253523,-0.00107470,-0.00468447,-0
 .01229461,-0.00331625,0.00044447,0.00106378,0.00026493,0.00093044,0.00
 043107,0.00031666,0.00092204,0.00030792,0.00130461,-0.00182185,-0.0023
 1934,0.01064470,-0.00012779,-0.00112189,-0.00042232,0.00012839,0.00263
 622,-0.00136251,0.00160170,-0.00210638,0.00081016,0.00002815,-0.021584
 90,0.00009545,-0.00037193,0.25589058,0.00157277,0.00575834,0.00365739,
 0.00167635,-0.00570651,0.00357249,-0.00104531,-0.00097857,0.00300538,-
 0.00102250,0.00094032,0.00290728,0.00099893,0.00002287,-0.00054868,-0.
 00037863,-0.00004144,0.00013977,-0.00033607,0.00002463,0.00011899,-0.0
 0070332,-0.00002454,-0.00022437,0.00514947,-0.00031400,-0.03877187,0.0
 0246965,0.00556177,-0.00020190,-0.00030920,0.00025010,0.00001906,0.001
 49627,0.00001531,-0.00028822,0.00254558,-0.00571226,-0.00011492,-0.000
 28738,-0.00026105,0.00002718,0.00150778,-0.00001322,-0.00029481,0.0023
 4157,-0.00057590,-0.03820385,0.00231824,0.00058694,-0.03834777,0.01701
 906,-0.00003788,-0.04664494,0.01622258,0.00006467,-0.00469425,-0.00540
 417,-0.00122140,0.00285243,-0.00567481,0.00117583,0.00295975,0.0011100
 2,0.00617327,0.00046258,0.00016234,-0.00035094,0.00008618,-0.00080757,
 0.00111710,-0.00010624,0.00018322,0.00087125,0.00007716,-0.00213365,-0
 .01457442,-0.00268378,-0.00051961,-0.00117678,-0.00337777,0.00038369,-
 0.00158530,-0.00031582,-0.00138334,-0.00117844,-0.00057104,0.00115552,
 -0.00613872,0.00043147,-0.00079373,-0.00111937,-0.00009246,0.00015181,
 0.00036644,0.00008260,0.00019148,-0.00087548,0.00008081,-0.00232949,0.
 01455597,-0.00197758,0.00036592,0.00157718,-0.00030789,-0.00054707,0.0
 0117403,-0.00337652,-0.00127559,0.00070997,-0.00029533,-0.05412331,0.0
 0006201,-0.17366224,0.01994197,0.00085025,0.33463270,-0.00124406,-0.00
 103571,-0.00010837,-0.00013061,-0.00213234,-0.00034471,0.00417680,-0.0
 0181330,0.00089024,-0.00525095,0.00295266,-0.00078242,-0.02985082,-0.0
 4680494,-0.00253403,0.00060363,0.00177266,-0.00043568,0.00010380,0.000
 10749,0.00006983,-0.10923966,-0.13857454,-0.00966662,0.00108698,0.0012
 4367,0.00014360,0.00003270,0.00031147,0.00010114,0.00010411,-0.0000489
 9,-0.00001341,0.00001003,0.00000516,-0.00002536,-0.00029513,0.00018665
 ,0.00017746,0.00006422,0.00003343,-0.00003429,0.00003233,0.00004249,-0
 .00000875,0.00015497,-0.00013942,0.00003748,-0.00006746,-0.00000224,-0
 .00004796,0.00005184,-0.00001923,-0.00004184,0.00005306,0.00000014,-0.
 00002949,0.00005229,-0.00001270,-0.00001028,0.00004993,0.00001751,-0.0
 0000600,0.00000633,0.00009125,-0.00012054,0.00003695,-0.00001744,0.000
 00908,-0.00001042,-0.00001774,0.00000553,-0.00000880,0.00000008,0.0000
 0189,0.00003701,0.00005260,0.00008675,-0.00001282,-0.00001790,-0.00000
 131,0.00001785,-0.00000123,-0.00001527,-0.00001589,-0.00000593,0.00003
 032,-0.00005559,-0.00003305,-0.00003005,0.00000008,0.00001805,0.000005
 14,0.00000588,-0.00000657,-0.00000226,-0.00000172,-0.00000095,0.000002
 20,0.00000693,-0.00002601,0.00003804,0.00000903,-0.00000403,-0.0000021
 7,-0.00000467,0.00001786,-0.00000288,-0.00000212,-0.00000069,0.0000240
 4,0.00002892,-0.00000195,0.00000379,-0.00030435,-0.00004684,0.00011054
 ,0.13976938,-0.00063248,-0.00119062,-0.00009083,-0.00104845,0.00018296
 ,-0.00014322,0.00574352,0.00298336,0.00027305,0.00239430,0.00251319,0.
 00015802,0.00092612,0.00244871,-0.00007320,-0.00066499,-0.00105700,0.0
 0037181,0.00016113,0.00034694,0.00002988,-0.19171962,-0.46116682,-0.01
 892428,0.00068637,-0.00005545,0.00018617,0.00005463,0.00010728,0.00002
 677,0.00001344,0.00000852,-0.00000966,0.00002604,-0.00004910,-0.000014
 50,-0.00000925,-0.00003019,0.00003620,0.00001404,-0.00001239,-0.000010
 46,0.00000453,0.00000462,-0.00000713,0.00001188,-0.00006020,0.00000119
 ,0.00002591,0.00003094,0.00000356,0.00002686,0.00001185,-0.00002653,0.
 00004019,0.00000120,-0.00002022,0.00003902,-0.00001074,-0.00000085,0.0
 0004151,0.00000717,-0.00000421,-0.00001778,0.00002945,-0.00004086,0.00
 000928,-0.00000074,0.00000312,0.00000090,-0.00001706,0.00000219,-0.000
 00113,0.00000336,-0.00000006,0.00000181,0.00001723,0.00004354,0.000000
 24,-0.00001880,-0.00000614,0.00000272,0.00000186,-0.00000264,-0.000000
 52,0.00000671,0.00001377,-0.00001790,-0.00002981,-0.00004083,-0.000001
 61,0.00001201,0.00000336,0.00001088,0.00000056,0.00000150,-0.00000212,
 -0.00000151,0.00000118,0.00001081,-0.00001575,0.00004166,0.00000752,-0
 .00000202,-0.00000166,-0.00000600,0.00001048,-0.00000428,-0.00000697,-
 0.00000227,0.00001558,0.00003919,0.00000038,-0.00000918,-0.00007457,-0
 .00000217,0.00002796,0.18391056,0.45499387,-0.00007166,-0.00016783,-0.
 00068533,-0.00006224,-0.00027245,0.00184407,0.00108974,-0.00012863,-0.
 00111955,-0.00087095,0.00029820,0.00358747,-0.00235953,-0.00429555,-0.
 00342143,-0.00046773,0.00033147,-0.00049657,0.00006161,0.00002523,-0.0
 0059661,-0.00994318,-0.01417735,-0.00751494,0.00011555,0.00020022,-0.0
 0002261,-0.00000895,0.00004167,0.00012019,0.00001767,-0.00002362,-0.00
 000813,-0.00000854,-0.00000241,0.00000504,-0.00000082,-0.00000921,-0.0
 0041654,-0.00007834,-0.00007677,-0.00000269,0.00001787,0.00003378,0.00
 001164,0.00001082,-0.00000709,-0.00000452,0.00000706,0.00003464,-0.000
 03008,0.00000486,-0.00000351,0.00000783,0.00000696,0.00000113,-0.00000
 756,0.00000643,0.00000062,-0.00000185,0.00000629,0.00000212,-0.0000014
 8,0.00000809,0.00000442,-0.00000945,0.00000461,-0.00000078,-0.00000005
 ,-0.00000231,-0.00000110,0.00000316,-0.00000469,-0.00000031,-0.0000039
 5,0.00001247,0.00000440,0.00003343,0.00000188,-0.00000703,0.00000054,-
 0.00000056,-0.00000126,-0.00000645,-0.00000026,0.00001299,0.00000035,0
 .00000090,-0.00000197,-0.00001076,-0.00000005,0.00000216,0.00000156,0.
 00000399,0.00000012,0.00000409,-0.00000084,-0.00000021,0.00000117,0.00
 001636,0.00000768,0.00002888,0.00000037,0.00000006,-0.00000376,0.00000
 018,0.00000400,-0.00000359,-0.00000525,-0.00000632,0.00000162,-0.00000
 443,-0.00000320,-0.00000818,-0.00002997,-0.00000850,-0.00001096,0.0125
 2659,0.01819020,0.00873601\\-0.00000244,0.00000081,0.00002473,-0.00000
 776,-0.00000099,0.00002429,0.00000405,0.00000134,0.00003974,0.00000233
 ,-0.00001091,0.00004242,0.00002943,0.00000053,0.00006381,0.00000963,-0
 .00000503,0.00005090,0.00000310,-0.00000204,0.00005141,-0.00002347,-0.
 00000090,0.00006310,0.00003113,-0.00002554,0.00001872,-0.00000605,-0.0
 0000311,0.00001097,0.00003190,0.00000163,0.00000850,0.00000933,0.00000
 012,0.00001677,0.00000214,-0.00000030,0.00000735,0.00002614,-0.0000010
 7,0.00000713,0.00000163,-0.00000197,0.00001536,0.00002216,0.00001525,-
 0.00001486,-0.00000493,0.00000749,-0.00001307,-0.00001067,-0.00002162,
 -0.00002012,-0.00003132,0.00000461,-0.00005110,0.00000483,0.00000700,-
 0.00005658,0.00000644,-0.00000063,-0.00005467,0.00001232,0.00000026,-0
 .00001940,0.00000280,0.00000467,-0.00003478,0.00001212,0.00000161,-0.0
 0001805,0.00002934,-0.00000098,-0.00002147,-0.00003344,-0.00001733,-0.
 00002832,-0.00001863,0.00000165,-0.00000083,-0.00002511,0.00000223,-0.
 00001761,-0.00002427,0.00000282,0.00000443,0.00000871,-0.00000599,-0.0
 0002386,0.00000531,0.00000204,-0.00001900,-0.00000040,-0.00000046,-0.0
 0003666,0.00002248,0.00000379,-0.00002436,-0.00003405,0.00000701,-0.00
 001403,-0.00002915,0.00000066,-0.00002092,-0.00002477,-0.00000137,-0.0
 0000320,-0.00002794,-0.00000304,0.00000204,0.00001820,-0.00000015,-0.0
 0002611,0.00000646,0.00004388,-0.00001661,0.00000244,-0.00000597,0.000
 08393\\\@
 The archive entry for this job was punched.


 MAN IS THE MEASURE OF ALL THINGS.
  -- PROTAGORAS (5TH CENTURY B.C.)
 Job cpu time:       1 days 22 hours  8 minutes 40.3 seconds.
 Elapsed time:       0 days  7 hours 43 minutes 26.5 seconds.
 File lengths (MBytes):  RWF=   2018 Int=      0 D2E=      0 Chk=     72 Scr=      1
 Normal termination of Gaussian 16 at Fri Mar 29 12:28:39 2024.
