 Entering Gaussian System, Link 0=/cm/shared/apps//g16/g16
 Input=HZRhMe.gjf
 Output=HZRhMe.log
 Initial command:
 /cm/shared/apps//g16/l1.exe "/local/mvanvleet/pbs.15219.josephine/Gau-4136306.inp" -scrdir="/local/mvanvleet/pbs.15219.josephine/"
 Entering Link 1 = /cm/shared/apps//g16/l1.exe PID=   4136309.
  
 Copyright (c) 1988-2019, Gaussian, Inc.  All Rights Reserved.
  
 This is part of the Gaussian(R) 16 program.  It is based on
 the Gaussian(R) 09 system (copyright 2009, Gaussian, Inc.),
 the Gaussian(R) 03 system (copyright 2003, Gaussian, Inc.),
 the Gaussian(R) 98 system (copyright 1998, Gaussian, Inc.),
 the Gaussian(R) 94 system (copyright 1995, Gaussian, Inc.),
 the Gaussian 92(TM) system (copyright 1992, Gaussian, Inc.),
 the Gaussian 90(TM) system (copyright 1990, Gaussian, Inc.),
 the Gaussian 88(TM) system (copyright 1988, Gaussian, Inc.),
 the Gaussian 86(TM) system (copyright 1986, Carnegie Mellon
 University), and the Gaussian 82(TM) system (copyright 1983,
 Carnegie Mellon University). Gaussian is a federally registered
 trademark of Gaussian, Inc.
  
 This software contains proprietary and confidential information,
 including trade secrets, belonging to Gaussian, Inc.
  
 This software is provided under written license and may be
 used, copied, transmitted, or stored only in accord with that
 written license.
  
 The following legend is applicable only to US Government
 contracts under FAR:
  
                    RESTRICTED RIGHTS LEGEND
  
 Use, reproduction and disclosure by the US Government is
 subject to restrictions as set forth in subparagraphs (a)
 and (c) of the Commercial Computer Software - Restricted
 Rights clause in FAR 52.227-19.
  
 Gaussian, Inc.
 340 Quinnipiac St., Bldg. 40, Wallingford CT 06492
  
  
 ---------------------------------------------------------------
 Warning -- This program may not be used in any manner that
 competes with the business of Gaussian, Inc. or will provide
 assistance to any competitor of Gaussian, Inc.  The licensee
 of this program is prohibited from giving any competitor of
 Gaussian, Inc. access to this program.  By using this program,
 the user acknowledges that Gaussian, Inc. is engaged in the
 business of creating and licensing software in the field of
 computational chemistry and represents and warrants to the
 licensee that it is not a competitor of Gaussian, Inc. and that
 it will not use this program in any manner prohibited above.
 ---------------------------------------------------------------
  

 Cite this work as:
 Gaussian 16, Revision C.01,
 M. J. Frisch, G. W. Trucks, H. B. Schlegel, G. E. Scuseria, 
 M. A. Robb, J. R. Cheeseman, G. Scalmani, V. Barone, 
 G. A. Petersson, H. Nakatsuji, X. Li, M. Caricato, A. V. Marenich, 
 J. Bloino, B. G. Janesko, R. Gomperts, B. Mennucci, H. P. Hratchian, 
 J. V. Ortiz, A. F. Izmaylov, J. L. Sonnenberg, D. Williams-Young, 
 F. Ding, F. Lipparini, F. Egidi, J. Goings, B. Peng, A. Petrone, 
 T. Henderson, D. Ranasinghe, V. G. Zakrzewski, J. Gao, N. Rega, 
 G. Zheng, W. Liang, M. Hada, M. Ehara, K. Toyota, R. Fukuda, 
 J. Hasegawa, M. Ishida, T. Nakajima, Y. Honda, O. Kitao, H. Nakai, 
 T. Vreven, K. Throssell, J. A. Montgomery, Jr., J. E. Peralta, 
 F. Ogliaro, M. J. Bearpark, J. J. Heyd, E. N. Brothers, K. N. Kudin, 
 V. N. Staroverov, T. A. Keith, R. Kobayashi, J. Normand, 
 K. Raghavachari, A. P. Rendell, J. C. Burant, S. S. Iyengar, 
 J. Tomasi, M. Cossi, J. M. Millam, M. Klene, C. Adamo, R. Cammi, 
 J. W. Ochterski, R. L. Martin, K. Morokuma, O. Farkas, 
 J. B. Foresman, and D. J. Fox, Gaussian, Inc., Wallingford CT, 2019.
 
 ******************************************
 Gaussian 16:  ES64L-G16RevC.01  3-Jul-2019
                20-May-2024 
 ******************************************
 %nprocshared=48
 Will use up to   48 processors via shared memory.
 %chk=HZRhMe.chk
 %mem=16GB
 ----------------------------------------------------------
 # wb97xd def2TZVPP SCRF=(solvent=dichloromethane) opt freq
 ----------------------------------------------------------
 1/18=20,19=15,26=3,38=1/1,3;
 2/9=110,12=2,17=6,18=5,40=1/2;
 3/5=44,7=202,11=2,25=1,30=1,70=2201,71=1,72=9,74=-58/1,2,3;
 4//1;
 5/5=2,38=5,53=9/2;
 6/7=2,8=2,9=2,10=2,28=1/1;
 7//1,2,3,16;
 1/18=20,19=15,26=3/3(2);
 2/9=110/2;
 99//99;
 2/9=110/2;
 3/5=44,7=202,11=2,25=1,30=1,70=2205,71=1,72=9,74=-58/1,2,3;
 4/5=5,16=3,69=1/1;
 5/5=2,38=5,53=9/2;
 7//1,2,3,16;
 1/18=20,19=15,26=3/3(-5);
 2/9=110/2;
 6/7=2,8=2,9=2,10=2,19=2,28=1/1;
 99/9=1/99;
 ------
 HZRhMe
 ------
 Symbolic Z-matrix:
 Charge =  0 Multiplicity = 1
 C                     1.4908    1.1639   -0.28398 
 C                     1.47479  -1.1912   -0.28035 
 C                     2.86109   1.19158  -0.04082 
 C                     2.84095  -1.24592  -0.03714 
 C                     3.54415  -0.03227   0.09581 
 H                     3.39953   2.14377   0.03659 
 H                     3.37564  -2.19615   0.04562 
 O                     4.88137  -0.10565   0.34539 
 N                     0.81681  -0.00747  -0.36689 
 C                     0.57323   2.33147  -0.57537 
 H                     0.4339    2.38231  -1.67265 
 H                     0.98672   3.30451  -0.22934 
 C                     0.53748  -2.34342  -0.57148 
 H                     0.40021  -2.39246  -1.66901 
 H                     0.93494  -3.32203  -0.224 
 N                    -0.78836   2.10205   0.00903 
 N                    -0.82159  -2.09146   0.01 
 C                    -1.76971   2.96399  -0.67735 
 H                    -2.75622   2.8021   -0.21757 
 H                    -1.48744   4.03803  -0.58459 
 H                    -1.81579   2.67561  -1.73864 
 C                    -0.75512   2.4554    1.44612 
 H                    -0.54473   3.54388   1.56787 
 H                    -1.72673   2.20623   1.8969 
 H                     0.03159   1.86561   1.94264 
 C                    -1.81535  -2.93746  -0.67863 
 H                    -1.55014  -4.01569  -0.58571 
 H                    -2.80008  -2.76017  -0.22074 
 H                    -1.8547   -2.64815  -1.73993 
 C                    -0.79656  -2.44658   1.44706 
 H                    -1.76452  -2.18154   1.89663 
 H                    -0.60454  -3.5383    1.56797 
 H                    -0.00038  -1.87109   1.9452 
 H                     5.2324    0.79412   0.41107 
 C                    -3.14634   0.02263   0.3918 
 H                    -3.48191   0.91068   0.9783 
 H                    -3.7626    0.02807  -0.53873 
 H                    -3.49639  -0.86014   0.97757 
 Rh                   -1.13076   0.00714  -0.12417 
 

 GradGradGradGradGradGradGradGradGradGradGradGradGradGradGradGradGradGrad
 Berny optimization.
 Initialization pass.
                           ----------------------------
                           !    Initial Parameters    !
                           ! (Angstroms and Degrees)  !
 --------------------------                            --------------------------
 ! Name  Definition              Value          Derivative Info.                !
 --------------------------------------------------------------------------------
 ! R1    R(1,3)                  1.392          estimate D2E/DX2                !
 ! R2    R(1,9)                  1.354          estimate D2E/DX2                !
 ! R3    R(1,10)                 1.5133         estimate D2E/DX2                !
 ! R4    R(2,4)                  1.3887         estimate D2E/DX2                !
 ! R5    R(2,9)                  1.3571         estimate D2E/DX2                !
 ! R6    R(2,13)                 1.5136         estimate D2E/DX2                !
 ! R7    R(3,5)                  1.4082         estimate D2E/DX2                !
 ! R8    R(3,6)                  1.0966         estimate D2E/DX2                !
 ! R9    R(4,5)                  1.4089         estimate D2E/DX2                !
 ! R10   R(4,7)                  1.0935         estimate D2E/DX2                !
 ! R11   R(5,8)                  1.3623         estimate D2E/DX2                !
 ! R12   R(8,34)                 0.9681         estimate D2E/DX2                !
 ! R13   R(9,39)                 1.9627         estimate D2E/DX2                !
 ! R14   R(10,11)                1.1073         estimate D2E/DX2                !
 ! R15   R(10,12)                1.1124         estimate D2E/DX2                !
 ! R16   R(10,16)                1.4994         estimate D2E/DX2                !
 ! R17   R(13,14)                1.1072         estimate D2E/DX2                !
 ! R18   R(13,15)                1.1119         estimate D2E/DX2                !
 ! R19   R(13,17)                1.4996         estimate D2E/DX2                !
 ! R20   R(16,18)                1.4755         estimate D2E/DX2                !
 ! R21   R(16,22)                1.4803         estimate D2E/DX2                !
 ! R22   R(16,39)                2.1269         estimate D2E/DX2                !
 ! R23   R(17,26)                1.4756         estimate D2E/DX2                !
 ! R24   R(17,30)                1.4805         estimate D2E/DX2                !
 ! R25   R(17,39)                2.1255         estimate D2E/DX2                !
 ! R26   R(18,19)                1.1004         estimate D2E/DX2                !
 ! R27   R(18,20)                1.1144         estimate D2E/DX2                !
 ! R28   R(18,21)                1.1007         estimate D2E/DX2                !
 ! R29   R(22,23)                1.1153         estimate D2E/DX2                !
 ! R30   R(22,24)                1.0997         estimate D2E/DX2                !
 ! R31   R(22,25)                1.1015         estimate D2E/DX2                !
 ! R32   R(26,27)                1.1142         estimate D2E/DX2                !
 ! R33   R(26,28)                1.1004         estimate D2E/DX2                !
 ! R34   R(26,29)                1.1007         estimate D2E/DX2                !
 ! R35   R(30,31)                1.0997         estimate D2E/DX2                !
 ! R36   R(30,32)                1.1151         estimate D2E/DX2                !
 ! R37   R(30,33)                1.1015         estimate D2E/DX2                !
 ! R38   R(35,36)                1.1159         estimate D2E/DX2                !
 ! R39   R(35,37)                1.1161         estimate D2E/DX2                !
 ! R40   R(35,38)                1.1158         estimate D2E/DX2                !
 ! R41   R(35,39)                2.0806         estimate D2E/DX2                !
 ! A1    A(3,1,9)              121.1937         estimate D2E/DX2                !
 ! A2    A(3,1,10)             127.9656         estimate D2E/DX2                !
 ! A3    A(9,1,10)             110.7242         estimate D2E/DX2                !
 ! A4    A(4,2,9)              121.5011         estimate D2E/DX2                !
 ! A5    A(4,2,13)             127.7994         estimate D2E/DX2                !
 ! A6    A(9,2,13)             110.5791         estimate D2E/DX2                !
 ! A7    A(1,3,5)              118.5006         estimate D2E/DX2                !
 ! A8    A(1,3,6)              120.8605         estimate D2E/DX2                !
 ! A9    A(5,3,6)              120.6378         estimate D2E/DX2                !
 ! A10   A(2,4,5)              118.2666         estimate D2E/DX2                !
 ! A11   A(2,4,7)              121.9067         estimate D2E/DX2                !
 ! A12   A(5,4,7)              119.8255         estimate D2E/DX2                !
 ! A13   A(3,5,4)              119.8265         estimate D2E/DX2                !
 ! A14   A(3,5,8)              122.7326         estimate D2E/DX2                !
 ! A15   A(4,5,8)              117.4389         estimate D2E/DX2                !
 ! A16   A(5,8,34)             108.5605         estimate D2E/DX2                !
 ! A17   A(1,9,2)              120.622          estimate D2E/DX2                !
 ! A18   A(1,9,39)             118.6814         estimate D2E/DX2                !
 ! A19   A(2,9,39)             118.6674         estimate D2E/DX2                !
 ! A20   A(1,10,11)            107.6103         estimate D2E/DX2                !
 ! A21   A(1,10,12)            112.9291         estimate D2E/DX2                !
 ! A22   A(1,10,16)            110.9479         estimate D2E/DX2                !
 ! A23   A(11,10,12)           108.3525         estimate D2E/DX2                !
 ! A24   A(11,10,16)           106.201          estimate D2E/DX2                !
 ! A25   A(12,10,16)           110.496          estimate D2E/DX2                !
 ! A26   A(2,13,14)            107.5278         estimate D2E/DX2                !
 ! A27   A(2,13,15)            112.8621         estimate D2E/DX2                !
 ! A28   A(2,13,17)            111.0239         estimate D2E/DX2                !
 ! A29   A(14,13,15)           108.3678         estimate D2E/DX2                !
 ! A30   A(14,13,17)           106.2284         estimate D2E/DX2                !
 ! A31   A(15,13,17)           110.5277         estimate D2E/DX2                !
 ! A32   A(10,16,18)           109.4683         estimate D2E/DX2                !
 ! A33   A(10,16,22)           108.7525         estimate D2E/DX2                !
 ! A34   A(10,16,39)           105.8129         estimate D2E/DX2                !
 ! A35   A(18,16,22)           109.0932         estimate D2E/DX2                !
 ! A36   A(18,16,39)           116.0516         estimate D2E/DX2                !
 ! A37   A(22,16,39)           107.4296         estimate D2E/DX2                !
 ! A38   A(13,17,26)           109.455          estimate D2E/DX2                !
 ! A39   A(13,17,30)           108.7092         estimate D2E/DX2                !
 ! A40   A(13,17,39)           105.8578         estimate D2E/DX2                !
 ! A41   A(26,17,30)           109.0773         estimate D2E/DX2                !
 ! A42   A(26,17,39)           116.0174         estimate D2E/DX2                !
 ! A43   A(30,17,39)           107.4913         estimate D2E/DX2                !
 ! A44   A(16,18,19)           108.4187         estimate D2E/DX2                !
 ! A45   A(16,18,20)           110.8444         estimate D2E/DX2                !
 ! A46   A(16,18,21)           108.8633         estimate D2E/DX2                !
 ! A47   A(19,18,20)           109.5182         estimate D2E/DX2                !
 ! A48   A(19,18,21)           109.0742         estimate D2E/DX2                !
 ! A49   A(20,18,21)           110.082          estimate D2E/DX2                !
 ! A50   A(16,22,23)           110.071          estimate D2E/DX2                !
 ! A51   A(16,22,24)           108.907          estimate D2E/DX2                !
 ! A52   A(16,22,25)           109.0167         estimate D2E/DX2                !
 ! A53   A(23,22,24)           110.0633         estimate D2E/DX2                !
 ! A54   A(23,22,25)           109.7936         estimate D2E/DX2                !
 ! A55   A(24,22,25)           108.9617         estimate D2E/DX2                !
 ! A56   A(17,26,27)           110.8286         estimate D2E/DX2                !
 ! A57   A(17,26,28)           108.4281         estimate D2E/DX2                !
 ! A58   A(17,26,29)           108.865          estimate D2E/DX2                !
 ! A59   A(27,26,28)           109.5248         estimate D2E/DX2                !
 ! A60   A(27,26,29)           110.0752         estimate D2E/DX2                !
 ! A61   A(28,26,29)           109.0796         estimate D2E/DX2                !
 ! A62   A(17,30,31)           108.9129         estimate D2E/DX2                !
 ! A63   A(17,30,32)           110.0604         estimate D2E/DX2                !
 ! A64   A(17,30,33)           109.0188         estimate D2E/DX2                !
 ! A65   A(31,30,32)           110.0732         estimate D2E/DX2                !
 ! A66   A(31,30,33)           108.9922         estimate D2E/DX2                !
 ! A67   A(32,30,33)           109.7566         estimate D2E/DX2                !
 ! A68   A(36,35,37)           105.5617         estimate D2E/DX2                !
 ! A69   A(36,35,38)           105.032          estimate D2E/DX2                !
 ! A70   A(36,35,39)           115.3141         estimate D2E/DX2                !
 ! A71   A(37,35,38)           105.565          estimate D2E/DX2                !
 ! A72   A(37,35,39)           109.1578         estimate D2E/DX2                !
 ! A73   A(38,35,39)           115.3547         estimate D2E/DX2                !
 ! A74   A(9,39,16)             81.6818         estimate D2E/DX2                !
 ! A75   A(9,39,17)             81.7275         estimate D2E/DX2                !
 ! A76   A(16,39,17)           160.9328         estimate D2E/DX2                !
 ! A77   A(16,39,35)            97.6482         estimate D2E/DX2                !
 ! A78   A(17,39,35)            97.6203         estimate D2E/DX2                !
 ! A79   L(9,39,35,16,-1)      179.33           estimate D2E/DX2                !
 ! A80   L(9,39,35,16,-2)      187.2945         estimate D2E/DX2                !
 ! D1    D(9,1,3,5)              1.0845         estimate D2E/DX2                !
 ! D2    D(9,1,3,6)           -179.2996         estimate D2E/DX2                !
 ! D3    D(10,1,3,5)          -174.6121         estimate D2E/DX2                !
 ! D4    D(10,1,3,6)             5.0038         estimate D2E/DX2                !
 ! D5    D(3,1,9,2)             -3.2922         estimate D2E/DX2                !
 ! D6    D(3,1,9,39)           160.2939         estimate D2E/DX2                !
 ! D7    D(10,1,9,2)           173.0814         estimate D2E/DX2                !
 ! D8    D(10,1,9,39)          -23.3325         estimate D2E/DX2                !
 ! D9    D(3,1,10,11)           98.414          estimate D2E/DX2                !
 ! D10   D(3,1,10,12)          -21.1211         estimate D2E/DX2                !
 ! D11   D(3,1,10,16)         -145.8034         estimate D2E/DX2                !
 ! D12   D(9,1,10,11)          -77.6507         estimate D2E/DX2                !
 ! D13   D(9,1,10,12)          162.8142         estimate D2E/DX2                !
 ! D14   D(9,1,10,16)           38.1318         estimate D2E/DX2                !
 ! D15   D(9,2,4,5)             -1.1389         estimate D2E/DX2                !
 ! D16   D(9,2,4,7)            179.2635         estimate D2E/DX2                !
 ! D17   D(13,2,4,5)           174.4815         estimate D2E/DX2                !
 ! D18   D(13,2,4,7)            -5.1161         estimate D2E/DX2                !
 ! D19   D(4,2,9,1)              3.3289         estimate D2E/DX2                !
 ! D20   D(4,2,9,39)          -160.2595         estimate D2E/DX2                !
 ! D21   D(13,2,9,1)          -172.9757         estimate D2E/DX2                !
 ! D22   D(13,2,9,39)           23.4359         estimate D2E/DX2                !
 ! D23   D(4,2,13,14)          -98.3367         estimate D2E/DX2                !
 ! D24   D(4,2,13,15)           21.1222         estimate D2E/DX2                !
 ! D25   D(4,2,13,17)          145.8549         estimate D2E/DX2                !
 ! D26   D(9,2,13,14)           77.6753         estimate D2E/DX2                !
 ! D27   D(9,2,13,15)         -162.8658         estimate D2E/DX2                !
 ! D28   D(9,2,13,17)          -38.1331         estimate D2E/DX2                !
 ! D29   D(1,3,5,4)              1.0666         estimate D2E/DX2                !
 ! D30   D(1,3,5,8)           -179.4567         estimate D2E/DX2                !
 ! D31   D(6,3,5,4)           -178.5503         estimate D2E/DX2                !
 ! D32   D(6,3,5,8)              0.9265         estimate D2E/DX2                !
 ! D33   D(2,4,5,3)             -1.0393         estimate D2E/DX2                !
 ! D34   D(2,4,5,8)            179.4567         estimate D2E/DX2                !
 ! D35   D(7,4,5,3)            178.567          estimate D2E/DX2                !
 ! D36   D(7,4,5,8)             -0.937          estimate D2E/DX2                !
 ! D37   D(3,5,8,34)             0.4448         estimate D2E/DX2                !
 ! D38   D(4,5,8,34)           179.9333         estimate D2E/DX2                !
 ! D39   D(1,9,39,16)            3.2582         estimate D2E/DX2                !
 ! D40   D(1,9,39,17)         -167.3115         estimate D2E/DX2                !
 ! D41   D(2,9,39,16)          167.1687         estimate D2E/DX2                !
 ! D42   D(2,9,39,17)           -3.401          estimate D2E/DX2                !
 ! D43   D(1,10,16,18)        -159.435          estimate D2E/DX2                !
 ! D44   D(1,10,16,22)          81.4605         estimate D2E/DX2                !
 ! D45   D(1,10,16,39)         -33.685          estimate D2E/DX2                !
 ! D46   D(11,10,16,18)        -42.7826         estimate D2E/DX2                !
 ! D47   D(11,10,16,22)       -161.8871         estimate D2E/DX2                !
 ! D48   D(11,10,16,39)         82.9673         estimate D2E/DX2                !
 ! D49   D(12,10,16,18)         74.5174         estimate D2E/DX2                !
 ! D50   D(12,10,16,22)        -44.5871         estimate D2E/DX2                !
 ! D51   D(12,10,16,39)       -159.7326         estimate D2E/DX2                !
 ! D52   D(2,13,17,26)         159.3807         estimate D2E/DX2                !
 ! D53   D(2,13,17,30)         -81.5675         estimate D2E/DX2                !
 ! D54   D(2,13,17,39)          33.6518         estimate D2E/DX2                !
 ! D55   D(14,13,17,26)         42.7714         estimate D2E/DX2                !
 ! D56   D(14,13,17,30)        161.8232         estimate D2E/DX2                !
 ! D57   D(14,13,17,39)        -82.9575         estimate D2E/DX2                !
 ! D58   D(15,13,17,26)        -74.5789         estimate D2E/DX2                !
 ! D59   D(15,13,17,30)         44.4729         estimate D2E/DX2                !
 ! D60   D(15,13,17,39)        159.6922         estimate D2E/DX2                !
 ! D61   D(10,16,18,19)       -178.4896         estimate D2E/DX2                !
 ! D62   D(10,16,18,20)        -58.2508         estimate D2E/DX2                !
 ! D63   D(10,16,18,21)         62.9709         estimate D2E/DX2                !
 ! D64   D(22,16,18,19)        -59.5959         estimate D2E/DX2                !
 ! D65   D(22,16,18,20)         60.6429         estimate D2E/DX2                !
 ! D66   D(22,16,18,21)       -178.1353         estimate D2E/DX2                !
 ! D67   D(39,16,18,19)         61.8728         estimate D2E/DX2                !
 ! D68   D(39,16,18,20)       -177.8884         estimate D2E/DX2                !
 ! D69   D(39,16,18,21)        -56.6667         estimate D2E/DX2                !
 ! D70   D(10,16,22,23)         64.1054         estimate D2E/DX2                !
 ! D71   D(10,16,22,24)       -175.1498         estimate D2E/DX2                !
 ! D72   D(10,16,22,25)        -56.3766         estimate D2E/DX2                !
 ! D73   D(18,16,22,23)        -55.2336         estimate D2E/DX2                !
 ! D74   D(18,16,22,24)         65.5112         estimate D2E/DX2                !
 ! D75   D(18,16,22,25)       -175.7157         estimate D2E/DX2                !
 ! D76   D(39,16,22,23)        178.1977         estimate D2E/DX2                !
 ! D77   D(39,16,22,24)        -61.0575         estimate D2E/DX2                !
 ! D78   D(39,16,22,25)         57.7156         estimate D2E/DX2                !
 ! D79   D(10,16,39,9)          17.3421         estimate D2E/DX2                !
 ! D80   D(10,16,39,17)         47.1003         estimate D2E/DX2                !
 ! D81   D(10,16,39,35)       -169.9524         estimate D2E/DX2                !
 ! D82   D(18,16,39,9)         138.9442         estimate D2E/DX2                !
 ! D83   D(18,16,39,17)        168.7024         estimate D2E/DX2                !
 ! D84   D(18,16,39,35)        -48.3503         estimate D2E/DX2                !
 ! D85   D(22,16,39,9)         -98.7055         estimate D2E/DX2                !
 ! D86   D(22,16,39,17)        -68.9473         estimate D2E/DX2                !
 ! D87   D(22,16,39,35)         74.0            estimate D2E/DX2                !
 ! D88   D(13,17,26,27)         58.1997         estimate D2E/DX2                !
 ! D89   D(13,17,26,28)        178.4429         estimate D2E/DX2                !
 ! D90   D(13,17,26,29)        -63.0048         estimate D2E/DX2                !
 ! D91   D(30,17,26,27)        -60.6242         estimate D2E/DX2                !
 ! D92   D(30,17,26,28)         59.619          estimate D2E/DX2                !
 ! D93   D(30,17,26,29)        178.1713         estimate D2E/DX2                !
 ! D94   D(39,17,26,27)        177.8624         estimate D2E/DX2                !
 ! D95   D(39,17,26,28)        -61.8944         estimate D2E/DX2                !
 ! D96   D(39,17,26,29)         56.6579         estimate D2E/DX2                !
 ! D97   D(13,17,30,31)        175.1414         estimate D2E/DX2                !
 ! D98   D(13,17,30,32)        -64.1045         estimate D2E/DX2                !
 ! D99   D(13,17,30,33)         56.3268         estimate D2E/DX2                !
 ! D100  D(26,17,30,31)        -65.5703         estimate D2E/DX2                !
 ! D101  D(26,17,30,32)         55.1838         estimate D2E/DX2                !
 ! D102  D(26,17,30,33)        175.6151         estimate D2E/DX2                !
 ! D103  D(39,17,30,31)         60.9866         estimate D2E/DX2                !
 ! D104  D(39,17,30,32)       -178.2593         estimate D2E/DX2                !
 ! D105  D(39,17,30,33)        -57.828          estimate D2E/DX2                !
 ! D106  D(13,17,39,9)         -17.2287         estimate D2E/DX2                !
 ! D107  D(13,17,39,16)        -46.9831         estimate D2E/DX2                !
 ! D108  D(13,17,39,35)        170.0667         estimate D2E/DX2                !
 ! D109  D(26,17,39,9)        -138.8257         estimate D2E/DX2                !
 ! D110  D(26,17,39,16)       -168.5801         estimate D2E/DX2                !
 ! D111  D(26,17,39,35)         48.4698         estimate D2E/DX2                !
 ! D112  D(30,17,39,9)          98.8201         estimate D2E/DX2                !
 ! D113  D(30,17,39,16)         69.0657         estimate D2E/DX2                !
 ! D114  D(30,17,39,35)        -73.8844         estimate D2E/DX2                !
 ! D115  D(36,35,39,16)        -22.9094         estimate D2E/DX2                !
 ! D116  D(36,35,39,17)        145.636          estimate D2E/DX2                !
 ! D117  D(37,35,39,16)         95.6779         estimate D2E/DX2                !
 ! D118  D(37,35,39,17)        -95.7767         estimate D2E/DX2                !
 ! D119  D(38,35,39,16)       -145.704          estimate D2E/DX2                !
 ! D120  D(38,35,39,17)         22.8413         estimate D2E/DX2                !
 --------------------------------------------------------------------------------
 Trust Radius=3.00D-01 FncErr=1.00D-07 GrdErr=1.00D-06 EigMax=2.50D+02 EigMin=1.00D-04
 Number of steps in this run=    234 maximum allowed number of steps=    234.
 GradGradGradGradGradGradGradGradGradGradGradGradGradGradGradGradGradGrad

                          Input orientation:                          
 ---------------------------------------------------------------------
 Center     Atomic      Atomic             Coordinates (Angstroms)
 Number     Number       Type             X           Y           Z
 ---------------------------------------------------------------------
      1          6           0        1.490800    1.163900   -0.283980
      2          6           0        1.474790   -1.191200   -0.280350
      3          6           0        2.861090    1.191580   -0.040820
      4          6           0        2.840950   -1.245920   -0.037140
      5          6           0        3.544150   -0.032270    0.095810
      6          1           0        3.399530    2.143770    0.036590
      7          1           0        3.375640   -2.196150    0.045620
      8          8           0        4.881370   -0.105650    0.345390
      9          7           0        0.816810   -0.007470   -0.366890
     10          6           0        0.573230    2.331470   -0.575370
     11          1           0        0.433900    2.382310   -1.672650
     12          1           0        0.986720    3.304510   -0.229340
     13          6           0        0.537480   -2.343420   -0.571480
     14          1           0        0.400210   -2.392460   -1.669010
     15          1           0        0.934940   -3.322030   -0.224000
     16          7           0       -0.788360    2.102050    0.009030
     17          7           0       -0.821590   -2.091460    0.010000
     18          6           0       -1.769710    2.963990   -0.677350
     19          1           0       -2.756220    2.802100   -0.217570
     20          1           0       -1.487440    4.038030   -0.584590
     21          1           0       -1.815790    2.675610   -1.738640
     22          6           0       -0.755120    2.455400    1.446120
     23          1           0       -0.544730    3.543880    1.567870
     24          1           0       -1.726730    2.206230    1.896900
     25          1           0        0.031590    1.865610    1.942640
     26          6           0       -1.815350   -2.937460   -0.678630
     27          1           0       -1.550140   -4.015690   -0.585710
     28          1           0       -2.800080   -2.760170   -0.220740
     29          1           0       -1.854700   -2.648150   -1.739930
     30          6           0       -0.796560   -2.446580    1.447060
     31          1           0       -1.764520   -2.181540    1.896630
     32          1           0       -0.604540   -3.538300    1.567970
     33          1           0       -0.000380   -1.871090    1.945200
     34          1           0        5.232400    0.794120    0.411070
     35          6           0       -3.146340    0.022630    0.391800
     36          1           0       -3.481910    0.910680    0.978300
     37          1           0       -3.762600    0.028070   -0.538730
     38          1           0       -3.496390   -0.860140    0.977570
     39         45           0       -1.130760    0.007140   -0.124170
 ---------------------------------------------------------------------
                    Distance matrix (angstroms):
                    1          2          3          4          5
     1  C    0.000000
     2  C    2.355157   0.000000
     3  C    1.391973   2.767100   0.000000
     4  C    2.773277   1.388718   2.437586   0.000000
     5  C    2.406514   2.401430   1.408207   1.408940   0.000000
     6  H    2.169369   3.863561   1.096620   3.436196   2.181644
     7  H    3.866677   2.174721   3.427674   1.093471   2.171012
     8  O    3.674756   3.629705   2.431768   2.368514   1.362289
     9  N    1.353974   1.357072   2.392305   2.395754   2.766422
    10  C    1.513295   3.648157   2.611397   4.269656   3.855401
    11  H    2.128371   3.973906   3.157841   4.651111   4.316399
    12  H    2.199839   4.522413   2.830773   4.917471   4.216666
    13  C    3.645925   1.513578   4.263448   2.606914   3.850553
    14  H    3.969306   2.127469   4.642443   3.151946   4.309228
    15  H    4.520636   2.198875   4.910833   2.824540   4.211030
    16  N    2.482046   4.006380   3.761639   4.937907   4.830476
    17  N    4.003866   2.483572   4.933869   3.759170   4.827765
    18  C    3.745129   5.286775   4.999092   6.276257   6.149184
    19  H    4.552504   5.818233   5.846297   6.909944   6.915672
    20  H    4.149808   6.017659   5.225675   6.852356   6.507471
    21  H    3.915972   5.282684   5.192123   6.321292   6.279075
    22  C    3.115345   4.609869   4.109161   5.369502   5.147384
    23  H    3.638274   5.469494   4.440812   6.081206   5.628032
    24  H    4.024325   5.150988   5.082555   6.043306   6.003081
    25  H    2.753094   4.045812   3.520582   4.636125   4.398955
    26  C    5.282758   3.746074   6.270954   4.995393   6.145252
    27  H    6.013860   4.149842   6.846278   5.220558   6.502607
    28  H    5.814979   4.554090   6.906341   5.843619   6.913096
    29  H    5.276731   3.916450   6.314204   5.187954   6.273783
    30  C    4.611299   3.117524   5.369208   4.108030   5.147478
    31  H    5.152100   4.026555   6.043833   5.081851   6.003690
    32  H    5.470910   3.639887   6.080342   4.438782   5.627711
    33  H    4.050188   2.755259   4.638128   3.520464   4.400590
    34  H    3.823533   4.305716   2.446485   3.175167   1.905911
    35  C    4.823095   4.824936   6.135374   6.135214   6.697259
    36  H    5.136664   5.529102   6.430487   6.757263   7.143771
    37  H    5.380820   5.383645   6.743511   6.743998   7.334499
    38  H    5.528138   5.138540   6.757531   6.429645   7.143674
    39  Rh   2.869880   2.872160   4.164698   4.165599   4.680249
                    6          7          8          9         10
     6  H    0.000000
     7  H    4.339995   0.000000
     8  O    2.711291   2.593699   0.000000
     9  N    3.385421   3.392358   4.127666   0.000000
    10  C    2.897878   5.360828   5.034622   2.360812   0.000000
    11  H    3.431234   5.706889   5.481097   2.750032   1.107258
    12  H    2.690667   6.003316   5.208436   3.319187   1.112438
    13  C    5.356860   2.908204   4.971684   2.361471   4.675028
    14  H    5.699331   3.439721   5.419234   2.749045   4.851958
    15  H    6.001423   2.701355   5.122852   3.319741   5.675945
    16  N    4.188188   5.984543   6.093678   2.677305   1.499361
    17  N    5.979610   4.198687   6.048114   2.677576   4.674451
    18  C    5.282378   7.322865   7.396320   3.951714   2.428961
    19  H    6.196068   7.915269   8.191747   4.547804   3.381531
    20  H    5.277932   7.931690   7.654847   4.660797   2.675592
    21  H    5.534786   7.339521   7.545233   4.001400   2.679374
    22  C    4.398296   6.376637   6.288132   3.438560   2.422043
    23  H    4.456716   7.115792   6.652525   4.267221   2.704302
    24  H    5.453732   6.988731   7.170701   4.061380   3.378997
    25  H    3.879874   5.592785   5.473339   3.075537   2.617398
    26  C    7.316106   5.293435   7.342603   3.950986   5.785983
    27  H    7.926250   5.288914   7.584173   4.660060   6.692925
    28  H    7.908856   6.207140   8.146880   4.547594   6.117988
    29  H    7.329765   5.545174   7.495832   3.999424   5.661065
    30  C    6.377140   4.408401   6.239593   3.441313   5.366219
    31  H    6.988238   5.463305   7.133268   4.063664   5.651824
    32  H    7.117838   4.467745   6.585818   4.269740   6.358872
    33  H    5.596542   3.887361   5.432095   3.080039   4.933945
    34  H    2.306773   3.538761   0.968051   4.554690   5.004435
    35  C    6.890125   6.897757   8.028869   4.035229   4.483454
    36  H    7.054186   7.586058   8.448547   4.596904   4.569102
    37  H    7.490213   7.499539   8.690096   4.582771   4.909828
    38  H    7.580411   7.062454   8.435388   4.597642   5.399982
    39  Rh   5.011443   5.019059   6.031494   1.962691   2.917134
                   11         12         13         14         15
    11  H    0.000000
    12  H    1.799780   0.000000
    13  C    4.853435   5.676089   0.000000
    14  H    4.774890   5.905261   1.107168   0.000000
    15  H    5.906702   6.626744   1.111933   1.799469   0.000000
    16  N    2.097740   2.157230   4.675152   4.942584   5.696026
    17  N    4.941881   5.695942   1.499558   2.098207   2.157419
    18  C    2.486940   2.813285   5.788172   5.863744   6.858185
    19  H    3.531338   3.776527   6.119648   6.249255   7.150502
    20  H    2.759861   2.604942   6.695026   6.788990   7.756831
    21  H    2.269688   3.244621   5.664875   5.531802   6.769958
    22  C    3.338538   2.561671   5.363786   5.877123   6.246943
    23  H    3.578817   2.373310   6.356752   6.827184   7.248513
    24  H    4.176244   3.618000   5.649678   6.195768   6.491869
    25  H    3.674119   2.774924   4.928758   5.595628   5.694030
    26  C    5.860645   6.856796   2.429027   2.487284   2.814014
    27  H    6.786181   7.755513   2.674855   2.759036   2.605306
    28  H    6.245940   7.149844   3.381716   3.531933   3.777045
    29  H    5.527001   6.766810   2.679676   2.270468   3.245651
    30  C    5.879184   6.250235   2.421737   3.338425   2.560654
    31  H    6.196897   6.495061   3.378902   4.176641   3.617302
    32  H    6.828880   7.251654   2.703552   3.577780   2.372325
    33  H    5.600790   5.699985   2.616499   3.673529   2.772270
    34  H    5.467160   4.973729   5.731652   6.150698   5.984494
    35  C    4.759009   5.314013   4.482927   4.760002   5.312514
    36  H    4.952454   5.211283   5.398748   5.743678   6.234575
    37  H    4.943565   5.778133   4.910776   4.946260   5.778331
    38  H    5.743198   6.236924   4.568565   4.953371   5.209737
    39  Rh   3.238423   3.920132   2.916889   3.238592   3.919242
                   16         17         18         19         20
    16  N    0.000000
    17  N    4.193642   0.000000
    18  C    1.475502   5.189312   0.000000
    19  H    2.100926   5.267021   1.100367   0.000000
    20  H    2.142222   6.194154   1.114380   1.808875   0.000000
    21  H    2.106878   5.174083   1.100737   1.792781   1.815443
    22  C    1.480266   4.768731   2.407734   2.625351   2.676713
    23  H    2.137337   5.853261   2.622568   2.937469   2.401244
    24  H    2.110792   4.780147   2.683805   2.426086   3.093630
    25  H    2.113544   4.485690   3.363847   3.649028   3.662479
    26  C    5.188858   1.475631   5.901627   5.834412   6.983826
    27  H    6.193607   2.142036   6.983734   6.933427   8.053964
    28  H    5.266972   2.101151   5.834052   5.562444   6.933321
    29  H    5.173040   2.107006   5.712479   5.730231   6.795196
    30  C    4.770538   1.480499   5.893590   5.844647   6.830453
    31  H    4.781743   2.111067   5.753423   5.503633   6.701961
    32  H    5.854710   2.137224   6.977024   6.929542   7.925516
    33  H    4.489489   2.113752   5.778088   5.840457   6.597642
    34  H    6.174291   6.718499   7.410974   8.261067   7.527984
    35  C    3.167108   3.165377   3.419034   2.872104   4.452946
    36  H    3.100655   4.126470   3.144660   2.352488   4.025028
    37  H    3.667088   3.666477   3.551120   2.968364   4.610665
    38  H    4.128688   3.099499   4.510449   3.922781   5.519809
    39  Rh   2.126882   2.125490   3.075260   3.234601   4.072749
                   21         22         23         24         25
    21  H    0.000000
    22  C    3.363957   0.000000
    23  H    3.647259   1.115292   0.000000
    24  H    3.666797   1.099688   1.815129   0.000000
    25  H    4.197706   1.101498   1.813612   1.791592   0.000000
    26  C    5.712283   5.892503   6.976317   5.753152   5.775095
    27  H    6.795095   6.829011   7.924384   6.701255   6.594248
    28  H    5.728922   5.844866   6.930135   5.504690   5.839213
    29  H    5.323902   6.116062   7.141344   6.066953   6.123189
    30  C    6.117544   4.902155   5.996968   4.766153   4.418870
    31  H    6.067102   4.766871   5.863140   4.387933   4.428041
    32  H    7.142372   5.996829   7.082433   5.862349   5.454107
    33  H    6.126897   4.420094   5.455327   4.427997   3.736838
    34  H    7.605146   6.299331   6.501892   7.254739   5.526502
    35  C    3.653415   3.570419   4.533290   3.008110   3.987596
    36  H    3.643171   3.168659   3.988529   2.367051   3.766500
    37  H    3.498474   4.344709   5.210890   3.849862   4.891792
    38  H    4.764844   4.327460   5.334430   3.657798   4.561548
    39  Rh   3.193198   2.932728   3.964210   3.045636   3.012752
                   26         27         28         29         30
    26  C    0.000000
    27  H    1.114249   0.000000
    28  H    1.100358   1.808835   0.000000
    29  H    1.100730   1.815254   1.792827   0.000000
    30  C    2.407790   2.676218   2.625640   3.364104   0.000000
    31  H    2.684392   3.093877   2.427026   3.667482   1.099684
    32  H    2.621885   2.400083   2.936897   3.646570   1.115053
    33  H    3.363888   3.661498   3.649668   4.197917   1.101469
    34  H    8.048783   8.374407   8.806412   8.167191   6.922700
    35  C    3.417527   4.451001   2.870379   3.653173   3.568198
    36  H    4.508993   5.517879   3.921445   4.764647   4.324585
    37  H    3.550454   4.609683   2.966790   3.499302   4.343345
    38  H    3.143907   4.023584   2.351788   3.643752   3.166432
    39  Rh   3.073558   4.070880   3.233258   3.191447   2.932779
                   31         32         33         34         35
    31  H    0.000000
    32  H    1.815040   0.000000
    33  H    1.791906   1.812981   0.000000
    34  H    7.747150   7.360581   6.069505   0.000000
    35  C    3.005379   4.530380   3.987015   8.414205   0.000000
    36  H    3.654392   5.331078   4.560065   8.733529   1.115895
    37  H    3.847815   5.208697   4.891934   9.077388   1.116106
    38  H    2.364348   3.985462   3.765689   8.902206   1.115771
    39  Rh   3.045588   3.963633   3.014598   6.433943   2.080632
                   36         37         38         39
    36  H    0.000000
    37  H    1.777405   0.000000
    38  H    1.770879   1.777344   0.000000
    39  Rh   2.749496   2.664372   2.749947   0.000000
 Stoichiometry    C12H22N3ORh
 Framework group  C1[X(C12H22N3ORh)]
 Deg. of freedom   111
 Full point group                 C1      NOp   1
 Largest Abelian subgroup         C1      NOp   1
 Largest concise Abelian subgroup C1      NOp   1
                         Standard orientation:                         
 ---------------------------------------------------------------------
 Center     Atomic      Atomic             Coordinates (Angstroms)
 Number     Number       Type             X           Y           Z
 ---------------------------------------------------------------------
      1          6           0        1.490800    1.163901   -0.283980
      2          6           0        1.474790   -1.191199   -0.280350
      3          6           0        2.861090    1.191580   -0.040820
      4          6           0        2.840950   -1.245920   -0.037140
      5          6           0        3.544150   -0.032270    0.095810
      6          1           0        3.399530    2.143770    0.036590
      7          1           0        3.375640   -2.196150    0.045620
      8          8           0        4.881370   -0.105650    0.345390
      9          7           0        0.816810   -0.007469   -0.366890
     10          6           0        0.573230    2.331471   -0.575370
     11          1           0        0.433900    2.382311   -1.672650
     12          1           0        0.986721    3.304511   -0.229340
     13          6           0        0.537480   -2.343419   -0.571480
     14          1           0        0.400209   -2.392459   -1.669010
     15          1           0        0.934939   -3.322029   -0.224000
     16          7           0       -0.788360    2.102051    0.009030
     17          7           0       -0.821590   -2.091459    0.010000
     18          6           0       -1.769709    2.963991   -0.677350
     19          1           0       -2.756219    2.802101   -0.217570
     20          1           0       -1.487439    4.038031   -0.584590
     21          1           0       -1.815789    2.675611   -1.738640
     22          6           0       -0.755119    2.455401    1.446120
     23          1           0       -0.544729    3.543881    1.567870
     24          1           0       -1.726730    2.206231    1.896900
     25          1           0        0.031590    1.865611    1.942640
     26          6           0       -1.815351   -2.937459   -0.678630
     27          1           0       -1.550141   -4.015689   -0.585710
     28          1           0       -2.800081   -2.760169   -0.220740
     29          1           0       -1.854701   -2.648149   -1.739930
     30          6           0       -0.796561   -2.446579    1.447060
     31          1           0       -1.764520   -2.181539    1.896630
     32          1           0       -0.604541   -3.538299    1.567970
     33          1           0       -0.000380   -1.871089    1.945200
     34          1           0        5.232400    0.794120    0.411070
     35          6           0       -3.146340    0.022631    0.391800
     36          1           0       -3.481910    0.910682    0.978300
     37          1           0       -3.762600    0.028072   -0.538730
     38          1           0       -3.496390   -0.860138    0.977570
     39         45           0       -1.130760    0.007141   -0.124170
 ---------------------------------------------------------------------
 Rotational constants (GHZ):           0.5378941           0.3621928           0.2396773
 Standard basis: def2TZVPP (5D, 7F)
 There are   977 symmetry adapted cartesian basis functions of A   symmetry.
 There are   860 symmetry adapted basis functions of A   symmetry.
   860 basis functions,  1289 primitive gaussians,   977 cartesian basis functions
    70 alpha electrons       70 beta electrons
       nuclear repulsion energy      1530.3910410719 Hartrees.
 NAtoms=   39 NActive=   39 NUniq=   39 SFac= 1.00D+00 NAtFMM=   60 NAOKFM=F Big=F
 Integral buffers will be    131072 words long.
 Raffenetti 2 integral format.
 Two-electron integral symmetry is turned on.
 Nuclear repulsion after empirical dispersion term =     1530.3517999836 Hartrees.
 ------------------------------------------------------------------------------
 Polarizable Continuum Model (PCM)
 =================================
 Model                : PCM.
 Atomic radii         : UFF (Universal Force Field).
 Polarization charges : Total charges.
 Charge compensation  : None.
 Solution method      : On-the-fly selection.
 Cavity type          : Scaled VdW (van der Waals Surface) (Alpha=1.100).
 Cavity algorithm     : GePol (No added spheres)
                        Default sphere list used, NSphG=   39.
                        Lebedev-Laikov grids with approx.  5.0 points / Ang**2.
                        Smoothing algorithm: York/Karplus (Gamma=1.0000).
                        Polarization charges: spherical gaussians, with
                                              point-specific exponents (IZeta= 3).
                        Self-potential: point-specific (ISelfS= 7).
                        Self-field    : sphere-specific E.n sum rule (ISelfD= 2).
 1st derivatives      : Analytical E(r).r(x)/FMM algorithm (CHGder, D1EAlg=3).
                        Cavity 1st derivative terms included.
 Solvent              : Dichloromethane, Eps=   8.930000 Eps(inf)=   2.028346
 ------------------------------------------------------------------------------
 One-electron integrals computed using PRISM.
   1 Symmetry operations used in ECPInt.
 ECPInt:  NShTT=   52650 NPrTT=  135371 LenC2=   47401 LenP2D=   93054.
 LDataN:  DoStor=T MaxTD1= 8 Len=  415
 Number of processors reduced to  41 by ecpmxn.
 NBasis=   860 RedAO= T EigKep=  1.80D-05  NBF=   860
 NBsUse=   860 1.00D-06 EigRej= -1.00D+00 NBFU=   860
 Defaulting to unpruned grid for atomic number  45.
 ExpMin= 3.70D-02 ExpMax= 2.70D+04 ExpMxC= 9.22D+02 IAcc=3 IRadAn=         5 AccDes= 0.00D+00
 Harris functional with IExCor= 4639 and IRadAn=       5 diagonalized for initial guess.
 HarFok:  IExCor= 4639 AccDes= 0.00D+00 IRadAn=         5 IDoV= 1 UseB2=F ITyADJ=14
 ICtDFT=  3500011 ScaDFX=  1.000000  1.000000  1.000000  1.000000
 Defaulting to unpruned grid for atomic number  45.
 FoFCou: FMM=F IPFlag=           0 FMFlag=      100000 FMFlg1=           0
         NFxFlg=           0 DoJE=T BraDBF=F KetDBF=T FulRan=T
         wScrn=  0.000000 ICntrl=       500 IOpCl=  0 I1Cent=   200000004 NGrid=           0
         NMat0=    1 NMatS0=      1 NMatT0=    0 NMatD0=    1 NMtDS0=    0 NMtDT0=    0
 Petite list used in FoFCou.
 Requested convergence on RMS density matrix=1.00D-08 within 128 cycles.
 Requested convergence on MAX density matrix=1.00D-06.
 Requested convergence on             energy=1.00D-06.
 No special actions if energy rises.
 Defaulting to unpruned grid for atomic number  45.
 Defaulting to unpruned grid for atomic number  45.
 Defaulting to unpruned grid for atomic number  45.
 Defaulting to unpruned grid for atomic number  45.
 Defaulting to unpruned grid for atomic number  45.
 Defaulting to unpruned grid for atomic number  45.
 Defaulting to unpruned grid for atomic number  45.
 Defaulting to unpruned grid for atomic number  45.
 Defaulting to unpruned grid for atomic number  45.
 Defaulting to unpruned grid for atomic number  45.
 Defaulting to unpruned grid for atomic number  45.
 Defaulting to unpruned grid for atomic number  45.
 Defaulting to unpruned grid for atomic number  45.
 Defaulting to unpruned grid for atomic number  45.
 Defaulting to unpruned grid for atomic number  45.
 Defaulting to unpruned grid for atomic number  45.
 Defaulting to unpruned grid for atomic number  45.
 Defaulting to unpruned grid for atomic number  45.
 Defaulting to unpruned grid for atomic number  45.
 Defaulting to unpruned grid for atomic number  45.
 Defaulting to unpruned grid for atomic number  45.
 Defaulting to unpruned grid for atomic number  45.
 Defaulting to unpruned grid for atomic number  45.
 Defaulting to unpruned grid for atomic number  45.
 Defaulting to unpruned grid for atomic number  45.
 Defaulting to unpruned grid for atomic number  45.
 Defaulting to unpruned grid for atomic number  45.
 Defaulting to unpruned grid for atomic number  45.
 Defaulting to unpruned grid for atomic number  45.
 Defaulting to unpruned grid for atomic number  45.
 Defaulting to unpruned grid for atomic number  45.
 Defaulting to unpruned grid for atomic number  45.
 Defaulting to unpruned grid for atomic number  45.
 Defaulting to unpruned grid for atomic number  45.
 Defaulting to unpruned grid for atomic number  45.
 Defaulting to unpruned grid for atomic number  45.
 Defaulting to unpruned grid for atomic number  45.
 Defaulting to unpruned grid for atomic number  45.
 Defaulting to unpruned grid for atomic number  45.
 Defaulting to unpruned grid for atomic number  45.
 Defaulting to unpruned grid for atomic number  45.
 Defaulting to unpruned grid for atomic number  45.
 Defaulting to unpruned grid for atomic number  45.
 Defaulting to unpruned grid for atomic number  45.
 Defaulting to unpruned grid for atomic number  45.
 Defaulting to unpruned grid for atomic number  45.
 Defaulting to unpruned grid for atomic number  45.
 Defaulting to unpruned grid for atomic number  45.
 Inv3:  Mode=1 IEnd=    20015667.
 Iteration    1 A*A^-1 deviation from unit magnitude is 3.11D-15 for   2301.
 Iteration    1 A*A^-1 deviation from orthogonality  is 2.05D-15 for   2298    664.
 Iteration    1 A^-1*A deviation from unit magnitude is 2.66D-15 for    614.
 Iteration    1 A^-1*A deviation from orthogonality  is 1.93D-15 for   1525    269.
 Error on total polarization charges =  0.01784
 SCF Done:  E(RwB97XD) =  -820.651019809     A.U. after   18 cycles
            NFock= 18  Conv=0.29D-08     -V/T= 2.0991

 **********************************************************************

            Population analysis using the SCF Density.

 **********************************************************************

 Orbital symmetries:
       Occupied  (A) (A) (A) (A) (A) (A) (A) (A) (A) (A) (A) (A)
                 (A) (A) (A) (A) (A) (A) (A) (A) (A) (A) (A) (A)
                 (A) (A) (A) (A) (A) (A) (A) (A) (A) (A) (A) (A)
                 (A) (A) (A) (A) (A) (A) (A) (A) (A) (A) (A) (A)
                 (A) (A) (A) (A) (A) (A) (A) (A) (A) (A) (A) (A)
                 (A) (A) (A) (A) (A) (A) (A) (A) (A) (A)
       Virtual   (A) (A) (A) (A) (A) (A) (A) (A) (A) (A) (A) (A)
                 (A) (A) (A) (A) (A) (A) (A) (A) (A) (A) (A) (A)
                 (A) (A) (A) (A) (A) (A) (A) (A) (A) (A) (A) (A)
                 (A) (A) (A) (A) (A) (A) (A) (A) (A) (A) (A) (A)
                 (A) (A) (A) (A) (A) (A) (A) (A) (A) (A) (A) (A)
                 (A) (A) (A) (A) (A) (A) (A) (A) (A) (A) (A) (A)
                 (A) (A) (A) (A) (A) (A) (A) (A) (A) (A) (A) (A)
                 (A) (A) (A) (A) (A) (A) (A) (A) (A) (A) (A) (A)
                 (A) (A) (A) (A) (A) (A) (A) (A) (A) (A) (A) (A)
                 (A) (A) (A) (A) (A) (A) (A) (A) (A) (A) (A) (A)
                 (A) (A) (A) (A) (A) (A) (A) (A) (A) (A) (A) (A)
                 (A) (A) (A) (A) (A) (A) (A) (A) (A) (A) (A) (A)
                 (A) (A) (A) (A) (A) (A) (A) (A) (A) (A) (A) (A)
                 (A) (A) (A) (A) (A) (A) (A) (A) (A) (A) (A) (A)
                 (A) (A) (A) (A) (A) (A) (A) (A) (A) (A) (A) (A)
                 (A) (A) (A) (A) (A) (A) (A) (A) (A) (A) (A) (A)
                 (A) (A) (A) (A) (A) (A) (A) (A) (A) (A) (A) (A)
                 (A) (A) (A) (A) (A) (A) (A) (A) (A) (A) (A) (A)
                 (A) (A) (A) (A) (A) (A) (A) (A) (A) (A) (A) (A)
                 (A) (A) (A) (A) (A) (A) (A) (A) (A) (A) (A) (A)
                 (A) (A) (A) (A) (A) (A) (A) (A) (A) (A) (A) (A)
                 (A) (A) (A) (A) (A) (A) (A) (A) (A) (A) (A) (A)
                 (A) (A) (A) (A) (A) (A) (A) (A) (A) (A) (A) (A)
                 (A) (A) (A) (A) (A) (A) (A) (A) (A) (A) (A) (A)
                 (A) (A) (A) (A) (A) (A) (A) (A) (A) (A) (A) (A)
                 (A) (A) (A) (A) (A) (A) (A) (A) (A) (A) (A) (A)
                 (A) (A) (A) (A) (A) (A) (A) (A) (A) (A) (A) (A)
                 (A) (A) (A) (A) (A) (A) (A) (A) (A) (A) (A) (A)
                 (A) (A) (A) (A) (A) (A) (A) (A) (A) (A) (A) (A)
                 (A) (A) (A) (A) (A) (A) (A) (A) (A) (A) (A) (A)
                 (A) (A) (A) (A) (A) (A) (A) (A) (A) (A) (A) (A)
                 (A) (A) (A) (A) (A) (A) (A) (A) (A) (A) (A) (A)
                 (A) (A) (A) (A) (A) (A) (A) (A) (A) (A) (A) (A)
                 (A) (A) (A) (A) (A) (A) (A) (A) (A) (A) (A) (A)
                 (A) (A) (A) (A) (A) (A) (A) (A) (A) (A) (A) (A)
                 (A) (A) (A) (A) (A) (A) (A) (A) (A) (A) (A) (A)
                 (A) (A) (A) (A) (A) (A) (A) (A) (A) (A) (A) (A)
                 (A) (A) (A) (A) (A) (A) (A) (A) (A) (A) (A) (A)
                 (A) (A) (A) (A) (A) (A) (A) (A) (A) (A) (A) (A)
                 (A) (A) (A) (A) (A) (A) (A) (A) (A) (A) (A) (A)
                 (A) (A) (A) (A) (A) (A) (A) (A) (A) (A) (A) (A)
                 (A) (A) (A) (A) (A) (A) (A) (A) (A) (A) (A) (A)
                 (A) (A) (A) (A) (A) (A) (A) (A) (A) (A) (A) (A)
                 (A) (A) (A) (A) (A) (A) (A) (A) (A) (A) (A) (A)
                 (A) (A) (A) (A) (A) (A) (A) (A) (A) (A) (A) (A)
                 (A) (A) (A) (A) (A) (A) (A) (A) (A) (A) (A) (A)
                 (A) (A) (A) (A) (A) (A) (A) (A) (A) (A) (A) (A)
                 (A) (A) (A) (A) (A) (A) (A) (A) (A) (A) (A) (A)
                 (A) (A) (A) (A) (A) (A) (A) (A) (A) (A) (A) (A)
                 (A) (A) (A) (A) (A) (A) (A) (A) (A) (A) (A) (A)
                 (A) (A) (A) (A) (A) (A) (A) (A) (A) (A) (A) (A)
                 (A) (A) (A) (A) (A) (A) (A) (A) (A) (A) (A) (A)
                 (A) (A) (A) (A) (A) (A) (A) (A) (A) (A) (A) (A)
                 (A) (A) (A) (A) (A) (A) (A) (A) (A) (A) (A) (A)
                 (A) (A) (A) (A) (A) (A) (A) (A) (A) (A) (A) (A)
                 (A) (A) (A) (A) (A) (A) (A) (A) (A) (A) (A) (A)
                 (A) (A) (A) (A) (A) (A) (A) (A) (A) (A) (A) (A)
                 (A) (A) (A) (A) (A) (A) (A) (A) (A) (A) (A) (A)
                 (A) (A) (A) (A) (A) (A) (A) (A) (A) (A) (A) (A)
                 (A) (A) (A) (A) (A) (A) (A) (A) (A) (A) (A) (A)
                 (A) (A) (A) (A) (A) (A) (A) (A) (A) (A) (A) (A)
                 (A) (A) (A) (A) (A) (A) (A) (A) (A) (A) (A) (A)
                 (A) (A) (A) (A) (A) (A) (A) (A) (A) (A) (A) (A)
                 (A) (A) (A) (A) (A) (A) (A) (A) (A) (A) (A) (A)
                 (A) (A) (A) (A) (A) (A) (A) (A) (A) (A) (A) (A)
                 (A) (A) (A) (A) (A) (A) (A) (A) (A) (A)
 The electronic state is 1-A.
 Alpha  occ. eigenvalues --  -19.29778 -14.47952 -14.47919 -14.46209 -10.37603
 Alpha  occ. eigenvalues --  -10.34375 -10.34276 -10.33192 -10.33095 -10.30804
 Alpha  occ. eigenvalues --  -10.30798 -10.30771 -10.30761 -10.30736 -10.30435
 Alpha  occ. eigenvalues --  -10.20769  -3.24116  -2.00144  -2.00082  -1.97353
 Alpha  occ. eigenvalues --   -1.18093  -1.07459  -1.04458  -1.03440  -0.90548
 Alpha  occ. eigenvalues --   -0.90368  -0.82760  -0.81040  -0.80729  -0.80692
 Alpha  occ. eigenvalues --   -0.74158  -0.72776  -0.70859  -0.69824  -0.69288
 Alpha  occ. eigenvalues --   -0.64134  -0.61512  -0.58824  -0.58413  -0.57444
 Alpha  occ. eigenvalues --   -0.57188  -0.56267  -0.55749  -0.55169  -0.52663
 Alpha  occ. eigenvalues --   -0.51297  -0.51053  -0.49707  -0.49479  -0.48660
 Alpha  occ. eigenvalues --   -0.47976  -0.47236  -0.46253  -0.46225  -0.45435
 Alpha  occ. eigenvalues --   -0.45204  -0.44316  -0.43807  -0.42717  -0.41520
 Alpha  occ. eigenvalues --   -0.41171  -0.39732  -0.35406  -0.35343  -0.34509
 Alpha  occ. eigenvalues --   -0.28970  -0.24705  -0.23742  -0.22113  -0.21500
 Alpha virt. eigenvalues --    0.02967   0.03642   0.08463   0.09288   0.10212
 Alpha virt. eigenvalues --    0.10740   0.11584   0.12102   0.13974   0.14672
 Alpha virt. eigenvalues --    0.15185   0.15667   0.16123   0.16561   0.17275
 Alpha virt. eigenvalues --    0.17488   0.17759   0.18459   0.18582   0.19169
 Alpha virt. eigenvalues --    0.19404   0.20381   0.20780   0.21165   0.21683
 Alpha virt. eigenvalues --    0.22207   0.22967   0.23099   0.23305   0.23623
 Alpha virt. eigenvalues --    0.24097   0.24817   0.25085   0.25611   0.26440
 Alpha virt. eigenvalues --    0.27075   0.28400   0.28635   0.28844   0.29531
 Alpha virt. eigenvalues --    0.30514   0.30790   0.31623   0.31703   0.32286
 Alpha virt. eigenvalues --    0.32935   0.33137   0.33410   0.33730   0.34712
 Alpha virt. eigenvalues --    0.35056   0.35520   0.37201   0.37827   0.38244
 Alpha virt. eigenvalues --    0.38948   0.39294   0.39643   0.39939   0.40168
 Alpha virt. eigenvalues --    0.40788   0.41577   0.41663   0.42242   0.43211
 Alpha virt. eigenvalues --    0.43704   0.43913   0.44268   0.44724   0.45570
 Alpha virt. eigenvalues --    0.45871   0.46833   0.47084   0.47344   0.47629
 Alpha virt. eigenvalues --    0.48751   0.48909   0.49973   0.50225   0.50330
 Alpha virt. eigenvalues --    0.50422   0.50974   0.51487   0.51670   0.51969
 Alpha virt. eigenvalues --    0.52191   0.52395   0.52671   0.53406   0.53681
 Alpha virt. eigenvalues --    0.54456   0.54921   0.55235   0.55458   0.55866
 Alpha virt. eigenvalues --    0.56017   0.56717   0.57117   0.58487   0.58977
 Alpha virt. eigenvalues --    0.59374   0.60011   0.60546   0.60821   0.61631
 Alpha virt. eigenvalues --    0.62664   0.63528   0.63812   0.63977   0.64580
 Alpha virt. eigenvalues --    0.65435   0.65895   0.67160   0.67335   0.68810
 Alpha virt. eigenvalues --    0.68976   0.69675   0.70157   0.71607   0.71929
 Alpha virt. eigenvalues --    0.72465   0.73455   0.74236   0.75534   0.75637
 Alpha virt. eigenvalues --    0.75770   0.76259   0.76556   0.77194   0.77761
 Alpha virt. eigenvalues --    0.80379   0.81685   0.82177   0.82959   0.83756
 Alpha virt. eigenvalues --    0.84378   0.84828   0.85787   0.86402   0.86573
 Alpha virt. eigenvalues --    0.87053   0.87411   0.88412   0.88546   0.89531
 Alpha virt. eigenvalues --    0.90351   0.91531   0.92612   0.93481   0.94722
 Alpha virt. eigenvalues --    0.94933   0.95204   0.96668   0.96857   0.97315
 Alpha virt. eigenvalues --    0.97683   0.98941   0.99617   0.99738   1.00606
 Alpha virt. eigenvalues --    1.00981   1.01739   1.02926   1.04170   1.04307
 Alpha virt. eigenvalues --    1.04864   1.05469   1.05804   1.06003   1.06605
 Alpha virt. eigenvalues --    1.07192   1.08066   1.09216   1.09398   1.10034
 Alpha virt. eigenvalues --    1.10781   1.11057   1.11659   1.12387   1.13292
 Alpha virt. eigenvalues --    1.13715   1.13923   1.14313   1.15664   1.16528
 Alpha virt. eigenvalues --    1.17149   1.17721   1.18195   1.18434   1.19273
 Alpha virt. eigenvalues --    1.20117   1.20798   1.21185   1.22051   1.22866
 Alpha virt. eigenvalues --    1.23621   1.24176   1.24624   1.25720   1.25876
 Alpha virt. eigenvalues --    1.26192   1.28209   1.28961   1.29189   1.29381
 Alpha virt. eigenvalues --    1.31140   1.31433   1.31677   1.33104   1.33372
 Alpha virt. eigenvalues --    1.34056   1.34584   1.35155   1.36222   1.36739
 Alpha virt. eigenvalues --    1.37125   1.37917   1.37977   1.38909   1.39743
 Alpha virt. eigenvalues --    1.40893   1.41191   1.41484   1.42037   1.42534
 Alpha virt. eigenvalues --    1.42807   1.43342   1.44543   1.45723   1.46202
 Alpha virt. eigenvalues --    1.46407   1.46820   1.48371   1.48828   1.49338
 Alpha virt. eigenvalues --    1.49854   1.50752   1.50985   1.51421   1.52912
 Alpha virt. eigenvalues --    1.53510   1.54440   1.54617   1.54828   1.55572
 Alpha virt. eigenvalues --    1.56157   1.56299   1.56853   1.58065   1.58189
 Alpha virt. eigenvalues --    1.59769   1.59996   1.60169   1.61080   1.61822
 Alpha virt. eigenvalues --    1.61856   1.62468   1.62711   1.63756   1.65068
 Alpha virt. eigenvalues --    1.65642   1.66386   1.66419   1.67891   1.68416
 Alpha virt. eigenvalues --    1.69105   1.70244   1.70590   1.71336   1.71914
 Alpha virt. eigenvalues --    1.72925   1.74027   1.75006   1.76186   1.76849
 Alpha virt. eigenvalues --    1.78407   1.78713   1.79466   1.80119   1.82317
 Alpha virt. eigenvalues --    1.83024   1.83727   1.84421   1.84962   1.86445
 Alpha virt. eigenvalues --    1.86570   1.87155   1.87222   1.88264   1.88897
 Alpha virt. eigenvalues --    1.90413   1.90620   1.92606   1.93056   1.93817
 Alpha virt. eigenvalues --    1.94790   1.95234   1.96674   1.98193   1.99581
 Alpha virt. eigenvalues --    2.00022   2.01087   2.01987   2.04362   2.04495
 Alpha virt. eigenvalues --    2.06600   2.07434   2.08452   2.08920   2.10846
 Alpha virt. eigenvalues --    2.11041   2.13267   2.13992   2.16066   2.17782
 Alpha virt. eigenvalues --    2.18532   2.19117   2.20180   2.22093   2.23404
 Alpha virt. eigenvalues --    2.23844   2.24323   2.24860   2.25583   2.25933
 Alpha virt. eigenvalues --    2.28580   2.29799   2.30589   2.30848   2.33535
 Alpha virt. eigenvalues --    2.34823   2.35927   2.37342   2.39335   2.40569
 Alpha virt. eigenvalues --    2.40973   2.42770   2.43897   2.45843   2.46789
 Alpha virt. eigenvalues --    2.47311   2.52672   2.53296   2.54232   2.58908
 Alpha virt. eigenvalues --    2.60409   2.61155   2.62008   2.62520   2.62754
 Alpha virt. eigenvalues --    2.62889   2.66414   2.66899   2.68442   2.69696
 Alpha virt. eigenvalues --    2.70659   2.71363   2.71717   2.72318   2.72922
 Alpha virt. eigenvalues --    2.73472   2.74702   2.75796   2.76476   2.77067
 Alpha virt. eigenvalues --    2.78336   2.78616   2.79853   2.80318   2.80572
 Alpha virt. eigenvalues --    2.82182   2.83965   2.84693   2.85795   2.86429
 Alpha virt. eigenvalues --    2.87311   2.88312   2.88986   2.89703   2.90474
 Alpha virt. eigenvalues --    2.91708   2.92079   2.92677   2.93088   2.94064
 Alpha virt. eigenvalues --    2.94382   2.94845   2.95325   2.96782   2.97625
 Alpha virt. eigenvalues --    2.97731   2.98653   2.98738   2.99677   3.00146
 Alpha virt. eigenvalues --    3.00695   3.01217   3.01536   3.03030   3.03208
 Alpha virt. eigenvalues --    3.03704   3.04478   3.04696   3.05280   3.05870
 Alpha virt. eigenvalues --    3.06001   3.07682   3.07970   3.08693   3.09030
 Alpha virt. eigenvalues --    3.09289   3.09397   3.11063   3.11639   3.12135
 Alpha virt. eigenvalues --    3.13038   3.13707   3.14271   3.15222   3.15659
 Alpha virt. eigenvalues --    3.15811   3.16386   3.16462   3.17820   3.18527
 Alpha virt. eigenvalues --    3.19578   3.19843   3.20530   3.21047   3.21570
 Alpha virt. eigenvalues --    3.22114   3.23003   3.23979   3.25703   3.26595
 Alpha virt. eigenvalues --    3.27148   3.27993   3.29170   3.29585   3.29837
 Alpha virt. eigenvalues --    3.30218   3.30979   3.32042   3.32584   3.33403
 Alpha virt. eigenvalues --    3.33524   3.34251   3.35366   3.35796   3.36250
 Alpha virt. eigenvalues --    3.38288   3.38498   3.38774   3.39513   3.40781
 Alpha virt. eigenvalues --    3.41245   3.41597   3.42498   3.42900   3.44329
 Alpha virt. eigenvalues --    3.44776   3.45210   3.45709   3.47262   3.47468
 Alpha virt. eigenvalues --    3.48084   3.48666   3.49043   3.49908   3.50544
 Alpha virt. eigenvalues --    3.51098   3.52036   3.52584   3.53643   3.54130
 Alpha virt. eigenvalues --    3.55355   3.55821   3.56152   3.56648   3.57065
 Alpha virt. eigenvalues --    3.57384   3.58515   3.59126   3.59333   3.59462
 Alpha virt. eigenvalues --    3.59714   3.60371   3.62273   3.62792   3.63217
 Alpha virt. eigenvalues --    3.64237   3.65163   3.65779   3.66842   3.67275
 Alpha virt. eigenvalues --    3.67479   3.68562   3.69360   3.69602   3.69947
 Alpha virt. eigenvalues --    3.70769   3.72214   3.73532   3.73965   3.74266
 Alpha virt. eigenvalues --    3.74815   3.75109   3.76556   3.77299   3.77595
 Alpha virt. eigenvalues --    3.78296   3.78488   3.79894   3.81038   3.81819
 Alpha virt. eigenvalues --    3.82439   3.82595   3.83452   3.84578   3.85334
 Alpha virt. eigenvalues --    3.85433   3.86904   3.87605   3.88526   3.89385
 Alpha virt. eigenvalues --    3.90452   3.90683   3.91676   3.92152   3.92760
 Alpha virt. eigenvalues --    3.94171   3.94847   3.95601   3.95977   3.97521
 Alpha virt. eigenvalues --    3.97723   3.98862   4.00346   4.00532   4.01606
 Alpha virt. eigenvalues --    4.01799   4.04112   4.04636   4.04908   4.05986
 Alpha virt. eigenvalues --    4.06604   4.07259   4.08254   4.09562   4.10020
 Alpha virt. eigenvalues --    4.10798   4.11180   4.13458   4.13883   4.14621
 Alpha virt. eigenvalues --    4.15202   4.15707   4.16650   4.17258   4.18375
 Alpha virt. eigenvalues --    4.18396   4.19840   4.20105   4.20308   4.20837
 Alpha virt. eigenvalues --    4.21254   4.21586   4.22572   4.22855   4.23224
 Alpha virt. eigenvalues --    4.24100   4.24331   4.24865   4.25202   4.26334
 Alpha virt. eigenvalues --    4.26696   4.27194   4.28111   4.28551   4.29545
 Alpha virt. eigenvalues --    4.29757   4.30294   4.30864   4.30999   4.31926
 Alpha virt. eigenvalues --    4.32771   4.33239   4.33863   4.34847   4.35626
 Alpha virt. eigenvalues --    4.35940   4.36253   4.36631   4.36905   4.38981
 Alpha virt. eigenvalues --    4.39306   4.39912   4.40408   4.41039   4.41174
 Alpha virt. eigenvalues --    4.41715   4.44349   4.45158   4.45756   4.46328
 Alpha virt. eigenvalues --    4.47091   4.47749   4.48924   4.49388   4.50026
 Alpha virt. eigenvalues --    4.50040   4.52187   4.52771   4.53327   4.54269
 Alpha virt. eigenvalues --    4.54509   4.55641   4.56524   4.57376   4.57753
 Alpha virt. eigenvalues --    4.58272   4.60676   4.61054   4.61740   4.65858
 Alpha virt. eigenvalues --    4.65988   4.66923   4.67842   4.68361   4.69269
 Alpha virt. eigenvalues --    4.71549   4.72307   4.73154   4.75098   4.76223
 Alpha virt. eigenvalues --    4.76531   4.78254   4.79809   4.79966   4.81039
 Alpha virt. eigenvalues --    4.81736   4.82119   4.83262   4.83967   4.84432
 Alpha virt. eigenvalues --    4.84807   4.85408   4.87296   4.89333   4.90319
 Alpha virt. eigenvalues --    4.91239   4.92801   4.93311   4.93423   4.94492
 Alpha virt. eigenvalues --    4.95049   4.99008   5.00979   5.01823   5.03867
 Alpha virt. eigenvalues --    5.04242   5.04975   5.05429   5.06212   5.06570
 Alpha virt. eigenvalues --    5.08386   5.09246   5.09870   5.11345   5.12007
 Alpha virt. eigenvalues --    5.13301   5.13680   5.14949   5.15590   5.17468
 Alpha virt. eigenvalues --    5.17860   5.18988   5.19511   5.20944   5.22316
 Alpha virt. eigenvalues --    5.23434   5.23517   5.24323   5.24699   5.25404
 Alpha virt. eigenvalues --    5.25843   5.26604   5.26971   5.27678   5.28798
 Alpha virt. eigenvalues --    5.29819   5.30499   5.31127   5.31617   5.32402
 Alpha virt. eigenvalues --    5.33255   5.33691   5.35794   5.37749   5.37943
 Alpha virt. eigenvalues --    5.38790   5.39637   5.39892   5.40939   5.41784
 Alpha virt. eigenvalues --    5.42354   5.43065   5.43842   5.45242   5.46232
 Alpha virt. eigenvalues --    5.47120   5.49428   5.49936   5.50129   5.51159
 Alpha virt. eigenvalues --    5.52326   5.52920   5.53750   5.54547   5.54891
 Alpha virt. eigenvalues --    5.55960   5.56652   5.59307   5.62374   5.63597
 Alpha virt. eigenvalues --    5.65074   5.65916   5.67329   5.67958   5.68354
 Alpha virt. eigenvalues --    5.68962   5.70521   5.70833   5.73177   5.74228
 Alpha virt. eigenvalues --    5.75412   5.76590   5.77761   5.78157   5.79302
 Alpha virt. eigenvalues --    5.79358   5.80481   5.80886   5.81710   5.81911
 Alpha virt. eigenvalues --    5.83297   5.84212   5.86657   5.92721   5.94949
 Alpha virt. eigenvalues --    5.99366   6.02805   6.07237   6.08463   6.11596
 Alpha virt. eigenvalues --    6.13336   6.17857   6.20697   6.23688   6.27713
 Alpha virt. eigenvalues --    6.33568   6.33846   6.40249   6.50427   6.58931
 Alpha virt. eigenvalues --    6.68413   6.83343   6.89025   6.93690   7.16060
 Alpha virt. eigenvalues --    7.53571   7.58383  22.90155  23.11321  23.20124
 Alpha virt. eigenvalues --   23.40128  23.42162  23.47744  23.50359  23.65900
 Alpha virt. eigenvalues --   23.74711  23.76559  23.84562  23.85969  31.13628
 Alpha virt. eigenvalues --   32.92546  32.97057  33.10614  44.18703 102.36604
          Condensed to atoms (all electrons):
               1          2          3          4          5          6
     1  C    5.240646  -0.072793   0.368353  -0.021071  -0.016476  -0.003059
     2  C   -0.072793   5.116440  -0.008767   0.527759  -0.070806  -0.000507
     3  C    0.368353  -0.008767   5.217221  -0.030926   0.438843   0.405005
     4  C   -0.021071   0.527759  -0.030926   4.989827   0.496263   0.004071
     5  C   -0.016476  -0.070806   0.438843   0.496263   4.639591  -0.029410
     6  H   -0.003059  -0.000507   0.405005   0.004071  -0.029410   0.512068
     7  H   -0.003130  -0.016405   0.011233   0.414710  -0.037318  -0.000096
     8  O    0.010028   0.002217  -0.071921  -0.049073   0.344494  -0.003539
     9  N    0.397963   0.376451  -0.082213  -0.068103  -0.009280   0.003468
    10  C    0.212637  -0.003485  -0.040233  -0.000542   0.005457  -0.004051
    11  H   -0.027131   0.001110   0.000869   0.000677  -0.000673   0.000107
    12  H   -0.063992  -0.000608  -0.004951  -0.000430   0.001874   0.000472
    13  C   -0.005240   0.240056   0.001193  -0.063249   0.009143  -0.000000
    14  H    0.001162  -0.027631   0.000609   0.000868  -0.000705   0.000000
    15  H   -0.000611  -0.064406  -0.000410  -0.003703   0.001703  -0.000004
    16  N   -0.005988  -0.000268   0.000631  -0.000023  -0.000024   0.000198
    17  N   -0.000483  -0.008508   0.000057   0.002857  -0.000473  -0.000000
    18  C    0.015631   0.000350   0.000084   0.000043  -0.000072   0.000001
    19  H   -0.000127   0.000032   0.000061   0.000005  -0.000003  -0.000000
    20  H    0.000950  -0.000040  -0.000029  -0.000005   0.000007   0.000012
    21  H   -0.002573   0.000077  -0.000170   0.000003  -0.000000  -0.000003
    22  C   -0.001289  -0.000268   0.004043   0.000099  -0.000508  -0.000047
    23  H   -0.004825  -0.000118  -0.000795  -0.000022   0.000044  -0.000002
    24  H    0.000630   0.000087  -0.000048   0.000012  -0.000002   0.000000
    25  H    0.015630  -0.000211   0.005593   0.000489  -0.000685   0.000223
    26  C    0.000377   0.016260   0.000023  -0.000254  -0.000004   0.000000
    27  H   -0.000041   0.000897  -0.000004  -0.000031   0.000008  -0.000000
    28  H    0.000033  -0.000150   0.000005   0.000061  -0.000003   0.000000
    29  H    0.000081  -0.002420  -0.000001  -0.000191   0.000006   0.000000
    30  C   -0.000246  -0.001643   0.000050   0.004412  -0.000524   0.000002
    31  H    0.000089   0.000616   0.000009  -0.000052   0.000001   0.000000
    32  H   -0.000119  -0.004680  -0.000021  -0.000794   0.000048  -0.000000
    33  H   -0.000203   0.015244   0.000511   0.005515  -0.000672   0.000005
    34  H    0.008233  -0.002171  -0.015862   0.003995  -0.034965   0.002132
    35  C   -0.001699  -0.001360  -0.000106  -0.000058  -0.000075   0.000009
    36  H    0.000021   0.000169   0.000012   0.000006  -0.000000  -0.000000
    37  H   -0.000024  -0.000042   0.000001   0.000000   0.000001  -0.000000
    38  H    0.000173   0.000029   0.000005   0.000009   0.000001  -0.000000
    39  Rh  -0.105557  -0.103563  -0.019176  -0.019996   0.009913  -0.000958
               7          8          9         10         11         12
     1  C   -0.003130   0.010028   0.397963   0.212637  -0.027131  -0.063992
     2  C   -0.016405   0.002217   0.376451  -0.003485   0.001110  -0.000608
     3  C    0.011233  -0.071921  -0.082213  -0.040233   0.000869  -0.004951
     4  C    0.414710  -0.049073  -0.068103  -0.000542   0.000677  -0.000430
     5  C   -0.037318   0.344494  -0.009280   0.005457  -0.000673   0.001874
     6  H   -0.000096  -0.003539   0.003468  -0.004051   0.000107   0.000472
     7  H    0.502575   0.004511   0.003486   0.000063   0.000001  -0.000006
     8  O    0.004511   7.737826   0.000680  -0.000417  -0.000003   0.000013
     9  N    0.003486   0.000680   6.474736  -0.013928  -0.005286   0.003925
    10  C    0.000063  -0.000417  -0.013928   4.932896   0.422358   0.451719
    11  H    0.000001  -0.000003  -0.005286   0.422358   0.549513  -0.019094
    12  H   -0.000006   0.000013   0.003925   0.451719  -0.019094   0.552526
    13  C   -0.003920  -0.000038  -0.010955  -0.000153  -0.000125   0.000087
    14  H    0.000162  -0.000001  -0.005210  -0.000117   0.000035  -0.000006
    15  H    0.000163  -0.000004   0.003834   0.000090  -0.000006  -0.000000
    16  N   -0.000002   0.000002  -0.040888   0.239181  -0.031171  -0.029742
    17  N    0.000218   0.000000  -0.041313  -0.000293  -0.000001  -0.000030
    18  C    0.000001  -0.000000  -0.000824  -0.053978  -0.003826  -0.006866
    19  H    0.000000   0.000000   0.000023   0.007713   0.000916  -0.000670
    20  H   -0.000000   0.000000  -0.000172  -0.010154  -0.003637   0.007007
    21  H    0.000000  -0.000000   0.000134  -0.005039   0.002296  -0.000270
    22  C    0.000002   0.000002  -0.003644  -0.020294   0.006318  -0.016427
    23  H   -0.000000   0.000000   0.000269  -0.009997  -0.000478   0.009096
    24  H    0.000000  -0.000000  -0.000073   0.006080  -0.000085  -0.000252
    25  H    0.000006  -0.000002  -0.002811  -0.018757   0.000543  -0.003524
    26  C   -0.000008  -0.000000  -0.000835  -0.000064  -0.000003   0.000000
    27  H    0.000012  -0.000000  -0.000170  -0.000001  -0.000000  -0.000000
    28  H   -0.000000   0.000000   0.000027  -0.000003   0.000003  -0.000000
    29  H   -0.000004  -0.000000   0.000117  -0.000014   0.000003  -0.000000
    30  C   -0.000052  -0.000000  -0.003698   0.000243   0.000004   0.000012
    31  H   -0.000000  -0.000000  -0.000067  -0.000005   0.000002  -0.000000
    32  H   -0.000003   0.000000   0.000261   0.000011  -0.000001   0.000000
    33  H    0.000223  -0.000002  -0.002812  -0.000069   0.000007  -0.000010
    34  H   -0.000527   0.334881   0.000111  -0.000179  -0.000001   0.000011
    35  C    0.000009  -0.000000  -0.022668   0.000107  -0.000828   0.000064
    36  H   -0.000000  -0.000000   0.000420  -0.000763   0.000043  -0.000014
    37  H   -0.000000   0.000000   0.000263   0.000336   0.000061   0.000003
    38  H   -0.000000  -0.000000   0.000419  -0.000025   0.000006  -0.000002
    39  Rh  -0.000987   0.000194   0.222592  -0.007313  -0.013934   0.014136
              13         14         15         16         17         18
     1  C   -0.005240   0.001162  -0.000611  -0.005988  -0.000483   0.015631
     2  C    0.240056  -0.027631  -0.064406  -0.000268  -0.008508   0.000350
     3  C    0.001193   0.000609  -0.000410   0.000631   0.000057   0.000084
     4  C   -0.063249   0.000868  -0.003703  -0.000023   0.002857   0.000043
     5  C    0.009143  -0.000705   0.001703  -0.000024  -0.000473  -0.000072
     6  H   -0.000000   0.000000  -0.000004   0.000198  -0.000000   0.000001
     7  H   -0.003920   0.000162   0.000163  -0.000002   0.000218   0.000001
     8  O   -0.000038  -0.000001  -0.000004   0.000002   0.000000  -0.000000
     9  N   -0.010955  -0.005210   0.003834  -0.040888  -0.041313  -0.000824
    10  C   -0.000153  -0.000117   0.000090   0.239181  -0.000293  -0.053978
    11  H   -0.000125   0.000035  -0.000006  -0.031171  -0.000001  -0.003826
    12  H    0.000087  -0.000006  -0.000000  -0.029742  -0.000030  -0.006866
    13  C    4.915145   0.423152   0.452060  -0.000388   0.242218  -0.000049
    14  H    0.423152   0.549251  -0.018772  -0.000001  -0.031178  -0.000003
    15  H    0.452060  -0.018772   0.550869  -0.000030  -0.029976   0.000000
    16  N   -0.000388  -0.000001  -0.000030   6.425291  -0.005525   0.261059
    17  N    0.242218  -0.031178  -0.029976  -0.005525   6.421789   0.000284
    18  C   -0.000049  -0.000003   0.000000   0.261059   0.000284   4.813520
    19  H   -0.000003   0.000003  -0.000000  -0.031435   0.000051   0.422843
    20  H   -0.000001  -0.000000  -0.000000  -0.022517  -0.000014   0.406816
    21  H   -0.000012   0.000003  -0.000000  -0.036234   0.000005   0.427268
    22  C    0.000238   0.000003   0.000012   0.220310   0.001211  -0.043655
    23  H    0.000011  -0.000001   0.000000  -0.027058  -0.000033  -0.009793
    24  H   -0.000004   0.000002  -0.000000  -0.029577   0.000071  -0.005385
    25  H   -0.000067   0.000007  -0.000010  -0.030278   0.000122   0.008088
    26  C   -0.054510  -0.003802  -0.006811   0.000287   0.261662  -0.000050
    27  H   -0.009990  -0.003634   0.006954  -0.000014  -0.022603   0.000002
    28  H    0.007738   0.000922  -0.000664   0.000051  -0.031419  -0.000019
    29  H   -0.005240   0.002246  -0.000245   0.000005  -0.036132   0.000001
    30  C   -0.019890   0.006226  -0.016245   0.001209   0.220424  -0.000052
    31  H    0.006109  -0.000085  -0.000247   0.000072  -0.029588  -0.000004
    32  H   -0.010151  -0.000472   0.009018  -0.000033  -0.026931  -0.000001
    33  H   -0.018523   0.000538  -0.003514   0.000121  -0.030198  -0.000001
    34  H    0.000003  -0.000000  -0.000000   0.000002  -0.000000  -0.000000
    35  C   -0.000037  -0.000815   0.000058  -0.013359  -0.013351  -0.006947
    36  H   -0.000022   0.000006  -0.000002  -0.000585   0.001047  -0.004039
    37  H    0.000349   0.000057   0.000003   0.000049   0.000040  -0.002038
    38  H   -0.000770   0.000045  -0.000014   0.001049  -0.000578   0.000643
    39  Rh  -0.006771  -0.014009   0.013996   0.200704   0.201033  -0.045383
              19         20         21         22         23         24
     1  C   -0.000127   0.000950  -0.002573  -0.001289  -0.004825   0.000630
     2  C    0.000032  -0.000040   0.000077  -0.000268  -0.000118   0.000087
     3  C    0.000061  -0.000029  -0.000170   0.004043  -0.000795  -0.000048
     4  C    0.000005  -0.000005   0.000003   0.000099  -0.000022   0.000012
     5  C   -0.000003   0.000007  -0.000000  -0.000508   0.000044  -0.000002
     6  H   -0.000000   0.000012  -0.000003  -0.000047  -0.000002   0.000000
     7  H    0.000000  -0.000000   0.000000   0.000002  -0.000000   0.000000
     8  O    0.000000   0.000000  -0.000000   0.000002   0.000000  -0.000000
     9  N    0.000023  -0.000172   0.000134  -0.003644   0.000269  -0.000073
    10  C    0.007713  -0.010154  -0.005039  -0.020294  -0.009997   0.006080
    11  H    0.000916  -0.003637   0.002296   0.006318  -0.000478  -0.000085
[...]
 00006532,0.00000481,0.00020018,0.00002515,0.00008071,-0.00018697,0.000
 02371,-0.00008142,-0.00003341,-0.00005389,-0.00000807,0.00026167,0.014
 13059,-0.00004127,-0.00034121,-0.00042964,-0.00020223,0.00005264,0.000
 00880,-0.00004261,-0.00014788,0.00000569,0.00009911,0.00033135,-0.0004
 6002,0.00019546,-0.00004723,0.00000600,0.00004808,0.00013893,0.0000103
 5,-0.00010141,-0.00439256,0.00435131,0.00072634,0.00451204,0.00433120,
 -0.00071151,0.00083054,-0.00039857,-0.00015560,-0.00103040,-0.00103527
 ,0.00095092,-0.00059893,0.00039298,-0.00012068,0.00027672,0.00010230,-
 0.00013514,0.00016328,-0.00030897,-0.00038080,0.00009775,0.00015636,0.
 00017188,-0.00064041,-0.00022578,-0.00005369,0.00007667,-0.00006148,0.
 00001042,-0.00117076,-0.00058387,0.00005184,0.00064463,0.00039887,0.00
 009782,0.00090711,-0.00063843,-0.00085924,-0.00025686,0.00008472,0.000
 11575,-0.00019309,-0.00020295,0.00047941,0.00060788,-0.00028142,-0.000
 03058,-0.00009802,0.00017028,-0.00017422,-0.00007081,-0.00006224,-0.00
 000602,-0.00001676,0.00001594,0.00000229,0.00168312,0.47317987,-0.0001
 4701,-0.00128771,-0.00085857,-0.00014433,0.00126664,-0.00086076,0.0003
 0951,0.00067580,-0.00138838,0.00035700,-0.00063674,-0.00131847,0.00058
 752,-0.00011375,0.00035514,0.00006695,-0.00003626,0.00000602,0.0000660
 6,0.00003669,0.00002428,-0.00128893,-0.00004161,-0.00016383,0.00778512
 ,-0.00004381,0.01521194,-0.00051090,0.00014522,0.00109142,0.00016657,-
 0.00015325,0.00010982,0.00004987,0.00001961,-0.00000362,-0.00049635,-0
 .00012246,0.00104070,0.00015697,0.00013959,0.00010652,0.00005146,-0.00
 002048,-0.00000196,-0.00027751,0.00077134,-0.00109751,-0.00027530,-0.0
 0075729,-0.00108197,-0.00037441,0.00072154,0.00021717,0.00037440,-0.00
 023003,-0.00014036,0.00032782,0.00005326,0.00000016,0.00005031,-0.0000
 5146,0.00003882,0.00013817,-0.00093408,-0.00028306,-0.00019837,-0.0000
 9674,0.00006308,-0.00065847,0.00018292,-0.00015682,0.00012210,-0.00003
 470,0.00009935,-0.00038126,-0.00091784,0.00006169,0.00033738,-0.000056
 94,-0.00000445,0.00034765,0.00043611,-0.00002317,0.00005558,0.00005281
 ,0.00004246,0.00005314,0.00092770,-0.00058043,-0.00045687,-0.00030378,
 -0.00005127,-0.00020054,0.00010162,0.00006714,0.00012953,0.00002857,0.
 00009708,0.00005540,0.00011750,0.00001924,0.02148031,0.00000934,0.4430
 5577,-0.00075563,0.00068774,0.00004581,0.00033083,-0.00013833,0.000122
 76,-0.00009769,-0.00027045,0.00012304,-0.00014827,-0.00009609,0.000108
 48,0.00036280,0.00004118,0.00001633,-0.00013075,-0.00003164,-0.0000291
 4,-0.00002908,0.00001763,0.00000377,-0.00047961,-0.00001834,-0.0000579
 6,-0.00207758,-0.00321521,-0.00185954,0.00011534,0.00022213,-0.0000145
 5,0.00006839,0.00000224,-0.00000781,0.00005116,-0.00004818,-0.00005141
 ,0.00008111,0.00002456,-0.00016689,0.00002856,-0.00001084,-0.00000304,
 -0.00006808,0.00007192,0.00000553,0.00092876,-0.00145275,0.00001017,-0
 .00042237,-0.00070241,0.00018102,-0.00094329,-0.00002542,0.00004347,0.
 00034422,-0.00086873,0.00029956,0.00046832,-0.00009603,-0.00007813,0.0
 0003582,0.00002063,-0.00011350,-0.00058860,0.00001465,0.00068901,0.000
 31317,0.00001163,-0.00024013,-0.00034464,-0.00061876,-0.00085503,0.000
 14827,0.00003672,0.00001751,0.00019636,-0.00009911,-0.00011565,-0.0001
 2214,0.00009575,-0.00001756,-0.00019756,0.00006648,0.00010466,0.000034
 05,-0.00000659,-0.00004780,0.00004677,-0.00009196,0.00014066,-0.000029
 03,-0.00001645,0.00002653,-0.00004125,0.00008017,0.00000495,-0.0000163
 1,0.00000702,-0.00000754,0.00004017,0.00002886,0.00000785,-0.05201663,
 0.07505224,0.04780296,0.05621813,0.00005263,0.00017108,0.00010734,0.00
 014942,-0.00010486,0.00003407,0.00009710,-0.00005528,0.00005490,0.0000
 5317,0.00007853,0.00006339,-0.00028664,0.00001137,-0.00005701,0.000022
 15,0.00001266,-0.00000075,0.00002528,-0.00001791,0.00000689,0.00041520
 ,0.00002305,0.00006126,-0.00054014,-0.00038267,-0.00043773,0.00006349,
 0.00007772,0.00005850,-0.00004401,0.00000760,-0.00001692,0.00005344,0.
 00005972,-0.00001425,-0.00016238,0.00013642,0.00008034,-0.00002677,-0.
 00001010,-0.00002838,0.00004240,-0.00004436,-0.00000685,-0.00020345,-0
 .00094196,0.00016415,-0.00025597,-0.00069019,0.00009602,-0.00040097,-0
 .00020179,0.00023720,-0.00018566,-0.00080545,0.00026817,0.00013465,0.0
 0017483,-0.00008579,-0.00015473,-0.00003679,0.00006057,-0.00012672,-0.
 00017150,0.00001599,0.00004822,0.00011299,0.00005065,0.00003966,-0.000
 06121,-0.00005912,-0.00006761,0.00004753,-0.00001326,-0.00026756,-0.00
 010563,0.00030490,0.00016616,-0.00007430,-0.00006925,0.00023955,0.0003
 5714,0.00002510,0.00007074,0.00001153,-0.00008443,-0.00012619,0.000006
 13,-0.00010965,-0.00006235,0.00008482,-0.00023450,0.00006729,-0.000100
 17,0.00000564,0.00009335,-0.00001030,-0.00001101,-0.00002885,-0.000031
 50,-0.00000693,0.05508979,-0.19649990,-0.09652190,-0.06437843,0.219045
 95,0.00023779,0.00002428,-0.00002755,0.00009907,-0.00006331,-0.0000362
 9,0.00000121,0.00000315,-0.00003711,0.00004171,0.00007675,-0.00000749,
 -0.00025830,-0.00002247,-0.00001632,0.00003168,0.00001320,0.00000603,0
 .00002053,-0.00001383,0.00000396,0.00040176,0.00002046,0.00004571,-0.0
 0023177,0.00021600,0.00061590,0.00005608,0.00000397,-0.00004173,-0.000
 03450,-0.00000928,-0.00000659,-0.00000626,0.00003117,0.00000970,-0.000
 01002,0.00009774,0.00001237,-0.00003380,0.00000084,-0.00001339,0.00000
 884,-0.00003167,0.00000803,-0.00023560,-0.00039404,-0.00013966,-0.0001
 4715,-0.00026458,0.00003682,0.00048377,-0.00021590,-0.00014394,0.00002
 909,0.00086537,-0.00034490,-0.00022571,0.00003468,0.00007305,-0.000078
 58,-0.00000189,0.00009262,-0.00005393,0.00001865,0.00006864,0.00003746
 ,0.00006920,0.00001458,-0.00003088,-0.00011415,0.00001857,-0.00011626,
 0.00000850,-0.00003213,0.00012169,0.00015160,0.00014472,-0.00004985,-0
 .00002057,0.00002044,-0.00004024,-0.00008757,-0.00011083,-0.00005777,0
 .00002005,0.00004850,0.00001451,-0.00001278,-0.00014487,0.00006419,-0.
 00004571,0.00008207,-0.00000719,-0.00004665,0.00003757,-0.00003915,0.0
 0000055,-0.00000417,-0.00002646,-0.00003118,-0.00000393,0.03511718,-0.
 09969148,-0.10565932,-0.04100671,0.11025019,0.11432521,-0.00026828,-0.
 00003685,-0.00025667,-0.00028017,0.00002386,-0.00025610,-0.00010091,0.
 00023689,-0.00044019,-0.00005823,-0.00020402,-0.00041497,0.00076256,-0
 .00007562,0.00016493,-0.00007229,-0.00004868,-0.00002033,-0.00005865,0
 .00004533,-0.00001349,-0.00119197,-0.00003482,-0.00013010,-0.00007967,
 -0.00000196,0.00441981,-0.00009724,0.00019320,0.00030223,0.00012293,-0
 .00004412,0.00007006,-0.00000588,-0.00006701,-0.00001557,-0.00009313,-
 0.00018188,0.00028187,0.00011741,0.00003816,0.00006763,-0.00000270,0.0
 0006658,-0.00001464,0.00009384,-0.00007691,-0.00033753,0.00008964,0.00
 007874,-0.00033341,-0.00014588,0.00031676,-0.00019556,0.00008847,-0.00
 007676,-0.00012624,0.00010927,-0.00005857,0.00005533,-0.00009698,-0.00
 004547,0.00013480,0.00011324,-0.00023410,0.00001003,-0.00011262,-0.000
 14450,-0.00000321,-0.00012556,0.00005002,0.00010194,0.00002875,0.00000
 556,0.00004882,-0.00014702,-0.00029134,-0.00019307,0.00010905,0.000057
 00,0.00005554,0.00009402,0.00006955,-0.00012025,-0.00009427,0.00004454
 ,0.00013793,0.00011557,0.00020912,0.00001339,-0.00013384,-0.00003996,0
 .00009616,-0.00010845,0.00014564,-0.00000361,0.00003192,-0.00001006,0.
 00004719,0.00007967,0.00009069,0.00000988,-0.09698724,0.00054503,-0.13
 282206,0.00276165,0.00015808,0.00829736,0.09946871,0.00002684,-0.00000
 701,0.00008444,-0.00002282,-0.00000542,-0.00008009,-0.00000600,0.00001
 071,0.00001752,0.00000674,0.00001308,-0.00001148,-0.00000432,-0.000013
 76,-0.00000163,0.00000244,0.00000147,-0.00000042,-0.00000145,0.0000008
 3,0.00000116,0.00000671,0.00000128,0.00000102,0.00000550,0.00016025,-0
 .00003100,-0.00002778,-0.00004595,0.00003912,-0.00002728,-0.00000754,-
 0.00000624,-0.00000015,0.00000182,-0.00000081,0.00002753,-0.00004477,-
 0.00004364,0.00002583,-0.00000833,0.00000427,-0.00000007,0.00000122,0.
 00000072,0.00003828,0.00014904,0.00006195,-0.00003623,0.00014875,-0.00
 005972,0.00001573,0.00014900,0.00012175,0.00010862,0.00007520,-0.00019
 951,0.00006687,0.00000672,-0.00000297,-0.00004718,-0.00004883,0.000010
 88,0.00013172,-0.00010681,-0.00017187,-0.00013402,-0.00001400,0.000084
 07,-0.00002591,0.00012450,0.00018741,-0.00002153,0.00001608,-0.0000055
 8,-0.00000785,0.00018184,-0.00008651,-0.00007069,0.00000732,0.00000078
 ,-0.00012102,0.00008072,0.00019891,0.00005189,-0.00005780,-0.00001936,
 -0.00013807,-0.00010246,0.00017653,0.00004021,0.00012148,-0.00018542,0
 .00013689,-0.00001771,-0.00008474,0.00002228,0.00001621,0.00000443,-0.
 00000026,-0.00000027,-0.00000033,0.00049103,-0.04157122,0.00132007,-0.
 01350040,-0.00056924,-0.02372069,-0.00052540,0.04258075,-0.00002198,-0
 .00007182,-0.00001142,-0.00002190,0.00006733,-0.00000714,-0.00008082,-
 0.00001115,0.00008908,-0.00007751,0.00001259,0.00008466,0.00011604,-0.
 00000122,-0.00000492,-0.00001955,-0.00000365,-0.00000479,-0.00001652,0
 .00000279,-0.00000629,-0.00012316,-0.00000350,-0.00000041,0.00008497,0
 .00000128,-0.00098751,0.00001494,0.00004371,-0.00008397,-0.00001141,0.
 00003666,0.00000090,-0.00002638,-0.00002301,-0.00000710,0.00001534,-0.
 00004195,-0.00008083,-0.00001151,-0.00003514,0.00000071,-0.00002591,0.
 00002336,-0.00000721,0.00013679,0.00003059,0.00032343,0.00013687,-0.00
 003019,0.00031962,0.00001199,-0.00004638,-0.00005782,-0.00013426,0.000
 01430,-0.00009176,-0.00005762,-0.00008907,-0.00000200,-0.00003533,0.00
 000677,-0.00000057,0.00019239,0.00022155,0.00008058,-0.00003835,0.0000
 3748,0.00001711,0.00008469,0.00008757,0.00012234,-0.00007729,0.0000222
 4,-0.00001444,0.00000886,0.00008257,-0.00003884,-0.00005832,0.00009077
 ,-0.00000322,-0.00012725,-0.00003245,-0.00009148,-0.00003436,-0.000008
 27,-0.00000331,0.00019111,-0.00022629,0.00008120,0.00007534,-0.0000865
 6,0.00011801,-0.00003939,-0.00003733,0.00001671,-0.00007936,-0.0000205
 4,-0.00001369,0.00001349,0.00000657,0.00000109,-0.10429860,0.00112636,
 -0.20988983,-0.00848282,-0.00046096,-0.01591434,0.12347578,-0.00132366
 ,0.23903888,0.00033853,0.00012533,0.00012145,-0.00077292,-0.00068443,0
 .00004609,-0.00016651,0.00010987,0.00010930,-0.00007810,0.00028687,0.0
 0011865,0.00036620,-0.00008858,0.00001717,-0.00003662,-0.00001974,0.00
 000400,-0.00011693,0.00002832,-0.00002967,-0.00048780,-0.00000596,-0.0
 0005761,-0.00201052,0.00324629,-0.00184041,0.00007807,-0.00001761,-0.0
 0016975,0.00003016,0.00000982,-0.00000203,-0.00007061,-0.00007215,0.00
 000526,0.00010723,-0.00022667,-0.00000838,0.00006773,-0.00000319,-0.00
 000855,0.00005179,0.00004828,-0.00005172,-0.00040644,0.00069598,0.0001
 8153,0.00092896,0.00147174,0.00000352,0.00021210,0.00009582,-0.0001239
 4,-0.00021696,-0.00007862,0.00010986,-0.00012560,-0.00009444,-0.000016
 18,0.00003267,0.00000725,-0.00004628,0.00005387,0.00009683,0.00014406,
 -0.00004347,-0.00008164,0.00000498,-0.00003200,0.00001632,0.00002854,-
 0.00001774,-0.00000830,-0.00000706,-0.00089602,0.00006345,0.00002861,0
 .00045721,0.00009166,-0.00007019,0.00040729,0.00067693,0.00027635,0.00
 003501,-0.00002105,-0.00011049,-0.00059104,0.00001454,0.00069270,-0.00
 028777,0.00060163,-0.00086096,0.00031319,-0.00001387,-0.00024140,0.000
 15008,-0.00003992,0.00001612,0.00003942,0.00003312,0.00000646,-0.05408
 755,-0.07727758,0.04898791,0.00054571,0.00756902,-0.00464645,0.0029491
 8,0.01347072,-0.00843034,0.05816031,-0.00015420,-0.00011079,-0.0000381
 1,-0.00004576,0.00017409,-0.00010436,-0.00006351,0.00008740,-0.0000697
 5,-0.00007943,-0.00004959,-0.00005174,0.00028057,-0.00002993,0.0000555
 8,-0.00003069,-0.00001963,-0.00000841,-0.00001577,0.00001069,0.0000031
 2,-0.00041170,-0.00000150,-0.00005807,0.00056706,-0.00042939,0.0004609
 4,0.00016228,0.00013687,-0.00007386,0.00002781,-0.00001193,0.00002947,
 -0.00004387,-0.00004347,0.00000584,-0.00005986,0.00008595,-0.00006004,
 0.00004069,0.00000529,0.00001544,-0.00005254,0.00006001,0.00001477,0.0
 0024777,-0.00070644,-0.00010052,0.00018537,-0.00097739,-0.00016879,0.0
 0027853,-0.00008987,-0.00031404,-0.00025190,0.00029854,0.00000167,-0.0
 0016309,-0.00007121,0.00006938,-0.00007136,0.00001261,0.00008443,0.000
 12702,-0.00000393,0.00011070,-0.00006799,-0.00009904,-0.00000651,0.000
 06637,0.00008682,0.00023320,-0.00009400,-0.00001108,0.00001147,0.00043
 109,-0.00025203,-0.00025192,-0.00013538,0.00017761,0.00008628,0.000009
 30,-0.00035792,-0.00013917,0.00015454,-0.00003725,-0.00006034,0.000131
 21,-0.00017234,-0.00002347,-0.00001679,-0.00010388,0.00011025,-0.00005
 100,0.00011357,-0.00004733,0.00006812,0.00004626,0.00001199,0.00003377
 ,0.00002728,0.00000500,-0.05732255,-0.19519544,0.09557419,-0.00788754,
 -0.02290215,0.01368994,-0.00024965,-0.00085911,0.00063675,0.06702858,0
 .21751146,0.00009235,0.00006911,-0.00003645,0.00024223,-0.00001752,-0.
 00002850,0.00005790,-0.00008861,-0.00000540,-0.00001812,-0.00001702,-0
 .00003907,-0.00025170,0.00007513,-0.00001645,0.00002494,0.00001471,0.0
 0000435,0.00002621,-0.00001179,0.00000601,0.00039596,0.00000253,0.0000
 4536,-0.00023513,-0.00022364,0.00061600,-0.00000828,-0.00009911,0.0000
 1268,-0.00003502,0.00000052,-0.00001421,0.00000981,0.00003159,0.000008
 12,0.00005398,-0.00000663,-0.00004355,-0.00003220,0.00001043,-0.000005
 24,-0.00000783,-0.00003034,0.00001005,-0.00014403,0.00026146,0.0000348
 6,-0.00021779,0.00037832,-0.00013785,0.00012512,-0.00012574,0.00013105
 ,-0.00006202,0.00004372,-0.00009676,-0.00004918,0.00002028,0.00001981,
 -0.00005822,-0.00002010,0.00004853,0.00001546,0.00001698,-0.00014242,-
 0.00000678,0.00004605,0.00003782,0.00006323,0.00004439,0.00008241,-0.0
 0003780,0.00000236,-0.00000482,0.00046164,0.00020241,-0.00013250,-0.00
 022194,-0.00003012,0.00006963,-0.00000218,-0.00073122,-0.00031486,-0.0
 0007665,0.00000230,0.00009026,-0.00005235,-0.00001773,0.00006841,-0.00
 003514,0.00015037,0.00001411,0.00003624,-0.00006846,0.00001464,-0.0001
 1724,-0.00000496,-0.00003020,-0.00002864,-0.00002927,-0.00000431,0.036
 43683,0.09896342,-0.10503087,-0.00486545,-0.01374554,0.00826351,0.0086
 4691,0.02364667,-0.01582713,-0.04240037,-0.10953207,0.11358000,-0.0190
 4153,-0.02302993,0.00180289,-0.01855335,0.02305526,0.00182026,0.001649
 23,0.00419229,0.00079077,0.00203034,-0.00396335,0.00082406,0.00303313,
 -0.00071105,0.00027228,0.00053426,-0.00001397,-0.00007338,0.00053429,0
 .00002346,-0.00008601,-0.00744247,-0.00025141,-0.00079503,-0.07229547,
 0.00030037,-0.00075984,-0.00900005,-0.00858733,0.00013738,0.00084360,-
 0.00011870,0.00000879,-0.00196796,-0.00007364,0.00092520,-0.00855609,0
 .00885882,0.00008406,0.00079591,0.00009160,0.00000324,-0.00199109,0.00
 009709,0.00092659,-0.03108893,0.01337686,0.00308934,-0.03151312,-0.013
 34038,0.00308474,0.00431700,0.00639233,0.00148649,-0.00053774,0.001065
 19,0.00021750,-0.00130459,0.00298835,-0.00089977,0.00000437,0.00022103
 ,-0.00002878,0.00058250,0.00001269,-0.00275885,0.00088589,0.00102522,0
 .00097172,0.00016399,0.00082029,0.00045275,0.00001828,-0.00093064,-0.0
 0000742,0.00410661,-0.00664111,0.00138571,-0.00133665,-0.00296778,-0.0
 0089468,-0.00052122,-0.00106841,0.00020963,0.00002219,-0.00020614,-0.0
 0000648,0.00062367,-0.00030324,-0.00247390,0.00015585,-0.00083589,0.00
 045668,0.00086741,-0.00104441,0.00095355,0.00002678,0.00092653,-0.0000
 1603,0.00029624,0.00069816,0.00003197,-0.07379489,0.00010468,0.0083726
 1,-0.00461104,0.00266764,0.00227267,-0.00687488,0.00004261,-0.00222867
 ,-0.00488011,-0.00257149,0.00227523,0.27381964,-0.01476042,-0.00049623
 ,-0.00000432,0.01495513,-0.00101276,-0.00001861,0.00106107,-0.00424103
 ,-0.00013962,-0.00113812,-0.00424299,0.00011674,0.00002143,0.00249796,
 -0.00000903,-0.00069927,0.00013199,-0.00028034,0.00065525,0.00014172,0
 .00028336,0.00005323,-0.00028777,0.00002250,0.00025224,-0.03791509,0.0
 0000848,-0.01298841,-0.00643728,0.00379122,0.00036209,0.00028685,-0.00
 058451,0.00118743,0.00041903,-0.00005797,0.01303615,-0.00687773,-0.003
 82166,-0.00037156,0.00027635,0.00058692,-0.00114503,0.00043994,0.00005
 240,0.00370289,-0.03024554,-0.00282617,-0.00361197,-0.03058299,0.00273
 019,0.00396872,-0.00987833,0.00356574,-0.00103375,0.00011194,-0.000277
 29,-0.00080813,0.00013407,-0.00061829,-0.00062233,0.00001244,-0.001125
 86,-0.00069835,-0.00815233,-0.01013728,-0.00014068,-0.00043816,0.00105
 399,-0.00089324,-0.00078338,0.00053383,0.00040597,-0.00122353,0.000481
 65,-0.00419933,-0.00963674,-0.00361899,0.00083031,0.00017750,0.0006297
 0,0.00102712,0.00016704,0.00028802,0.00062548,-0.00000895,0.00113513,0
 .00051804,-0.00821643,0.01012167,0.00087076,-0.00077276,-0.00055228,0.
 00011733,-0.00041870,-0.00106660,-0.00042210,-0.00122943,-0.00048790,-
 0.00001539,-0.00002705,-0.00001398,0.00008859,-0.05917781,-0.00021968,
 0.01709212,0.00339820,-0.00080852,0.00007291,-0.00036808,0.00000191,-0
 .01705461,0.00370085,0.00081714,-0.00030159,0.21077523,0.00115879,0.00
 491164,0.00622485,0.00109478,-0.00484824,0.00616809,-0.00045068,-0.002
 02013,0.00403580,-0.00053589,0.00193214,0.00386328,-0.00175280,0.00026
 558,-0.00118476,-0.00016072,0.00009442,-0.00011593,-0.00015723,-0.0000
 9176,-0.00016573,0.00341236,0.00011780,0.00036015,-0.00266041,0.000010
 30,-0.04092078,0.00278479,0.00283629,-0.00183749,-0.00090716,0.0003088
 1,0.00012189,0.00142530,0.00032672,0.00021189,0.00270912,-0.00296370,-
 0.00169925,-0.00088228,-0.00026890,0.00013970,0.00140574,-0.00034582,0
 .00020844,0.00326545,-0.00064406,-0.02839192,0.00323109,0.00046396,-0.
 02855806,0.00077310,0.00508648,0.00002462,0.00001854,-0.00011074,0.000
 07509,-0.00073524,0.00125246,0.00002079,0.00032384,0.00051968,0.000254
 70,-0.00291439,-0.01093408,-0.00301565,-0.00033979,-0.00240394,-0.0016
 1124,-0.00042588,-0.00103387,-0.00046390,0.00056324,-0.00107856,-0.000
 25141,0.00066928,-0.00507444,-0.00002680,-0.00075489,-0.00124514,0.000
 02206,0.00002110,0.00011651,0.00007548,0.00031881,-0.00053783,0.000264
 98,-0.00274444,0.01108252,-0.00295496,-0.00041476,0.00103354,-0.000456
 18,-0.00030306,0.00240570,-0.00161399,0.00057690,0.00104539,-0.0002594
 0,-0.00014405,-0.00030583,-0.00009178,0.00861346,-0.00034221,-0.033113
 15,0.00826660,0.00001896,-0.00124342,-0.01074057,0.00007397,0.00285571
 ,0.00821922,-0.00010191,-0.00124704,-0.02182727,0.00044829,0.12429532\
 \0.00003045,0.00000810,0.00000453,0.00002796,-0.00000707,-0.00000225,-
 0.00000537,-0.00001439,-0.00000986,-0.00001190,0.00000286,-0.00001203,
 -0.00003630,0.00000197,0.00000091,0.00000285,-0.00000327,-0.00000953,0
 .,-0.00000113,-0.00001079,0.00002307,-0.00001172,-0.00001181,-0.000022
 10,0.00000012,-0.00000922,-0.00001952,-0.00000422,0.00001059,-0.000009
 97,-0.00000274,0.00000348,0.00000353,0.00000273,-0.00000128,-0.0000198
 8,0.00000252,0.00000336,-0.00000673,0.00000479,0.00000016,-0.00000116,
 -0.00000290,-0.00000399,0.00003381,0.00002383,0.00000208,0.00002730,-0
 .00001689,-0.00000084,-0.00000386,-0.00001333,-0.00000174,0.00000335,0
 .00000475,0.00000747,0.00000060,0.00000596,0.00000561,0.00000004,0.000
 00544,0.00000458,0.00001934,-0.00000505,0.00000097,0.00000645,0.000001
 73,0.00000297,0.00000643,0.00000054,-0.00000137,0.00000663,-0.00000193
 ,0.00000142,-0.00001055,0.00001358,0.00000154,-0.00000667,-0.00000331,
 0.00000205,-0.00000212,0.00000099,0.00000477,-0.00000461,-0.00000069,0
 .00000262,0.00000686,0.00000510,0.00000241,0.00000272,-0.00000014,-0.0
 0000112,0.00000039,-0.00000263,-0.00000035,0.00000298,-0.00000050,-0.0
 0000305,-0.00000060,0.00000016,-0.00001457,0.00002569,0.00000160,-0.00
 001140,0.00000433,0.00000449,0.00001307,-0.00001168,0.00000467,0.00001
 585,0.00000069,0.00000146,0.00001117,-0.00006245,-0.00000545,0.0000036
 0\\\@
 The archive entry for this job was punched.


 ALMOST ANYTHING IS EASIER TO GET INTO THAN OUT OF.

                         -- AGNES ALLEN'S LAW FROM
                PAUL DICKSON'S "THE OFFICIAL RULES"
 Job cpu time:       2 days 21 hours 59 minutes 15.9 seconds.
 Elapsed time:       0 days  1 hours 28 minutes  6.1 seconds.
 File lengths (MBytes):  RWF=   1939 Int=      0 D2E=      0 Chk=     70 Scr=      1
 Normal termination of Gaussian 16 at Mon May 20 23:53:37 2024.
