 Entering Gaussian System, Link 0=/cm/shared/apps//g16/g16
 Input=HZRhMeH_sigma.gjf
 Output=HZRhMeH_sigma.log
 Initial command:
 /cm/shared/apps//g16/l1.exe "/local/mvanvleet/pbs.14640.josephine/Gau-1651279.inp" -scrdir="/local/mvanvleet/pbs.14640.josephine/"
 Entering Link 1 = /cm/shared/apps//g16/l1.exe PID=   1651282.
  
 Copyright (c) 1988-2019, Gaussian, Inc.  All Rights Reserved.
  
 This is part of the Gaussian(R) 16 program.  It is based on
 the Gaussian(R) 09 system (copyright 2009, Gaussian, Inc.),
 the Gaussian(R) 03 system (copyright 2003, Gaussian, Inc.),
 the Gaussian(R) 98 system (copyright 1998, Gaussian, Inc.),
 the Gaussian(R) 94 system (copyright 1995, Gaussian, Inc.),
 the Gaussian 92(TM) system (copyright 1992, Gaussian, Inc.),
 the Gaussian 90(TM) system (copyright 1990, Gaussian, Inc.),
 the Gaussian 88(TM) system (copyright 1988, Gaussian, Inc.),
 the Gaussian 86(TM) system (copyright 1986, Carnegie Mellon
 University), and the Gaussian 82(TM) system (copyright 1983,
 Carnegie Mellon University). Gaussian is a federally registered
 trademark of Gaussian, Inc.
  
 This software contains proprietary and confidential information,
 including trade secrets, belonging to Gaussian, Inc.
  
 This software is provided under written license and may be
 used, copied, transmitted, or stored only in accord with that
 written license.
  
 The following legend is applicable only to US Government
 contracts under FAR:
  
                    RESTRICTED RIGHTS LEGEND
  
 Use, reproduction and disclosure by the US Government is
 subject to restrictions as set forth in subparagraphs (a)
 and (c) of the Commercial Computer Software - Restricted
 Rights clause in FAR 52.227-19.
  
 Gaussian, Inc.
 340 Quinnipiac St., Bldg. 40, Wallingford CT 06492
  
  
 ---------------------------------------------------------------
 Warning -- This program may not be used in any manner that
 competes with the business of Gaussian, Inc. or will provide
 assistance to any competitor of Gaussian, Inc.  The licensee
 of this program is prohibited from giving any competitor of
 Gaussian, Inc. access to this program.  By using this program,
 the user acknowledges that Gaussian, Inc. is engaged in the
 business of creating and licensing software in the field of
 computational chemistry and represents and warrants to the
 licensee that it is not a competitor of Gaussian, Inc. and that
 it will not use this program in any manner prohibited above.
 ---------------------------------------------------------------
  

 Cite this work as:
 Gaussian 16, Revision C.01,
 M. J. Frisch, G. W. Trucks, H. B. Schlegel, G. E. Scuseria, 
 M. A. Robb, J. R. Cheeseman, G. Scalmani, V. Barone, 
 G. A. Petersson, H. Nakatsuji, X. Li, M. Caricato, A. V. Marenich, 
 J. Bloino, B. G. Janesko, R. Gomperts, B. Mennucci, H. P. Hratchian, 
 J. V. Ortiz, A. F. Izmaylov, J. L. Sonnenberg, D. Williams-Young, 
 F. Ding, F. Lipparini, F. Egidi, J. Goings, B. Peng, A. Petrone, 
 T. Henderson, D. Ranasinghe, V. G. Zakrzewski, J. Gao, N. Rega, 
 G. Zheng, W. Liang, M. Hada, M. Ehara, K. Toyota, R. Fukuda, 
 J. Hasegawa, M. Ishida, T. Nakajima, Y. Honda, O. Kitao, H. Nakai, 
 T. Vreven, K. Throssell, J. A. Montgomery, Jr., J. E. Peralta, 
 F. Ogliaro, M. J. Bearpark, J. J. Heyd, E. N. Brothers, K. N. Kudin, 
 V. N. Staroverov, T. A. Keith, R. Kobayashi, J. Normand, 
 K. Raghavachari, A. P. Rendell, J. C. Burant, S. S. Iyengar, 
 J. Tomasi, M. Cossi, J. M. Millam, M. Klene, C. Adamo, R. Cammi, 
 J. W. Ochterski, R. L. Martin, K. Morokuma, O. Farkas, 
 J. B. Foresman, and D. J. Fox, Gaussian, Inc., Wallingford CT, 2019.
 
 ******************************************
 Gaussian 16:  ES64L-G16RevC.01  3-Jul-2019
                28-Mar-2024 
 ******************************************
 %nprocshared=6
 Will use up to    6 processors via shared memory.
 %chk=HZRhMeH_sigma.chk
 %mem=2GB
 ----------------------------------------------------------
 # wb97xd def2TZVPP SCRF=(solvent=dichloromethane) opt freq
 ----------------------------------------------------------
 1/18=20,19=15,26=3,38=1/1,3;
 2/9=110,12=2,17=6,18=5,40=1/2;
 3/5=44,7=202,11=2,25=1,30=1,70=2201,71=1,72=9,74=-58/1,2,3;
 4//1;
 5/5=2,38=5,53=9/2;
 6/7=2,8=2,9=2,10=2,28=1/1;
 7//1,2,3,16;
 1/18=20,19=15,26=3/3(2);
 2/9=110/2;
 99//99;
 2/9=110/2;
 3/5=44,7=202,11=2,25=1,30=1,70=2205,71=1,72=9,74=-58/1,2,3;
 4/5=5,16=3,69=1/1;
 5/5=2,38=5,53=9/2;
 7//1,2,3,16;
 1/18=20,19=15,26=3/3(-5);
 2/9=110/2;
 6/7=2,8=2,9=2,10=2,19=2,28=1/1;
 99/9=1/99;
 -------------
 HZRhMeH_sigma
 -------------
 Symbolic Z-matrix:
 Charge =  1 Multiplicity = 1
 C                     1.53315   1.17883  -0.30889 
 C                     1.53315  -1.17884  -0.30889 
 C                     2.86908   1.22959  -0.0018 
 C                     2.86908  -1.2296   -0.00179 
 C                     3.64916   0.        0.18844 
 H                     3.38795   2.18916   0.09015 
 H                     3.38795  -2.18917   0.09016 
 O                     4.8558    0.        0.47577 
 N                     0.86296   0.       -0.46087 
 C                     0.61531   2.33551  -0.6239 
 H                     0.46619   2.37492  -1.71929 
 H                     1.01272   3.31385  -0.28373 
 C                     0.61531  -2.33551  -0.62389 
 H                     0.46619  -2.37493  -1.71929 
 H                     1.01271  -3.31386  -0.28372 
 N                    -0.74266   2.0936   -0.02402 
 N                    -0.74267  -2.0936   -0.02402 
 C                    -3.39918   0.        0.5741 
 H                    -2.64004   0.00001   1.38713 
 H                    -4.01954   0.90277   0.66061 
 H                    -4.01952  -0.90278   0.66062 
 C                    -1.73852   2.93864  -0.71102 
 H                    -2.71873   2.8019   -0.22632 
 H                    -1.45228   4.0111   -0.6488 
 H                    -1.80644   2.63002  -1.76511 
 C                    -0.69718   2.46933   1.40926 
 H                    -0.48856   3.55709   1.51061 
 H                    -1.6685    2.23872   1.87598 
 H                     0.09642   1.89163   1.90785 
 C                    -1.73853  -2.93863  -0.71103 
 H                    -1.45228  -4.0111   -0.6488 
 H                    -2.71874  -2.8019   -0.22633 
 H                    -1.80644  -2.63002  -1.76511 
 C                    -0.6972   -2.46933   1.40926 
 H                    -1.66851  -2.23871   1.87597 
 H                    -0.48858  -3.55708   1.51061 
 H                     0.0964   -1.89163   1.90785 
 H                    -2.95363   0.00001  -0.47711 
 Rh                   -1.04436   0.       -0.1266 
 H                     4.8558    1.        0.47577 
 
 Add virtual bond connecting atoms Rh39       and H38        Dist= 3.67D+00.

 GradGradGradGradGradGradGradGradGradGradGradGradGradGradGradGradGradGrad
 Berny optimization.
 Initialization pass.
                           ----------------------------
                           !    Initial Parameters    !
                           ! (Angstroms and Degrees)  !
 --------------------------                            --------------------------
 ! Name  Definition              Value          Derivative Info.                !
 --------------------------------------------------------------------------------
 ! R1    R(1,3)                  1.3717         estimate D2E/DX2                !
 ! R2    R(1,9)                  1.3645         estimate D2E/DX2                !
 ! R3    R(1,10)                 1.5098         estimate D2E/DX2                !
 ! R4    R(2,4)                  1.3717         estimate D2E/DX2                !
 ! R5    R(2,9)                  1.3645         estimate D2E/DX2                !
 ! R6    R(2,13)                 1.5098         estimate D2E/DX2                !
 ! R7    R(3,5)                  1.4685         estimate D2E/DX2                !
 ! R8    R(3,6)                  1.0947         estimate D2E/DX2                !
 ! R9    R(4,5)                  1.4685         estimate D2E/DX2                !
 ! R10   R(4,7)                  1.0947         estimate D2E/DX2                !
 ! R11   R(5,8)                  1.2404         estimate D2E/DX2                !
 ! R12   R(8,40)                 1.0            estimate D2E/DX2                !
 ! R13   R(9,39)                 1.9364         estimate D2E/DX2                !
 ! R14   R(10,11)                1.1062         estimate D2E/DX2                !
 ! R15   R(10,12)                1.1094         estimate D2E/DX2                !
 ! R16   R(10,16)                1.5041         estimate D2E/DX2                !
 ! R17   R(13,14)                1.1062         estimate D2E/DX2                !
 ! R18   R(13,15)                1.1094         estimate D2E/DX2                !
 ! R19   R(13,17)                1.5042         estimate D2E/DX2                !
 ! R20   R(16,22)                1.4757         estimate D2E/DX2                !
 ! R21   R(16,26)                1.4824         estimate D2E/DX2                !
 ! R22   R(16,39)                2.1177         estimate D2E/DX2                !
 ! R23   R(17,30)                1.4757         estimate D2E/DX2                !
 ! R24   R(17,34)                1.4824         estimate D2E/DX2                !
 ! R25   R(17,39)                2.1177         estimate D2E/DX2                !
 ! R26   R(18,19)                1.1123         estimate D2E/DX2                !
 ! R27   R(18,20)                1.0988         estimate D2E/DX2                !
 ! R28   R(18,21)                1.0988         estimate D2E/DX2                !
 ! R29   R(18,38)                1.1417         estimate D2E/DX2                !
 ! R30   R(22,23)                1.102          estimate D2E/DX2                !
 ! R31   R(22,24)                1.1117         estimate D2E/DX2                !
 ! R32   R(22,25)                1.1004         estimate D2E/DX2                !
 ! R33   R(26,27)                1.1122         estimate D2E/DX2                !
 ! R34   R(26,28)                1.102          estimate D2E/DX2                !
 ! R35   R(26,29)                1.101          estimate D2E/DX2                !
 ! R36   R(30,31)                1.1118         estimate D2E/DX2                !
 ! R37   R(30,32)                1.102          estimate D2E/DX2                !
 ! R38   R(30,33)                1.1004         estimate D2E/DX2                !
 ! R39   R(34,35)                1.102          estimate D2E/DX2                !
 ! R40   R(34,36)                1.1122         estimate D2E/DX2                !
 ! R41   R(34,37)                1.101          estimate D2E/DX2                !
 ! R42   R(38,39)                1.9412         estimate D2E/DX2                !
 ! A1    A(3,1,9)              122.3609         estimate D2E/DX2                !
 ! A2    A(3,1,10)             127.6194         estimate D2E/DX2                !
 ! A3    A(9,1,10)             109.8789         estimate D2E/DX2                !
 ! A4    A(4,2,9)              122.3607         estimate D2E/DX2                !
 ! A5    A(4,2,13)             127.6197         estimate D2E/DX2                !
 ! A6    A(9,2,13)             109.8789         estimate D2E/DX2                !
 ! A7    A(1,3,5)              121.0213         estimate D2E/DX2                !
 ! A8    A(1,3,6)              120.8534         estimate D2E/DX2                !
 ! A9    A(5,3,6)              118.1159         estimate D2E/DX2                !
 ! A10   A(2,4,5)              121.021          estimate D2E/DX2                !
 ! A11   A(2,4,7)              120.8534         estimate D2E/DX2                !
 ! A12   A(5,4,7)              118.1162         estimate D2E/DX2                !
 ! A13   A(3,5,4)              113.7099         estimate D2E/DX2                !
 ! A14   A(3,5,8)              123.1446         estimate D2E/DX2                !
 ! A15   A(4,5,8)              123.1443         estimate D2E/DX2                !
 ! A16   A(5,8,40)              90.0            estimate D2E/DX2                !
 ! A17   A(1,9,2)              119.5196         estimate D2E/DX2                !
 ! A18   A(1,9,39)             117.6815         estimate D2E/DX2                !
 ! A19   A(2,9,39)             117.6813         estimate D2E/DX2                !
 ! A20   A(1,10,11)            108.4118         estimate D2E/DX2                !
 ! A21   A(1,10,12)            113.1944         estimate D2E/DX2                !
 ! A22   A(1,10,16)            110.0239         estimate D2E/DX2                !
 ! A23   A(11,10,12)           108.693          estimate D2E/DX2                !
 ! A24   A(11,10,16)           106.1974         estimate D2E/DX2                !
 ! A25   A(12,10,16)           110.0564         estimate D2E/DX2                !
 ! A26   A(2,13,14)            108.4119         estimate D2E/DX2                !
 ! A27   A(2,13,15)            113.195          estimate D2E/DX2                !
 ! A28   A(2,13,17)            110.0246         estimate D2E/DX2                !
 ! A29   A(14,13,15)           108.6924         estimate D2E/DX2                !
 ! A30   A(14,13,17)           106.1971         estimate D2E/DX2                !
 ! A31   A(15,13,17)           110.0561         estimate D2E/DX2                !
 ! A32   A(10,16,22)           109.359          estimate D2E/DX2                !
 ! A33   A(10,16,26)           108.49           estimate D2E/DX2                !
 ! A34   A(10,16,39)           105.5631         estimate D2E/DX2                !
 ! A35   A(22,16,26)           109.0061         estimate D2E/DX2                !
 ! A36   A(22,16,39)           116.5779         estimate D2E/DX2                !
 ! A37   A(26,16,39)           107.5644         estimate D2E/DX2                !
 ! A38   A(13,17,30)           109.3593         estimate D2E/DX2                !
 ! A39   A(13,17,34)           108.4899         estimate D2E/DX2                !
 ! A40   A(13,17,39)           105.5629         estimate D2E/DX2                !
 ! A41   A(30,17,34)           109.0064         estimate D2E/DX2                !
 ! A42   A(30,17,39)           116.5777         estimate D2E/DX2                !
 ! A43   A(34,17,39)           107.5644         estimate D2E/DX2                !
 ! A44   A(19,18,20)           109.1328         estimate D2E/DX2                !
 ! A45   A(19,18,21)           109.1326         estimate D2E/DX2                !
 ! A46   A(19,18,38)           113.9938         estimate D2E/DX2                !
 ! A47   A(20,18,21)           110.4935         estimate D2E/DX2                !
 ! A48   A(20,18,38)           107.0261         estimate D2E/DX2                !
 ! A49   A(21,18,38)           107.0271         estimate D2E/DX2                !
 ! A50   A(16,22,23)           108.9309         estimate D2E/DX2                !
 ! A51   A(16,22,24)           110.6457         estimate D2E/DX2                !
 ! A52   A(16,22,25)           109.0856         estimate D2E/DX2                !
 ! A53   A(23,22,24)           108.9106         estimate D2E/DX2                !
 ! A54   A(23,22,25)           109.3663         estimate D2E/DX2                !
 ! A55   A(24,22,25)           109.8794         estimate D2E/DX2                !
 ! A56   A(16,26,27)           109.9833         estimate D2E/DX2                !
 ! A57   A(16,26,28)           109.232          estimate D2E/DX2                !
 ! A58   A(16,26,29)           109.0854         estimate D2E/DX2                !
 ! A59   A(27,26,28)           109.3532         estimate D2E/DX2                !
 ! A60   A(27,26,29)           109.6766         estimate D2E/DX2                !
 ! A61   A(28,26,29)           109.4953         estimate D2E/DX2                !
 ! A62   A(17,30,31)           110.6448         estimate D2E/DX2                !
 ! A63   A(17,30,32)           108.9311         estimate D2E/DX2                !
 ! A64   A(17,30,33)           109.086          estimate D2E/DX2                !
 ! A65   A(31,30,32)           108.9102         estimate D2E/DX2                !
 ! A66   A(31,30,33)           109.8794         estimate D2E/DX2                !
 ! A67   A(32,30,33)           109.3671         estimate D2E/DX2                !
 ! A68   A(17,34,35)           109.2319         estimate D2E/DX2                !
 ! A69   A(17,34,36)           109.9833         estimate D2E/DX2                !
 ! A70   A(17,34,37)           109.0851         estimate D2E/DX2                !
 ! A71   A(35,34,36)           109.354          estimate D2E/DX2                !
 ! A72   A(35,34,37)           109.4951         estimate D2E/DX2                !
 ! A73   A(36,34,37)           109.6765         estimate D2E/DX2                !
 ! A74   A(18,38,39)           102.5667         estimate D2E/DX2                !
 ! A75   A(9,39,16)             82.4169         estimate D2E/DX2                !
 ! A76   A(9,39,17)             82.4171         estimate D2E/DX2                !
 ! A77   A(9,39,38)            159.6568         estimate D2E/DX2                !
 ! A78   A(16,39,17)           162.6914         estimate D2E/DX2                !
 ! A79   A(16,39,38)            98.5611         estimate D2E/DX2                !
 ! A80   A(17,39,38)            98.5615         estimate D2E/DX2                !
 ! D1    D(9,1,3,5)             -0.3841         estimate D2E/DX2                !
 ! D2    D(9,1,3,6)            178.477          estimate D2E/DX2                !
 ! D3    D(10,1,3,5)          -175.6216         estimate D2E/DX2                !
 ! D4    D(10,1,3,6)             3.2395         estimate D2E/DX2                !
 ! D5    D(3,1,9,2)             -0.1996         estimate D2E/DX2                !
 ! D6    D(3,1,9,39)           153.945          estimate D2E/DX2                !
 ! D7    D(10,1,9,2)           175.7905         estimate D2E/DX2                !
 ! D8    D(10,1,9,39)          -30.065          estimate D2E/DX2                !
 ! D9    D(3,1,10,11)          102.2033         estimate D2E/DX2                !
 ! D10   D(3,1,10,12)          -18.4691         estimate D2E/DX2                !
 ! D11   D(3,1,10,16)         -142.0604         estimate D2E/DX2                !
 ! D12   D(9,1,10,11)          -73.52           estimate D2E/DX2                !
 ! D13   D(9,1,10,12)          165.8077         estimate D2E/DX2                !
 ! D14   D(9,1,10,16)           42.2164         estimate D2E/DX2                !
 ! D15   D(9,2,4,5)              0.3831         estimate D2E/DX2                !
 ! D16   D(9,2,4,7)           -178.477          estimate D2E/DX2                !
 ! D17   D(13,2,4,5)           175.6217         estimate D2E/DX2                !
 ! D18   D(13,2,4,7)            -3.2385         estimate D2E/DX2                !
 ! D19   D(4,2,9,1)              0.2001         estimate D2E/DX2                !
 ! D20   D(4,2,9,39)          -153.9445         estimate D2E/DX2                !
 ! D21   D(13,2,9,1)          -175.7908         estimate D2E/DX2                !
 ! D22   D(13,2,9,39)           30.0646         estimate D2E/DX2                !
 ! D23   D(4,2,13,14)         -102.2036         estimate D2E/DX2                !
 ! D24   D(4,2,13,15)           18.4683         estimate D2E/DX2                !
 ! D25   D(4,2,13,17)          142.0601         estimate D2E/DX2                !
 ! D26   D(9,2,13,14)           73.5205         estimate D2E/DX2                !
 ! D27   D(9,2,13,15)         -165.8075         estimate D2E/DX2                !
 ! D28   D(9,2,13,17)          -42.2158         estimate D2E/DX2                !
 ! D29   D(1,3,5,4)              0.8854         estimate D2E/DX2                !
 ! D30   D(1,3,5,8)           -179.4859         estimate D2E/DX2                !
 ! D31   D(6,3,5,4)           -178.006          estimate D2E/DX2                !
 ! D32   D(6,3,5,8)              1.6226         estimate D2E/DX2                !
 ! D33   D(2,4,5,3)             -0.885          estimate D2E/DX2                !
 ! D34   D(2,4,5,8)            179.4864         estimate D2E/DX2                !
 ! D35   D(7,4,5,3)            178.0055         estimate D2E/DX2                !
 ! D36   D(7,4,5,8)             -1.6231         estimate D2E/DX2                !
 ! D37   D(3,5,8,40)             0.2033         estimate D2E/DX2                !
 ! D38   D(4,5,8,40)           179.7972         estimate D2E/DX2                !
 ! D39   D(1,9,39,16)            8.5044         estimate D2E/DX2                !
 ! D40   D(1,9,39,17)         -163.1295         estimate D2E/DX2                !
 ! D41   D(1,9,39,38)          102.6866         estimate D2E/DX2                !
 ! D42   D(2,9,39,16)          163.1296         estimate D2E/DX2                !
 ! D43   D(2,9,39,17)           -8.5044         estimate D2E/DX2                !
 ! D44   D(2,9,39,38)         -102.6882         estimate D2E/DX2                !
 ! D45   D(1,10,16,22)        -159.9196         estimate D2E/DX2                !
 ! D46   D(1,10,16,26)          81.2992         estimate D2E/DX2                !
 ! D47   D(1,10,16,39)         -33.7533         estimate D2E/DX2                !
 ! D48   D(11,10,16,22)        -42.7951         estimate D2E/DX2                !
 ! D49   D(11,10,16,26)       -161.5764         estimate D2E/DX2                !
 ! D50   D(11,10,16,39)         83.3711         estimate D2E/DX2                !
 ! D51   D(12,10,16,22)         74.6785         estimate D2E/DX2                !
 ! D52   D(12,10,16,26)        -44.1027         estimate D2E/DX2                !
 ! D53   D(12,10,16,39)       -159.1552         estimate D2E/DX2                !
 ! D54   D(2,13,17,30)         159.9188         estimate D2E/DX2                !
 ! D55   D(2,13,17,34)         -81.2996         estimate D2E/DX2                !
 ! D56   D(2,13,17,39)          33.7527         estimate D2E/DX2                !
 ! D57   D(14,13,17,30)         42.7942         estimate D2E/DX2                !
 ! D58   D(14,13,17,34)        161.5758         estimate D2E/DX2                !
 ! D59   D(14,13,17,39)        -83.3719         estimate D2E/DX2                !
 ! D60   D(15,13,17,30)        -74.6783         estimate D2E/DX2                !
 ! D61   D(15,13,17,34)         44.1033         estimate D2E/DX2                !
 ! D62   D(15,13,17,39)        159.1556         estimate D2E/DX2                !
 ! D63   D(10,16,22,23)       -176.5929         estimate D2E/DX2                !
 ! D64   D(10,16,22,24)        -56.8989         estimate D2E/DX2                !
 ! D65   D(10,16,22,25)         64.0907         estimate D2E/DX2                !
 ! D66   D(26,16,22,23)        -58.1328         estimate D2E/DX2                !
 ! D67   D(26,16,22,24)         61.5613         estimate D2E/DX2                !
 ! D68   D(26,16,22,25)       -177.4491         estimate D2E/DX2                !
 ! D69   D(39,16,22,23)         63.8195         estimate D2E/DX2                !
 ! D70   D(39,16,22,24)       -176.4865         estimate D2E/DX2                !
 ! D71   D(39,16,22,25)        -55.4968         estimate D2E/DX2                !
 ! D72   D(10,16,26,27)         63.429          estimate D2E/DX2                !
 ! D73   D(10,16,26,28)       -176.5495         estimate D2E/DX2                !
 ! D74   D(10,16,26,29)        -56.8983         estimate D2E/DX2                !
 ! D75   D(22,16,26,27)        -55.5747         estimate D2E/DX2                !
 ! D76   D(22,16,26,28)         64.4468         estimate D2E/DX2                !
 ! D77   D(22,16,26,29)       -175.902          estimate D2E/DX2                !
 ! D78   D(39,16,26,27)        177.169          estimate D2E/DX2                !
 ! D79   D(39,16,26,28)        -62.8096         estimate D2E/DX2                !
 ! D80   D(39,16,26,29)         56.8416         estimate D2E/DX2                !
 ! D81   D(10,16,39,9)          14.9231         estimate D2E/DX2                !
 ! D82   D(10,16,39,17)         43.9196         estimate D2E/DX2                !
 ! D83   D(10,16,39,38)       -144.5514         estimate D2E/DX2                !
 ! D84   D(22,16,39,9)         136.5304         estimate D2E/DX2                !
 ! D85   D(22,16,39,17)        165.5269         estimate D2E/DX2                !
 ! D86   D(22,16,39,38)        -22.9441         estimate D2E/DX2                !
 ! D87   D(26,16,39,9)        -100.7646         estimate D2E/DX2                !
 ! D88   D(26,16,39,17)        -71.7681         estimate D2E/DX2                !
 ! D89   D(26,16,39,38)         99.7609         estimate D2E/DX2                !
 ! D90   D(13,17,30,31)         56.8991         estimate D2E/DX2                !
 ! D91   D(13,17,30,32)        176.5922         estimate D2E/DX2                !
 ! D92   D(13,17,30,33)        -64.0902         estimate D2E/DX2                !
 ! D93   D(34,17,30,31)        -61.5613         estimate D2E/DX2                !
 ! D94   D(34,17,30,32)         58.1318         estimate D2E/DX2                !
 ! D95   D(34,17,30,33)        177.4494         estimate D2E/DX2                !
 ! D96   D(39,17,30,31)        176.4865         estimate D2E/DX2                !
 ! D97   D(39,17,30,32)        -63.8204         estimate D2E/DX2                !
 ! D98   D(39,17,30,33)         55.4972         estimate D2E/DX2                !
 ! D99   D(13,17,34,35)        176.5488         estimate D2E/DX2                !
 ! D100  D(13,17,34,36)        -63.4289         estimate D2E/DX2                !
 ! D101  D(13,17,34,37)         56.8981         estimate D2E/DX2                !
 ! D102  D(30,17,34,35)        -64.4471         estimate D2E/DX2                !
 ! D103  D(30,17,34,36)         55.5752         estimate D2E/DX2                !
 ! D104  D(30,17,34,37)        175.9022         estimate D2E/DX2                !
 ! D105  D(39,17,34,35)         62.8091         estimate D2E/DX2                !
 ! D106  D(39,17,34,36)       -177.1686         estimate D2E/DX2                !
 ! D107  D(39,17,34,37)        -56.8416         estimate D2E/DX2                !
 ! D108  D(13,17,39,9)         -14.9226         estimate D2E/DX2                !
 ! D109  D(13,17,39,16)        -43.9191         estimate D2E/DX2                !
 ! D110  D(13,17,39,38)        144.552          estimate D2E/DX2                !
 ! D111  D(30,17,39,9)        -136.5299         estimate D2E/DX2                !
 ! D112  D(30,17,39,16)       -165.5264         estimate D2E/DX2                !
 ! D113  D(30,17,39,38)         22.9446         estimate D2E/DX2                !
 ! D114  D(34,17,39,9)         100.7649         estimate D2E/DX2                !
 ! D115  D(34,17,39,16)         71.7684         estimate D2E/DX2                !
 ! D116  D(34,17,39,38)        -99.7606         estimate D2E/DX2                !
 ! D117  D(19,18,38,39)          0.0012         estimate D2E/DX2                !
 ! D118  D(20,18,38,39)        120.7654         estimate D2E/DX2                !
 ! D119  D(21,18,38,39)       -120.7634         estimate D2E/DX2                !
 ! D120  D(18,38,39,9)        -179.9998         estimate D2E/DX2                !
 ! D121  D(18,38,39,16)        -88.7305         estimate D2E/DX2                !
 ! D122  D(18,38,39,17)         88.7293         estimate D2E/DX2                !
 --------------------------------------------------------------------------------
 Trust Radius=3.00D-01 FncErr=1.00D-07 GrdErr=1.00D-06 EigMax=2.50D+02 EigMin=1.00D-04
 Number of steps in this run=    240 maximum allowed number of steps=    240.
 GradGradGradGradGradGradGradGradGradGradGradGradGradGradGradGradGradGrad

                          Input orientation:                          
 ---------------------------------------------------------------------
 Center     Atomic      Atomic             Coordinates (Angstroms)
 Number     Number       Type             X           Y           Z
 ---------------------------------------------------------------------
      1          6           0        1.533150    1.178830   -0.308890
      2          6           0        1.533150   -1.178840   -0.308890
      3          6           0        2.869080    1.229590   -0.001800
      4          6           0        2.869080   -1.229600   -0.001790
      5          6           0        3.649160    0.000000    0.188440
      6          1           0        3.387950    2.189160    0.090150
      7          1           0        3.387950   -2.189170    0.090160
      8          8           0        4.855800    0.000000    0.475770
      9          7           0        0.862960    0.000000   -0.460870
     10          6           0        0.615310    2.335510   -0.623900
     11          1           0        0.466190    2.374920   -1.719290
     12          1           0        1.012720    3.313850   -0.283730
     13          6           0        0.615310   -2.335510   -0.623890
     14          1           0        0.466190   -2.374930   -1.719290
     15          1           0        1.012710   -3.313860   -0.283720
     16          7           0       -0.742660    2.093600   -0.024020
     17          7           0       -0.742670   -2.093600   -0.024020
     18          6           0       -3.399180    0.000000    0.574100
     19          1           0       -2.640040    0.000010    1.387130
     20          1           0       -4.019540    0.902770    0.660610
     21          1           0       -4.019520   -0.902780    0.660620
     22          6           0       -1.738520    2.938640   -0.711020
     23          1           0       -2.718730    2.801900   -0.226320
     24          1           0       -1.452280    4.011100   -0.648800
     25          1           0       -1.806440    2.630020   -1.765110
     26          6           0       -0.697180    2.469330    1.409260
     27          1           0       -0.488560    3.557090    1.510610
     28          1           0       -1.668500    2.238720    1.875980
     29          1           0        0.096420    1.891630    1.907850
     30          6           0       -1.738530   -2.938630   -0.711030
     31          1           0       -1.452280   -4.011100   -0.648800
     32          1           0       -2.718740   -2.801900   -0.226330
     33          1           0       -1.806440   -2.630020   -1.765110
     34          6           0       -0.697200   -2.469330    1.409260
     35          1           0       -1.668510   -2.238710    1.875970
     36          1           0       -0.488580   -3.557080    1.510610
     37          1           0        0.096400   -1.891630    1.907850
     38          1           0       -2.953630    0.000010   -0.477110
     39         45           0       -1.044360    0.000000   -0.126600
     40          1           0        4.855800    1.000000    0.475770
 ---------------------------------------------------------------------
                    Distance matrix (angstroms):
                    1          2          3          4          5
     1  C    0.000000
     2  C    2.357670   0.000000
     3  C    1.371711   2.771200   0.000000
     4  C    2.771201   1.371713   2.459190   0.000000
     5  C    2.472747   2.472751   1.468539   1.468546   0.000000
     6  H    2.149484   3.865610   1.094740   3.459133   2.206879
     7  H    3.865611   2.149486   3.459133   1.094740   2.206888
     8  O    3.611833   3.611836   2.384748   2.384751   1.240378
     9  N    1.364512   1.364521   2.397322   2.397329   2.860859
    10  C    1.509825   3.645863   2.586416   4.263392   3.913917
    11  H    2.135009   3.969489   3.167875   4.660070   4.405789
    12  H    2.197679   4.522803   2.805298   4.916147   4.260911
    13  C    3.645853   1.509815   4.263380   2.586412   3.913915
    14  H    3.969489   2.135009   4.660066   3.167881   4.405794
    15  H    4.522804   2.197681   4.916150   2.805305   4.260924
    16  N    2.469264   3.996164   3.713714   4.908036   4.869947
    17  N    3.996161   2.469270   4.908037   3.713722   4.869956
    18  C    5.147542   5.147544   6.413629   6.413630   7.058883
    19  H    4.656352   4.656360   5.813037   5.813041   6.402413
    20  H    5.643448   6.008777   6.928108   7.241468   7.736078
    21  H    6.008760   5.643430   7.241451   6.928088   7.736060
    22  C    3.736638   5.274389   4.965262   6.253576   6.202558
    23  H    4.551885   5.825083   5.809147   6.893985   6.969411
    24  H    4.129175   5.996983   5.179726   6.823321   6.543285
    25  H    3.921657   5.270754   5.189504   6.313989   6.363720
    26  C    3.097063   4.608205   4.030664   5.328354   5.145742
    27  H    3.613034   5.461403   4.356419   6.039330   5.614423
    28  H    4.018406   5.167585   5.013385   6.012063   6.011420
    29  H    2.736095   4.050422   3.431137   4.590909   4.376825
    30  C    5.274380   3.736639   6.253570   4.965267   6.202564
    31  H    5.996975   4.129168   6.823312   5.179722   6.543285
    32  H    5.825083   4.551891   6.893987   5.809155   6.969421
    33  H    5.270747   3.921653   6.313980   5.189505   6.363720
    34  C    4.608207   3.097074   5.328363   4.030676   5.145759
    35  H    5.167574   4.018403   6.012059   5.013383   6.011422
    36  H    5.461393   3.613032   6.039327   4.356420   5.614432
    37  H    4.050421   2.736102   4.590918   3.431146   4.376841
    38  H    4.642102   4.642109   5.970070   5.970077   6.636248
    39  Rh   2.840146   2.840150   4.103959   4.103962   4.704081
    40  H    3.418724   4.050066   2.056171   3.024274   1.593279
                    6          7          8          9         10
     6  H    0.000000
     7  H    4.378330   0.000000
     8  O    2.663777   2.663784   0.000000
     9  N    3.386978   3.386986   4.101227   0.000000
    10  C    2.866848   5.354451   4.964437   2.354255   0.000000
    11  H    3.441695   5.713292   5.452266   2.716853   1.106196
    12  H    2.654512   6.005393   5.131053   3.321959   1.109414
    13  C    5.354440   2.866848   4.964435   2.354254   4.671020
    14  H    5.713289   3.441700   5.452271   2.716862   4.838425
    15  H    6.005395   2.654520   5.131066   3.321969   5.673538
    16  N    4.133292   5.951226   5.997975   2.674325   1.504147
    17  N    5.951226   4.133303   5.997984   2.674331   4.671293
    18  C    7.147850   7.147853   8.255566   4.386000   4.796451
    19  H    6.543027   6.543035   7.551039   3.960570   4.482868
    20  H    7.539969   8.047137   8.923050   5.090336   5.018421
    21  H    8.047120   7.539949   8.923031   5.090320   5.798117
    22  C    5.242546   7.295000   7.316361   3.932668   2.431434
    23  H    6.145498   7.893192   8.106607   4.553478   3.389899
    24  H    5.224303   7.900458   7.559461   4.635146   2.661419
    25  H    5.533357   7.324500   7.504931   3.967839   2.693319
    26  C    4.301957   6.334819   6.148543   3.468287   2.423691
    27  H    4.349284   7.075628   6.502766   4.285584   2.695722
    28  H    5.362773   6.954355   7.038391   4.108652   3.387411
    29  H    3.771833   5.548972   5.317971   3.126769   2.622219
    30  C    7.294993   5.242556   7.316367   3.932668   5.776219
    31  H    7.900449   5.224301   7.559461   4.635146   6.674954
    32  H    7.893193   6.145508   8.106617   4.553485   6.137339
    33  H    7.324491   5.533359   7.504931   3.967839   5.641252
    34  C    6.334827   4.301972   6.148561   3.468296   5.379861
    35  H    6.954349   5.362775   7.038395   4.108647   5.691105
    36  H    7.075625   4.349292   6.502777   4.285582   6.363751
    37  H    5.548980   3.771847   5.317989   3.126774   4.954567
    38  H    6.732741   6.732751   7.867349   3.816625   4.267721
    39  Rh   4.948209   4.948214   5.930829   1.936390   2.907992
    40  H    1.928053   3.531867   1.000000   4.221382   4.579805
                   11         12         13         14         15
    11  H    0.000000
    12  H    1.800310   0.000000
    13  C    4.838418   5.673527   0.000000
    14  H    4.749850   5.892516   1.106206   0.000000
    15  H    5.892518   6.627710   1.109419   1.800315   0.000000
    16  N    2.101047   2.153559   4.671289   4.929809   5.691168
    17  N    4.929803   5.691165   1.504152   2.101054   2.153564
    18  C    5.083401   5.584115   4.796448   5.083406   5.584111
    19  H    4.993867   5.207299   4.482874   4.993881   5.207308
    20  H    5.287052   5.659393   5.798123   6.043924   6.632893
    21  H    6.043913   6.632888   5.018399   5.287040   5.659366
    22  C    2.489003   2.809392   5.776224   5.840495   6.844385
    23  H    3.543302   3.766843   6.137334   6.258773   7.164458
    24  H    2.739263   2.587597   6.674954   6.753359   7.737215
    25  H    2.287361   3.257265   5.641254   5.496951   6.743281
    26  C    3.339187   2.550135   5.379853   5.882866   6.263800
    27  H    3.569500   2.352161   6.363753   6.821485   7.258332
    28  H    4.183470   3.606826   5.691109   6.226446   6.533325
    29  H    3.677831   2.768635   4.954560   5.612166   5.721861
    30  C    5.840479   6.844375   2.431442   2.489003   2.809397
    31  H    6.753349   7.737208   2.661419   2.739257   2.587586
    32  H    6.258768   7.164460   3.389906   3.543305   3.766844
    33  H    5.496942   6.743274   2.693324   2.287360   3.257263
    34  C    5.882862   6.263802   2.423693   3.339193   2.550138
    35  H    6.226429   6.533316   3.387404   4.183467   3.606820
    36  H    6.821471   7.258322   2.695718   3.569498   2.352158
    37  H    5.612160   5.721860   2.622214   3.677835   2.768635
    38  H    4.344925   5.172124   4.267731   4.344942   5.172136
    39  Rh   3.233986   3.903571   2.907991   3.233994   3.903574
    40  H    5.096800   4.549726   5.506054   5.956267   5.827139
                   16         17         18         19         20
    16  N    0.000000
    17  N    4.187200   0.000000
    18  C    3.434823   3.434815   0.000000
    19  H    3.158245   3.158253   1.112345   0.000000
    20  H    3.553131   4.492753   1.098783   1.801618   0.000000
    21  H    4.492754   3.553101   1.098781   1.801614   1.805550
    22  C    1.475737   5.175628   3.611777   3.721628   3.350998
    23  H    2.108902   5.283149   2.992378   3.234192   2.466870
    24  H    2.137923   6.177480   4.623292   4.652379   4.238761
    25  H    2.109685   5.145443   3.863383   4.189088   3.710165
    26  C    1.482408   4.782958   3.754449   3.142091   3.748688
    27  H    2.135757   5.860884   4.690592   4.158958   4.498415
    28  H    2.118547   4.820390   3.114805   2.488913   2.964671
    29  H    2.115885   4.507577   4.192418   3.367134   4.413001
    30  C    5.175623   1.475736   3.611767   3.721640   4.673410
    31  H    6.177481   2.137920   4.623292   4.652396   5.696622
    32  H    5.283156   2.108903   2.992379   3.234215   4.025335
    33  H    5.145445   2.109679   3.863383   4.189101   4.823125
    34  C    4.782958   1.482408   3.754435   3.142094   4.792648
    35  H    4.820381   2.118537   3.114788   2.488916   4.107717
    36  H    5.860873   2.135749   4.690572   4.158956   5.751560
    37  H    4.507572   2.115881   4.192402   3.367129   5.128864
    38  H    3.078441   3.078447   1.141734   1.890431   1.801540
    39  Rh   2.117713   2.117711   2.456859   2.199448   3.207240
    40  H    5.726125   6.415841   8.315910   7.616966   8.877797
                   21         22         23         24         25
    21  H    0.000000
    22  C    4.673421   0.000000
    23  H    4.025341   1.102018   0.000000
    24  H    5.696623   1.111744   1.801263   0.000000
    25  H    4.823128   1.100439   1.797134   1.810790   0.000000
    26  C    4.792654   2.408366   2.621524   2.680082   3.366438
    27  H    5.751574   2.623075   2.925901   2.407890   3.650563
    28  H    4.107727   2.680925   2.416572   3.092345   3.664653
    29  H    5.128867   3.364776   3.648060   3.664299   4.201991
    30  C    3.350974   5.877270   5.843751   6.955901   5.667941
    31  H    4.238745   6.955910   6.942575   8.022200   6.743593
    32  H    2.466853   5.843762   5.603800   6.942577   5.718906
    33  H    3.710155   5.667953   5.718907   6.743593   5.260040
    34  C    3.748647   5.901362   5.877718   6.841179   6.108225
    35  H    2.964630   5.788123   5.561505   6.743986   6.081202
    36  H    4.498370   6.977992   6.958960   7.929005   7.123714
    37  H    4.412959   5.792833   5.874424   6.616426   6.128357
    38  H    1.801550   3.188535   2.822882   4.286301   3.145146
    39  Rh   3.207227   3.075550   3.265594   4.065466   3.191001
    40  H    9.078879   6.975088   7.817498   7.079778   7.215535
                   26         27         28         29         30
    26  C    0.000000
    27  H    1.112212   0.000000
    28  H    1.102030   1.806614   0.000000
    29  H    1.100968   1.809353   1.799008   0.000000
    30  C    5.901362   6.978000   5.788133   5.792839   0.000000
    31  H    6.841181   7.929017   6.743998   6.616430   1.111757
    32  H    5.877731   6.958981   5.561525   5.874442   1.102017
    33  H    6.108228   7.123727   6.081216   6.128363   1.100426
    34  C    4.938660   6.030882   4.829802   4.460538   2.408369
    35  H    4.829797   5.925966   4.477430   4.491737   2.680925
    36  H    6.030871   7.114170   5.925960   5.494403   2.623078
    37  H    4.460531   5.494409   4.491735   3.783260   3.364775
    38  H    3.840247   4.762396   3.492909   4.309184   3.188541
    39  Rh   2.928650   3.955030   3.067857   3.003103   3.075545
    40  H    5.819443   6.014299   6.786863   5.049510   7.772161
                   31         32         33         34         35
    31  H    0.000000
    32  H    1.801268   0.000000
    33  H    1.810790   1.797130   0.000000
    34  C    2.680077   2.621523   3.366431   0.000000
    35  H    3.092343   2.416574   3.664643   1.102019   0.000000
    36  H    2.407884   2.925897   3.650553   1.112202   1.806605
    37  H    3.664290   3.648058   4.201982   1.100968   1.798996
    38  H    4.286319   2.822900   3.145162   3.840248   3.492905
    39  Rh   4.065466   3.265599   3.191001   2.928648   3.067845
    40  H    8.134350   8.504178   7.911007   6.613884   7.417306
                   36         37         38         39         40
    36  H    0.000000
    37  H    1.809344   0.000000
    38  H    4.762393   4.309178   0.000000
    39  Rh   3.955018   3.003096   1.941177   0.000000
    40  H    7.099315   5.750154   7.930647   6.014544   0.000000
 Stoichiometry    C12H23N3ORh(1+)
 Framework group  C1[X(C12H23N3ORh)]
 Deg. of freedom   114
 Full point group                 C1      NOp   1
 Largest Abelian subgroup         C1      NOp   1
 Largest concise Abelian subgroup C1      NOp   1
                         Standard orientation:                         
 ---------------------------------------------------------------------
 Center     Atomic      Atomic             Coordinates (Angstroms)
 Number     Number       Type             X           Y           Z
 ---------------------------------------------------------------------
      1          6           0        1.529333    1.138350   -0.318520
      2          6           0        1.476146   -1.218718   -0.315907
      3          6           0        2.867192    1.159270   -0.016388
      4          6           0        2.811715   -1.299293   -0.013653
      5          6           0        3.620032   -0.087412    0.172352
      6          1           0        3.407913    2.106982    0.072595
      7          1           0        3.309142   -2.270231    0.077457
      8          8           0        4.827418   -0.114343    0.455254
      9          7           0        0.832163   -0.025213   -0.466734
     10          6           0        0.636663    2.315122   -0.631443
     11          1           0        0.484427    2.356763   -1.726321
     12          1           0        1.057295    3.284594   -0.293817
     13          6           0        0.531289   -2.354707   -0.626256
     14          1           0        0.377275   -2.391875   -1.721058
     15          1           0        0.907771   -3.341425   -0.286462
     16          7           0       -0.724195    2.104528   -0.026318
     17          7           0       -0.818664   -2.081604   -0.021678
     18          6           0       -3.425042    0.072014    0.583861
     19          1           0       -2.663098    0.055729    1.394101
     20          1           0       -4.024555    0.988640    0.671646
     21          1           0       -4.065266   -0.816450    0.673657
     22          6           0       -1.703268    2.971118   -0.710597
     23          1           0       -2.684517    2.857026   -0.222154
     24          1           0       -1.392679    4.036909   -0.650616
     25          1           0       -1.782024    2.663028   -1.764088
     26          6           0       -0.664959    2.480605    1.406368
     27          1           0       -0.431481    3.563485    1.505747
     28          1           0       -1.639504    2.272449    1.876903
     29          1           0        0.117242    1.885658    1.902684
     30          6           0       -1.835863   -2.904653   -0.704094
     31          1           0       -1.573652   -3.983244   -0.641725
     32          1           0       -2.810943   -2.745344   -0.215953
     33          1           0       -1.900685   -2.595670   -1.758259
     34          6           0       -0.776390   -2.456794    1.411841
     35          1           0       -1.740521   -2.203839    1.881855
     36          1           0       -0.591989   -3.548870    1.513631
     37          1           0        0.031876   -1.896636    1.906877
     38          1           0       -2.983489    0.060893   -0.468975
     39         45           0       -1.073424    0.018164   -0.125471
     40          1           0        4.849977    0.885402    0.454146
 ---------------------------------------------------------------------
 Rotational constants (GHZ):           0.5335266           0.3584415           0.2386069
 Standard basis: def2TZVPP (5D, 7F)
 There are   992 symmetry adapted cartesian basis functions of A   symmetry.
 There are   874 symmetry adapted basis functions of A   symmetry.
   874 basis functions,  1306 primitive gaussians,   992 cartesian basis functions
    70 alpha electrons       70 beta electrons
       nuclear repulsion energy      1548.1635977246 Hartrees.
 NAtoms=   40 NActive=   40 NUniq=   40 SFac= 1.00D+00 NAtFMM=   60 NAOKFM=F Big=F
 Integral buffers will be    131072 words long.
 Raffenetti 2 integral format.
 Two-electron integral symmetry is turned on.
 Nuclear repulsion after empirical dispersion term =     1548.1231518403 Hartrees.
 ------------------------------------------------------------------------------
 Polarizable Continuum Model (PCM)
 =================================
 Model                : PCM.
 Atomic radii         : UFF (Universal Force Field).
 Polarization charges : Total charges.
 Charge compensation  : None.
 Solution method      : On-the-fly selection.
 Cavity type          : Scaled VdW (van der Waals Surface) (Alpha=1.100).
 Cavity algorithm     : GePol (No added spheres)
                        Default sphere list used, NSphG=   40.
                        Lebedev-Laikov grids with approx.  5.0 points / Ang**2.
                        Smoothing algorithm: York/Karplus (Gamma=1.0000).
                        Polarization charges: spherical gaussians, with
                                              point-specific exponents (IZeta= 3).
                        Self-potential: point-specific (ISelfS= 7).
                        Self-field    : sphere-specific E.n sum rule (ISelfD= 2).
 1st derivatives      : Analytical E(r).r(x)/FMM algorithm (CHGder, D1EAlg=3).
                        Cavity 1st derivative terms included.
 Solvent              : Dichloromethane, Eps=   8.930000 Eps(inf)=   2.028346
 ------------------------------------------------------------------------------
 One-electron integrals computed using PRISM.
   1 Symmetry operations used in ECPInt.
 ECPInt:  NShTT=   54615 NPrTT=  139562 LenC2=   49244 LenP2D=   96115.
 LDataN:  DoStor=T MaxTD1= 8 Len=  415
 NBasis=   874 RedAO= T EigKep=  1.92D-05  NBF=   874
 NBsUse=   874 1.00D-06 EigRej= -1.00D+00 NBFU=   874
 Defaulting to unpruned grid for atomic number  45.
 ExpMin= 3.70D-02 ExpMax= 2.70D+04 ExpMxC= 9.22D+02 IAcc=3 IRadAn=         5 AccDes= 0.00D+00
 Harris functional with IExCor= 4639 and IRadAn=       5 diagonalized for initial guess.
 HarFok:  IExCor= 4639 AccDes= 0.00D+00 IRadAn=         5 IDoV= 1 UseB2=F ITyADJ=14
 ICtDFT=  3500011 ScaDFX=  1.000000  1.000000  1.000000  1.000000
 Defaulting to unpruned grid for atomic number  45.
 FoFCou: FMM=F IPFlag=           0 FMFlag=      100000 FMFlg1=           0
         NFxFlg=           0 DoJE=T BraDBF=F KetDBF=T FulRan=T
         wScrn=  0.000000 ICntrl=       500 IOpCl=  0 I1Cent=   200000004 NGrid=           0
         NMat0=    1 NMatS0=      1 NMatT0=    0 NMatD0=    1 NMtDS0=    0 NMtDT0=    0
 Petite list used in FoFCou.
 Requested convergence on RMS density matrix=1.00D-08 within 128 cycles.
 Requested convergence on MAX density matrix=1.00D-06.
 Requested convergence on             energy=1.00D-06.
 No special actions if energy rises.
 Defaulting to unpruned grid for atomic number  45.
 Defaulting to unpruned grid for atomic number  45.
 Defaulting to unpruned grid for atomic number  45.
 Defaulting to unpruned grid for atomic number  45.
 Defaulting to unpruned grid for atomic number  45.
 Defaulting to unpruned grid for atomic number  45.
 Inv3:  Mode=1 IEnd=    19938252.
 Iteration    1 A*A^-1 deviation from unit magnitude is 3.44D-15 for   1322.
 Iteration    1 A*A^-1 deviation from orthogonality  is 2.67D-15 for   2029   1399.
 Iteration    1 A^-1*A deviation from unit magnitude is 3.11D-15 for   1300.
 Iteration    1 A^-1*A deviation from orthogonality  is 1.75D-15 for   1629    971.
 Error on total polarization charges =  0.01815
 SCF Done:  E(RwB97XD) =  -821.116950142     A.U. after   18 cycles
            NFock= 18  Conv=0.64D-08     -V/T= 2.0989

 **********************************************************************

            Population analysis using the SCF Density.

 **********************************************************************

 Orbital symmetries:
       Occupied  (A) (A) (A) (A) (A) (A) (A) (A) (A) (A) (A) (A)
                 (A) (A) (A) (A) (A) (A) (A) (A) (A) (A) (A) (A)
                 (A) (A) (A) (A) (A) (A) (A) (A) (A) (A) (A) (A)
                 (A) (A) (A) (A) (A) (A) (A) (A) (A) (A) (A) (A)
                 (A) (A) (A) (A) (A) (A) (A) (A) (A) (A) (A) (A)
                 (A) (A) (A) (A) (A) (A) (A) (A) (A) (A)
       Virtual   (A) (A) (A) (A) (A) (A) (A) (A) (A) (A) (A) (A)
                 (A) (A) (A) (A) (A) (A) (A) (A) (A) (A) (A) (A)
                 (A) (A) (A) (A) (A) (A) (A) (A) (A) (A) (A) (A)
                 (A) (A) (A) (A) (A) (A) (A) (A) (A) (A) (A) (A)
                 (A) (A) (A) (A) (A) (A) (A) (A) (A) (A) (A) (A)
                 (A) (A) (A) (A) (A) (A) (A) (A) (A) (A) (A) (A)
                 (A) (A) (A) (A) (A) (A) (A) (A) (A) (A) (A) (A)
                 (A) (A) (A) (A) (A) (A) (A) (A) (A) (A) (A) (A)
                 (A) (A) (A) (A) (A) (A) (A) (A) (A) (A) (A) (A)
                 (A) (A) (A) (A) (A) (A) (A) (A) (A) (A) (A) (A)
                 (A) (A) (A) (A) (A) (A) (A) (A) (A) (A) (A) (A)
                 (A) (A) (A) (A) (A) (A) (A) (A) (A) (A) (A) (A)
                 (A) (A) (A) (A) (A) (A) (A) (A) (A) (A) (A) (A)
                 (A) (A) (A) (A) (A) (A) (A) (A) (A) (A) (A) (A)
                 (A) (A) (A) (A) (A) (A) (A) (A) (A) (A) (A) (A)
                 (A) (A) (A) (A) (A) (A) (A) (A) (A) (A) (A) (A)
                 (A) (A) (A) (A) (A) (A) (A) (A) (A) (A) (A) (A)
                 (A) (A) (A) (A) (A) (A) (A) (A) (A) (A) (A) (A)
                 (A) (A) (A) (A) (A) (A) (A) (A) (A) (A) (A) (A)
                 (A) (A) (A) (A) (A) (A) (A) (A) (A) (A) (A) (A)
                 (A) (A) (A) (A) (A) (A) (A) (A) (A) (A) (A) (A)
                 (A) (A) (A) (A) (A) (A) (A) (A) (A) (A) (A) (A)
                 (A) (A) (A) (A) (A) (A) (A) (A) (A) (A) (A) (A)
                 (A) (A) (A) (A) (A) (A) (A) (A) (A) (A) (A) (A)
                 (A) (A) (A) (A) (A) (A) (A) (A) (A) (A) (A) (A)
                 (A) (A) (A) (A) (A) (A) (A) (A) (A) (A) (A) (A)
                 (A) (A) (A) (A) (A) (A) (A) (A) (A) (A) (A) (A)
                 (A) (A) (A) (A) (A) (A) (A) (A) (A) (A) (A) (A)
                 (A) (A) (A) (A) (A) (A) (A) (A) (A) (A) (A) (A)
                 (A) (A) (A) (A) (A) (A) (A) (A) (A) (A) (A) (A)
                 (A) (A) (A) (A) (A) (A) (A) (A) (A) (A) (A) (A)
                 (A) (A) (A) (A) (A) (A) (A) (A) (A) (A) (A) (A)
                 (A) (A) (A) (A) (A) (A) (A) (A) (A) (A) (A) (A)
                 (A) (A) (A) (A) (A) (A) (A) (A) (A) (A) (A) (A)
                 (A) (A) (A) (A) (A) (A) (A) (A) (A) (A) (A) (A)
                 (A) (A) (A) (A) (A) (A) (A) (A) (A) (A) (A) (A)
                 (A) (A) (A) (A) (A) (A) (A) (A) (A) (A) (A) (A)
                 (A) (A) (A) (A) (A) (A) (A) (A) (A) (A) (A) (A)
                 (A) (A) (A) (A) (A) (A) (A) (A) (A) (A) (A) (A)
                 (A) (A) (A) (A) (A) (A) (A) (A) (A) (A) (A) (A)
                 (A) (A) (A) (A) (A) (A) (A) (A) (A) (A) (A) (A)
                 (A) (A) (A) (A) (A) (A) (A) (A) (A) (A) (A) (A)
                 (A) (A) (A) (A) (A) (A) (A) (A) (A) (A) (A) (A)
                 (A) (A) (A) (A) (A) (A) (A) (A) (A) (A) (A) (A)
                 (A) (A) (A) (A) (A) (A) (A) (A) (A) (A) (A) (A)
                 (A) (A) (A) (A) (A) (A) (A) (A) (A) (A) (A) (A)
                 (A) (A) (A) (A) (A) (A) (A) (A) (A) (A) (A) (A)
                 (A) (A) (A) (A) (A) (A) (A) (A) (A) (A) (A) (A)
                 (A) (A) (A) (A) (A) (A) (A) (A) (A) (A) (A) (A)
                 (A) (A) (A) (A) (A) (A) (A) (A) (A) (A) (A) (A)
                 (A) (A) (A) (A) (A) (A) (A) (A) (A) (A) (A) (A)
                 (A) (A) (A) (A) (A) (A) (A) (A) (A) (A) (A) (A)
                 (A) (A) (A) (A) (A) (A) (A) (A) (A) (A) (A) (A)
                 (A) (A) (A) (A) (A) (A) (A) (A) (A) (A) (A) (A)
                 (A) (A) (A) (A) (A) (A) (A) (A) (A) (A) (A) (A)
                 (A) (A) (A) (A) (A) (A) (A) (A) (A) (A) (A) (A)
                 (A) (A) (A) (A) (A) (A) (A) (A) (A) (A) (A) (A)
                 (A) (A) (A) (A) (A) (A) (A) (A) (A) (A) (A) (A)
                 (A) (A) (A) (A) (A) (A) (A) (A) (A) (A) (A) (A)
                 (A) (A) (A) (A) (A) (A) (A) (A) (A) (A) (A) (A)
                 (A) (A) (A) (A) (A) (A) (A) (A) (A) (A) (A) (A)
                 (A) (A) (A) (A) (A) (A) (A) (A) (A) (A) (A) (A)
                 (A) (A) (A) (A) (A) (A) (A) (A) (A) (A) (A) (A)
                 (A) (A) (A) (A) (A) (A) (A) (A) (A) (A) (A) (A)
                 (A) (A) (A) (A) (A) (A) (A) (A) (A) (A) (A) (A)
                 (A) (A) (A) (A) (A) (A) (A) (A) (A) (A) (A) (A)
                 (A) (A) (A) (A) (A) (A) (A) (A) (A) (A) (A) (A)
 The electronic state is 1-A.
 Alpha  occ. eigenvalues --  -19.34991 -14.51219 -14.51155 -14.49751 -10.42095
 Alpha  occ. eigenvalues --  -10.37549 -10.37265 -10.35677 -10.35534 -10.33376
 Alpha  occ. eigenvalues --  -10.33273 -10.33215 -10.33194 -10.33146 -10.32754
 Alpha  occ. eigenvalues --  -10.30857  -3.30093  -2.06540  -2.06351  -2.02848
 Alpha  occ. eigenvalues --   -1.28180  -1.10308  -1.07370  -1.06254  -0.93424
 Alpha  occ. eigenvalues --   -0.91669  -0.85404  -0.83715  -0.83296  -0.83245
 Alpha  occ. eigenvalues --   -0.82671  -0.76892  -0.75417  -0.72383  -0.71859
 Alpha  occ. eigenvalues --   -0.68845  -0.64559  -0.62013  -0.61054  -0.60190
 Alpha  occ. eigenvalues --   -0.59788  -0.59392  -0.58441  -0.58132  -0.57823
 Alpha  occ. eigenvalues --   -0.55479  -0.54085  -0.53572  -0.52782  -0.52214
 Alpha  occ. eigenvalues --   -0.51753  -0.51571  -0.50561  -0.50354  -0.49296
 Alpha  occ. eigenvalues --   -0.48746  -0.48464  -0.47881  -0.47602  -0.46740
 Alpha  occ. eigenvalues --   -0.45591  -0.45158  -0.43267  -0.38537  -0.37534
 Alpha  occ. eigenvalues --   -0.37181  -0.31584  -0.29389  -0.27723  -0.27154
 Alpha virt. eigenvalues --   -0.00378   0.01584   0.05782   0.06307   0.07059
 Alpha virt. eigenvalues --    0.08372   0.09247   0.09818   0.11889   0.12932
 Alpha virt. eigenvalues --    0.13058   0.13734   0.14162   0.14232   0.15243
 Alpha virt. eigenvalues --    0.15351   0.15537   0.15973   0.16320   0.16670
 Alpha virt. eigenvalues --    0.17197   0.17865   0.18944   0.19213   0.19802
 Alpha virt. eigenvalues --    0.19959   0.20676   0.20792   0.20976   0.21397
 Alpha virt. eigenvalues --    0.22057   0.22239   0.22509   0.23183   0.23659
 Alpha virt. eigenvalues --    0.23996   0.24359   0.24592   0.25738   0.26824
 Alpha virt. eigenvalues --    0.27125   0.27275   0.28215   0.28752   0.29134
 Alpha virt. eigenvalues --    0.29961   0.30126   0.30768   0.31409   0.31965
 Alpha virt. eigenvalues --    0.32352   0.32804   0.33127   0.33909   0.35073
 Alpha virt. eigenvalues --    0.35671   0.35943   0.36409   0.37275   0.37605
 Alpha virt. eigenvalues --    0.38277   0.39145   0.39313   0.39635   0.39973
 Alpha virt. eigenvalues --    0.40321   0.40970   0.41763   0.41953   0.42831
 Alpha virt. eigenvalues --    0.43441   0.43753   0.43920   0.44976   0.45527
 Alpha virt. eigenvalues --    0.45728   0.46488   0.46780   0.46942   0.47130
 Alpha virt. eigenvalues --    0.48014   0.48442   0.48657   0.48922   0.49174
 Alpha virt. eigenvalues --    0.49688   0.50357   0.50444   0.50498   0.50952
 Alpha virt. eigenvalues --    0.51290   0.51876   0.52013   0.52765   0.53242
 Alpha virt. eigenvalues --    0.53914   0.54659   0.54847   0.55179   0.55820
 Alpha virt. eigenvalues --    0.56261   0.56985   0.57285   0.58128   0.58451
 Alpha virt. eigenvalues --    0.59103   0.59223   0.60289   0.60905   0.61457
 Alpha virt. eigenvalues --    0.61878   0.62792   0.63414   0.63762   0.64232
 Alpha virt. eigenvalues --    0.64806   0.65602   0.66176   0.67007   0.67572
 Alpha virt. eigenvalues --    0.68634   0.69540   0.70027   0.70756   0.72531
 Alpha virt. eigenvalues --    0.72588   0.73036   0.73181   0.73631   0.73797
 Alpha virt. eigenvalues --    0.74572   0.76069   0.77014   0.78885   0.79706
 Alpha virt. eigenvalues --    0.80760   0.81229   0.81883   0.82575   0.83839
 Alpha virt. eigenvalues --    0.84789   0.84977   0.85665   0.86607   0.86681
 Alpha virt. eigenvalues --    0.87458   0.87782   0.88564   0.89624   0.89954
 Alpha virt. eigenvalues --    0.90755   0.91003   0.91834   0.93363   0.93842
 Alpha virt. eigenvalues --    0.94140   0.94693   0.95144   0.95480   0.96782
 Alpha virt. eigenvalues --    0.96898   0.97718   0.98603   0.98681   0.99286
 Alpha virt. eigenvalues --    0.99477   1.00657   1.01288   1.01704   1.02924
 Alpha virt. eigenvalues --    1.03820   1.04276   1.04876   1.05074   1.05580
 Alpha virt. eigenvalues --    1.06265   1.07428   1.07812   1.07911   1.08311
 Alpha virt. eigenvalues --    1.08620   1.09684   1.10003   1.10946   1.11862
 Alpha virt. eigenvalues --    1.11884   1.13001   1.13566   1.13822   1.14324
 Alpha virt. eigenvalues --    1.15314   1.15522   1.16467   1.17785   1.18865
 Alpha virt. eigenvalues --    1.19678   1.20169   1.20619   1.21068   1.21315
 Alpha virt. eigenvalues --    1.22417   1.22858   1.23807   1.25444   1.26168
 Alpha virt. eigenvalues --    1.26277   1.27271   1.27483   1.28244   1.28736
 Alpha virt. eigenvalues --    1.29510   1.29939   1.30839   1.31166   1.31985
 Alpha virt. eigenvalues --    1.32255   1.33489   1.34228   1.34542   1.35830
 Alpha virt. eigenvalues --    1.36164   1.36478   1.36761   1.37954   1.38227
 Alpha virt. eigenvalues --    1.39001   1.40128   1.40558   1.40988   1.41585
 Alpha virt. eigenvalues --    1.42253   1.43179   1.43407   1.43776   1.45368
 Alpha virt. eigenvalues --    1.45573   1.45774   1.46812   1.47141   1.47724
 Alpha virt. eigenvalues --    1.49069   1.49128   1.49864   1.50270   1.51941
 Alpha virt. eigenvalues --    1.52221   1.52412   1.53414   1.54112   1.54309
 Alpha virt. eigenvalues --    1.54574   1.55362   1.55511   1.55901   1.56031
 Alpha virt. eigenvalues --    1.56428   1.57479   1.58082   1.58463   1.59498
 Alpha virt. eigenvalues --    1.60438   1.60658   1.61679   1.61788   1.62474
 Alpha virt. eigenvalues --    1.63794   1.64684   1.65683   1.66301   1.66466
 Alpha virt. eigenvalues --    1.66827   1.67207   1.67821   1.68648   1.70267
 Alpha virt. eigenvalues --    1.71305   1.71871   1.72147   1.72685   1.74096
 Alpha virt. eigenvalues --    1.74825   1.76048   1.76480   1.77330   1.78273
 Alpha virt. eigenvalues --    1.80925   1.81154   1.81630   1.81985   1.82887
 Alpha virt. eigenvalues --    1.84077   1.84319   1.84911   1.85108   1.86537
 Alpha virt. eigenvalues --    1.88944   1.89169   1.89541   1.91203   1.91325
 Alpha virt. eigenvalues --    1.92336   1.93125   1.95301   1.96207   1.96856
 Alpha virt. eigenvalues --    1.99644   2.00036   2.01289   2.01922   2.03843
 Alpha virt. eigenvalues --    2.04717   2.05399   2.07493   2.07994   2.08777
 Alpha virt. eigenvalues --    2.09143   2.12648   2.12913   2.13339   2.13829
 Alpha virt. eigenvalues --    2.14664   2.18161   2.19011   2.19730   2.20239
 Alpha virt. eigenvalues --    2.21160   2.22160   2.22875   2.24050   2.26418
 Alpha virt. eigenvalues --    2.26585   2.27467   2.28248   2.28874   2.29707
 Alpha virt. eigenvalues --    2.32459   2.32905   2.33398   2.37071   2.37962
 Alpha virt. eigenvalues --    2.39133   2.40908   2.42278   2.42655   2.42980
 Alpha virt. eigenvalues --    2.45896   2.49152   2.50525   2.51571   2.54242
 Alpha virt. eigenvalues --    2.57085   2.58125   2.58470   2.58758   2.59878
 Alpha virt. eigenvalues --    2.61091   2.64110   2.64474   2.65981   2.66437
 Alpha virt. eigenvalues --    2.66961   2.67827   2.68785   2.68968   2.69202
 Alpha virt. eigenvalues --    2.69699   2.71151   2.72660   2.73137   2.73265
 Alpha virt. eigenvalues --    2.73999   2.74920   2.77104   2.78635   2.78733
 Alpha virt. eigenvalues --    2.79825   2.81319   2.82068   2.82815   2.83576
 Alpha virt. eigenvalues --    2.84490   2.84638   2.85575   2.85859   2.86467
 Alpha virt. eigenvalues --    2.87828   2.88070   2.88434   2.89256   2.89987
 Alpha virt. eigenvalues --    2.90603   2.90970   2.91820   2.92780   2.93283
 Alpha virt. eigenvalues --    2.94478   2.95291   2.95715   2.95951   2.96616
 Alpha virt. eigenvalues --    2.97424   2.97802   2.98263   2.98750   2.99347
 Alpha virt. eigenvalues --    2.99734   3.00598   3.01148   3.01617   3.02120
 Alpha virt. eigenvalues --    3.02514   3.02732   3.03339   3.04339   3.04714
 Alpha virt. eigenvalues --    3.06306   3.07374   3.07901   3.08514   3.08932
 Alpha virt. eigenvalues --    3.09411   3.09622   3.10033   3.10692   3.11591
 Alpha virt. eigenvalues --    3.12411   3.13152   3.14309   3.14734   3.15646
 Alpha virt. eigenvalues --    3.15955   3.16615   3.17873   3.18673   3.19036
 Alpha virt. eigenvalues --    3.19158   3.20179   3.21440   3.21932   3.22338
 Alpha virt. eigenvalues --    3.23311   3.23610   3.24806   3.25020   3.26749
 Alpha virt. eigenvalues --    3.27164   3.27816   3.29154   3.29608   3.29728
 Alpha virt. eigenvalues --    3.30332   3.30878   3.31963   3.32496   3.32940
 Alpha virt. eigenvalues --    3.33910   3.34094   3.34964   3.35446   3.36557
 Alpha virt. eigenvalues --    3.37004   3.37704   3.38916   3.39317   3.40340
 Alpha virt. eigenvalues --    3.40526   3.41124   3.41753   3.42693   3.43185
 Alpha virt. eigenvalues --    3.43630   3.44552   3.44893   3.45717   3.46381
 Alpha virt. eigenvalues --    3.47462   3.48079   3.48211   3.49217   3.49607
 Alpha virt. eigenvalues --    3.51251   3.51538   3.52483   3.52776   3.53579
 Alpha virt. eigenvalues --    3.54014   3.54187   3.54928   3.55469   3.56679
 Alpha virt. eigenvalues --    3.56845   3.57067   3.57511   3.58591   3.58762
 Alpha virt. eigenvalues --    3.59345   3.59534   3.60433   3.61259   3.61957
 Alpha virt. eigenvalues --    3.63654   3.63820   3.65181   3.65439   3.66054
 Alpha virt. eigenvalues --    3.66562   3.66881   3.67486   3.68037   3.68830
 Alpha virt. eigenvalues --    3.69832   3.70980   3.73047   3.73526   3.73900
 Alpha virt. eigenvalues --    3.74181   3.75244   3.75525   3.76172   3.77252
 Alpha virt. eigenvalues --    3.78623   3.79333   3.79477   3.79936   3.80967
 Alpha virt. eigenvalues --    3.82036   3.83521   3.83781   3.84167   3.85140
 Alpha virt. eigenvalues --    3.85962   3.86405   3.87802   3.88674   3.89110
 Alpha virt. eigenvalues --    3.89798   3.90104   3.92048   3.92945   3.93509
 Alpha virt. eigenvalues --    3.94233   3.94971   3.95073   3.95830   3.97163
 Alpha virt. eigenvalues --    3.97850   3.98468   3.99428   3.99514   4.00230
 Alpha virt. eigenvalues --    4.01185   4.02405   4.02938   4.03371   4.04241
 Alpha virt. eigenvalues --    4.06030   4.06548   4.07436   4.08075   4.08421
 Alpha virt. eigenvalues --    4.09637   4.10249   4.11650   4.12495   4.13379
 Alpha virt. eigenvalues --    4.14462   4.14675   4.15636   4.15982   4.16257
 Alpha virt. eigenvalues --    4.16967   4.17227   4.18057   4.18945   4.19233
 Alpha virt. eigenvalues --    4.20102   4.20289   4.20441   4.20482   4.21018
 Alpha virt. eigenvalues --    4.21306   4.22175   4.22750   4.22883   4.23638
 Alpha virt. eigenvalues --    4.24123   4.24355   4.24952   4.25202   4.25949
 Alpha virt. eigenvalues --    4.26627   4.27491   4.27526   4.28555   4.29018
 Alpha virt. eigenvalues --    4.30449   4.31326   4.31874   4.32801   4.33013
 Alpha virt. eigenvalues --    4.33555   4.34011   4.34351   4.34525   4.35901
 Alpha virt. eigenvalues --    4.36573   4.37272   4.38037   4.38387   4.39163
 Alpha virt. eigenvalues --    4.40397   4.41157   4.42312   4.43151   4.43996
 Alpha virt. eigenvalues --    4.44955   4.45962   4.45977   4.46685   4.46985
 Alpha virt. eigenvalues --    4.47749   4.48347   4.50281   4.50635   4.51089
 Alpha virt. eigenvalues --    4.51784   4.52558   4.53243   4.53495   4.54405
 Alpha virt. eigenvalues --    4.54905   4.57310   4.58274   4.58506   4.59782
 Alpha virt. eigenvalues --    4.61020   4.62591   4.63716   4.64735   4.67527
 Alpha virt. eigenvalues --    4.67914   4.69401   4.71635   4.71907   4.73553
 Alpha virt. eigenvalues --    4.74242   4.74508   4.76036   4.76967   4.77297
 Alpha virt. eigenvalues --    4.78941   4.79713   4.79980   4.80564   4.81596
 Alpha virt. eigenvalues --    4.82304   4.83191   4.83660   4.85438   4.87894
 Alpha virt. eigenvalues --    4.89001   4.90871   4.90971   4.91858   4.92360
 Alpha virt. eigenvalues --    4.94347   4.95754   4.97630   4.98477   4.99050
 Alpha virt. eigenvalues --    5.01915   5.02753   5.03688   5.05198   5.05322
 Alpha virt. eigenvalues --    5.06683   5.07446   5.07964   5.09024   5.10041
 Alpha virt. eigenvalues --    5.10306   5.11250   5.12964   5.13573   5.14248
 Alpha virt. eigenvalues --    5.15466   5.16182   5.16809   5.17726   5.18594
 Alpha virt. eigenvalues --    5.20056   5.20648   5.20961   5.21217   5.22507
 Alpha virt. eigenvalues --    5.22764   5.24229   5.24625   5.25338   5.26344
 Alpha virt. eigenvalues --    5.27276   5.28156   5.28436   5.29031   5.29371
 Alpha virt. eigenvalues --    5.30419   5.32415   5.33101   5.33647   5.33866
 Alpha virt. eigenvalues --    5.34559   5.35916   5.36674   5.36775   5.37707
 Alpha virt. eigenvalues --    5.39248   5.39980   5.40093   5.41735   5.42230
 Alpha virt. eigenvalues --    5.42961   5.43423   5.44726   5.45745   5.46429
 Alpha virt. eigenvalues --    5.48093   5.49859   5.50041   5.50562   5.51129
 Alpha virt. eigenvalues --    5.52114   5.52928   5.53919   5.55170   5.55739
 Alpha virt. eigenvalues --    5.59666   5.60154   5.62420   5.62712   5.64504
 Alpha virt. eigenvalues --    5.65148   5.65200   5.66024   5.66754   5.67084
 Alpha virt. eigenvalues --    5.67591   5.67857   5.68691   5.71560   5.72817
 Alpha virt. eigenvalues --    5.73396   5.74746   5.75812   5.75925   5.77695
 Alpha virt. eigenvalues --    5.77885   5.78347   5.78637   5.79294   5.80655
 Alpha virt. eigenvalues --    5.82363   5.83602   5.92182   5.97054   6.00107
 Alpha virt. eigenvalues --    6.07595   6.08019   6.08735   6.12462   6.12719
 Alpha virt. eigenvalues --    6.15297   6.19505   6.21336   6.26353   6.30868
 Alpha virt. eigenvalues --    6.31057   6.34958   6.37939   6.64371   6.67067
 Alpha virt. eigenvalues --    6.82001   6.82390   6.95917   7.27447   7.34892
 Alpha virt. eigenvalues --    7.55762  22.88622  23.08084  23.28302  23.39908
 Alpha virt. eigenvalues --   23.43631  23.49322  23.71180  23.72613  23.74857
 Alpha virt. eigenvalues --   23.80297  23.84207  23.90321  31.07614  32.87035
 Alpha virt. eigenvalues --   32.95205  33.07138  44.12492 102.30918
          Condensed to atoms (all electrons):
               1          2          3          4          5          6
     1  C    5.187169  -0.048628   0.394727  -0.042517  -0.006895  -0.000055
     2  C   -0.048628   5.078416  -0.046381   0.545602  -0.040551  -0.000082
     3  C    0.394727  -0.046381   5.253676   0.015749   0.413886   0.409716
     4  C   -0.042517   0.545602   0.015749   4.968150   0.457776   0.002799
     5  C   -0.006895  -0.040551   0.413886   0.457776   4.635683  -0.038105
     6  H   -0.000055  -0.000082   0.409716   0.002799  -0.038105   0.517287
     7  H   -0.002901  -0.023714   0.011654   0.423461  -0.038205  -0.000132
     8  O    0.007799   0.000973  -0.075677  -0.050717   0.370495  -0.001659
     9  N    0.350308   0.339863  -0.087729  -0.075680  -0.005216   0.003164
    10  C    0.200880  -0.002823  -0.063649  -0.002873   0.006800  -0.006438
    11  H   -0.023575   0.000725  -0.000231   0.000567  -0.000529   0.000278
    12  H   -0.058194  -0.000257  -0.005248  -0.000474   0.001372   0.000370
    13  C   -0.002030   0.221928  -0.004873  -0.075079   0.012011  -0.000018
    14  H    0.000615  -0.024942   0.000646   0.000255  -0.000657   0.000003
    15  H   -0.000271  -0.058322  -0.000473  -0.004002   0.001290  -0.000004
    16  N   -0.012726   0.002644   0.001894  -0.000105  -0.000142   0.000199
    17  N    0.002646  -0.016047   0.000111   0.003150  -0.000533  -0.000001
    18  C    0.001653   0.001543   0.000138   0.000116  -0.000011   0.000001
    19  H   -0.000242  -0.000246  -0.000070  -0.000070   0.000018  -0.000001
    20  H   -0.000035  -0.000025  -0.000000  -0.000000  -0.000000  -0.000000
    21  H   -0.000027  -0.000033  -0.000001  -0.000000  -0.000000   0.000000
    22  C    0.013539  -0.000052   0.000067   0.000050  -0.000037  -0.000010
    23  H   -0.000257   0.000005   0.000056   0.000004  -0.000002   0.000001
    24  H    0.000861  -0.000003  -0.000081  -0.000006   0.000005   0.000007
    25  H   -0.001891   0.000047  -0.000165   0.000003   0.000002  -0.000004
    26  C    0.004579  -0.000633   0.005737   0.000080  -0.000447  -0.000079
    27  H   -0.005140  -0.000018  -0.000914  -0.000024   0.000033  -0.000028
    28  H   -0.000434   0.000090  -0.000044   0.000030  -0.000001   0.000001
    29  H    0.015414  -0.000800   0.005731   0.000446  -0.000706   0.000267
    30  C   -0.000037   0.014010   0.000021  -0.000170   0.000015   0.000000
    31  H   -0.000002   0.000845  -0.000006  -0.000089   0.000005  -0.000000
    32  H    0.000004  -0.000300   0.000005   0.000056  -0.000003   0.000000
    33  H    0.000050  -0.001748  -0.000000  -0.000165   0.000007   0.000000
    34  C   -0.000584   0.004626  -0.000066   0.005599  -0.000421   0.000004
    35  H    0.000090  -0.000458   0.000032  -0.000073   0.000003   0.000000
    36  H   -0.000015  -0.005072  -0.000024  -0.000813   0.000029  -0.000000
    37  H   -0.000777   0.014985   0.000477   0.005594  -0.000695   0.000005
    38  H    0.000172   0.000155   0.000001  -0.000003   0.000003  -0.000000
    39  Rh  -0.061182  -0.060507  -0.011008  -0.008839   0.005811  -0.001111
    40  H    0.011382  -0.001135  -0.029009   0.002323  -0.054040   0.007972
               7          8          9         10         11         12
     1  C   -0.002901   0.007799   0.350308   0.200880  -0.023575  -0.058194
     2  C   -0.023714   0.000973   0.339863  -0.002823   0.000725  -0.000257
     3  C    0.011654  -0.075677  -0.087729  -0.063649  -0.000231  -0.005248
     4  C    0.423461  -0.050717  -0.075680  -0.002873   0.000567  -0.000474
     5  C   -0.038205   0.370495  -0.005216   0.006800  -0.000529   0.001372
     6  H   -0.000132  -0.001659   0.003164  -0.006438   0.000278   0.000370
     7  H    0.503293   0.003659   0.003115   0.000042   0.000003  -0.000005
     8  O    0.003659   7.636479   0.000540  -0.000331   0.000001   0.000009
     9  N    0.003115   0.000540   6.575791   0.024971  -0.008774   0.004027
    10  C    0.000042  -0.000331   0.024971   4.931623   0.423762   0.455371
    11  H    0.000003   0.000001  -0.008774   0.423762   0.523749  -0.014767
    12  H   -0.000005   0.000009   0.004027   0.455371  -0.014767   0.530489
    13  C   -0.006168  -0.000063   0.021768   0.000358  -0.000218   0.000101
    14  H    0.000380   0.000002  -0.008331  -0.000199  -0.000007  -0.000005
    15  H    0.000013  -0.000006   0.003838   0.000099  -0.000005  -0.000000
    16  N   -0.000003   0.000003  -0.042715   0.241659  -0.027963  -0.028239
    17  N    0.000232   0.000001  -0.042754   0.000248  -0.000000  -0.000033
    18  C    0.000001  -0.000000  -0.006729  -0.000898   0.000077  -0.000025
    19  H   -0.000001  -0.000000   0.000622   0.000309  -0.000033   0.000020
    20  H    0.000000   0.000000   0.000129  -0.000022   0.000008  -0.000001
    21  H   -0.000000   0.000000   0.000131   0.000032  -0.000000   0.000000
    22  C    0.000001  -0.000000  -0.001612  -0.046424  -0.004526  -0.005738
    23  H    0.000000   0.000000  -0.000164   0.007144   0.000539  -0.000480
    24  H   -0.000000   0.000000   0.000158  -0.008241  -0.002929   0.005515
    25  H    0.000000  -0.000000  -0.000117  -0.005466   0.001739  -0.000162
    26  C    0.000003   0.000001  -0.004781  -0.031485   0.005287  -0.016261
    27  H   -0.000000   0.000000   0.000568  -0.006345  -0.000154   0.007035
    28  H    0.000000  -0.000000  -0.000101   0.006498  -0.000161  -0.000035
    29  H    0.000006  -0.000002  -0.003713  -0.017668   0.000402  -0.002876
    30  C   -0.000018  -0.000000  -0.001570  -0.000046  -0.000000   0.000001
    31  H    0.000007  -0.000000   0.000158   0.000005  -0.000000  -0.000000
    32  H    0.000001   0.000000  -0.000151  -0.000015   0.000001   0.000000
    33  H   -0.000005  -0.000000  -0.000126  -0.000011   0.000002  -0.000000
    34  C   -0.000078  -0.000001  -0.004797   0.000207  -0.000000   0.000009
    35  H    0.000001  -0.000000  -0.000088  -0.000053   0.000002  -0.000000
    36  H   -0.000030   0.000000   0.000558   0.000008  -0.000000   0.000000
    37  H    0.000272  -0.000002  -0.003731  -0.000038   0.000005  -0.000005
    38  H   -0.000000  -0.000000  -0.001592  -0.000090  -0.000128   0.000013
    39  Rh  -0.001122   0.000140   0.214244  -0.015137  -0.005520   0.009851
    40  H   -0.000923   0.330007   0.000203  -0.000539   0.000005   0.000018
              13         14         15         16         17         18
     1  C   -0.002030   0.000615  -0.000271  -0.012726   0.002646   0.001653
     2  C    0.221928  -0.024942  -0.058322   0.002644  -0.016047   0.001543
     3  C   -0.004873   0.000646  -0.000473   0.001894   0.000111   0.000138
     4  C   -0.075079   0.000255  -0.004002  -0.000105   0.003150   0.000116
     5  C    0.012011  -0.000657   0.001290  -0.000142  -0.000533  -0.000011
     6  H   -0.000018   0.000003  -0.000004   0.000199  -0.000001   0.000001
     7  H   -0.006168   0.000380   0.000013  -0.000003   0.000232   0.000001
     8  O   -0.000063   0.000002  -0.000006   0.000003   0.000001  -0.000000
     9  N    0.021768  -0.008331   0.003838  -0.042715  -0.042754  -0.006729
    10  C    0.000358  -0.000199   0.000099   0.241659   0.000248  -0.000898
    11  H   -0.000218  -0.000007  -0.000005  -0.027963  -0.000000   0.000077
    12  H    0.000101  -0.000005  -0.000000  -0.028239  -0.000033  -0.000025
    13  C    4.910439   0.425316   0.454759   0.000257   0.244614  -0.000791
    14  H    0.425316   0.523717  -0.014679  -0.000008  -0.028300   0.000071
    15  H    0.454759  -0.014679   0.529714  -0.000032  -0.028294  -0.000023
    16  N    0.000257  -0.000008  -0.000032   6.409809  -0.006630   0.001191
    17  N    0.244614  -0.028300  -0.028294  -0.006630   6.408544   0.001156
    18  C   -0.000791   0.000071  -0.000023   0.001191   0.001156   4.828328
    19  H    0.000306  -0.000033   0.000019   0.000241   0.000259   0.339261
    20  H    0.000031  -0.000000   0.000000  -0.000526   0.000166   0.425958
    21  H   -0.000025   0.000008  -0.000001   0.000166  -0.000522   0.425903
    22  C   -0.000044   0.000000   0.000001   0.253474   0.000413  -0.003079
    23  H   -0.000016   0.000001   0.000000  -0.028415   0.000039   0.002371
    24  H    0.000005  -0.000000  -0.000000  -0.021354  -0.000014  -0.000034
    25  H   -0.000009   0.000002  -0.000000  -0.033629   0.000009   0.000002
    26  C    0.000187  -0.000000   0.000009   0.220820   0.001644  -0.003982
    27  H    0.000008  -0.000000   0.000000  -0.024769  -0.000027  -0.000143
    28  H   -0.000050   0.000002  -0.000000  -0.028083   0.000085   0.001214
    29  H   -0.000033   0.000004  -0.000005  -0.029692   0.000068   0.000599
    30  C   -0.046885  -0.004579  -0.005710   0.000414   0.253920  -0.003059
    31  H   -0.008143  -0.002933   0.005511  -0.000014  -0.021426  -0.000034
    32  H    0.007210   0.000552  -0.000482   0.000039  -0.028505   0.002378
    33  H   -0.005698   0.001731  -0.000155   0.000008  -0.033586  -0.000016
    34  C   -0.030617   0.005213  -0.015941   0.001650   0.220705  -0.003983
    35  H    0.006585  -0.000161  -0.000029   0.000084  -0.028126   0.001195
    36  H   -0.006517  -0.000150   0.006975  -0.000028  -0.024696  -0.000145
    37  H   -0.017475   0.000393  -0.002856   0.000068  -0.029600   0.000607
    38  H   -0.000059  -0.000125   0.000013  -0.001353  -0.001318   0.300516
    39  Rh  -0.016501  -0.005249   0.009681   0.207048   0.207229   0.002001
    40  H    0.000026  -0.000001  -0.000000   0.000007  -0.000001   0.000000
              19         20         21         22         23         24
     1  C   -0.000242  -0.000035  -0.000027   0.013539  -0.000257   0.000861
     2  C   -0.000246  -0.000025  -0.000033  -0.000052   0.000005  -0.000003
     3  C   -0.000070  -0.000000  -0.000001   0.000067   0.000056  -0.000081
     4  C   -0.000070  -0.000000  -0.000000   0.000050   0.000004  -0.000006
     5  C    0.000018  -0.000000  -0.000000  -0.000037  -0.000002   0.000005
     6  H   -0.000001  -0.000000   0.000000  -0.000010   0.000001   0.000007
     7  H   -0.000001   0.000000  -0.000000   0.000001   0.000000  -0.000000
     8  O   -0.000000   0.000000   0.000000  -0.000000   0.000000   0.000000
     9  N    0.000622   0.000129   0.000131  -0.001612  -0.000164   0.000158
    10  C    0.000309  -0.000022   0.000032  -0.046424   0.007144  -0.008241
    11  H   -0.000033   0.000008  -0.000000  -0.004526   0.000539  -0.002929
    12  H    0.000020  -0.000001   0.000000  -0.005738  -0.000480   0.005515
    13  C    0.000306   0.000031  -0.000025  -0.000044  -0.000016   0.000005
    14  H   -0.000033  -0.000000   0.000008   0.000000   0.000001  -0.000000
    15  H    0.000019   0.000000  -0.000001   0.000001   0.000000  -0.000000
    16  N    0.000241  -0.000526   0.000166   0.253474  -0.028415  -0.021354
    17  N    0.000259   0.000166  -0.000522   0.000413   0.000039  -0.000014
    18  C    0.339261   0.425958   0.425903  -0.003079   0.002371  -0.000034
[...]
 -0.00007555,0.00007223,-0.00012312,-0.00003002,0.00005190,0.00003615,0
 .00003452,-0.00000739,-0.00000636,0.00004551,0.00001149,-0.00000805,-0
 .00012931,0.00003997,-0.00010605,0.00001033,0.00001089,-0.00000189,0.0
 0001131,-0.00006830,0.00001606,-0.00000164,0.00002143,-0.00000512,-0.0
 0003263,-0.00009227,0.00016501,-0.00001413,-0.00005437,-0.00006127,0.0
 0000700,0.00001562,-0.00000148,0.00000251,0.00002063,0.00000060,-0.000
 82444,0.00188513,-0.00108343,0.00070813,0.00021352,0.00058658,0.000081
 96,-0.00017330,0.00004159,-0.00002360,0.00033453,-0.00003345,0.0483065
 6,-0.29203785,0.01823678,-0.00000102,-0.00453365,-0.00013438,-0.053821
 35,0.31774619,0.00003467,0.00000934,0.00000786,0.00029141,-0.00012147,
 0.00003604,-0.00000201,-0.00002866,0.00000047,0.00008262,0.00006363,0.
 00002704,-0.00003637,-0.00002655,0.00000694,0.00000721,0.00000385,-0.0
 0000644,0.00001292,0.00000124,0.00000672,0.00008412,0.00000848,0.00000
 590,-0.00023727,-0.00018599,0.00001705,-0.00015675,-0.00002471,0.00007
 339,0.00000537,-0.00000433,-0.00001057,0.00002881,0.00001515,-0.000004
 27,-0.00334019,0.00218842,0.00083674,-0.00011589,-0.00021324,0.0002348
 2,0.00060334,-0.00062014,0.00057967,-0.00003808,0.00052772,0.00069714,
 -0.00624674,0.03759532,-0.01655595,-0.00004337,-0.00012291,-0.00013632
 ,0.00011811,0.00006902,0.00002595,-0.00000505,0.00000069,0.00005218,-0
 .00006793,0.00001255,-0.00002234,0.00010788,-0.00007084,0.00010667,-0.
 00001045,0.00000108,-0.00000010,-0.00001166,0.00004111,-0.00002370,-0.
 00000339,-0.00001520,-0.00001735,0.00004644,0.00020421,-0.00015121,0.0
 0001528,0.00006113,0.00009310,-0.00000737,0.00000341,-0.00000249,0.000
 01293,0.00000803,0.00000228,0.00114158,0.00342372,0.00186368,0.0001556
 4,-0.00123471,0.00003803,-0.00007387,-0.00027205,-0.00012269,0.0001808
 4,-0.00044011,0.00023564,-0.00262079,0.01353243,-0.05156719,0.00091174
 ,-0.01107713,0.00177466,0.00419191,-0.02739708,0.06149056,0.00010210,0
 .00009386,0.00006933,0.00002051,-0.00026069,-0.00002851,-0.00011124,0.
 00008493,-0.00001228,0.00010336,0.00019207,-0.00002319,-0.00002801,-0.
 00019816,0.00002717,-0.00000334,0.00000413,-0.00001788,-0.00001016,0.0
 0000545,0.00000854,0.00000934,0.00003529,-0.00000102,-0.00014403,-0.00
 011015,0.00017266,0.00001872,0.00001101,-0.00000753,-0.00000366,0.0000
 0894,0.00000285,-0.00000397,0.00000105,-0.00000470,0.00048189,0.000689
 05,0.00056152,0.00009006,0.00003680,-0.00016502,0.00007778,0.00007705,
 0.00007081,0.00000004,0.00007616,0.00007857,0.00123222,0.00193010,0.00
 221944,-0.00008907,0.00000592,-0.00011410,0.00007448,-0.00010922,-0.00
 001319,0.00001106,0.00003599,-0.00001002,0.00008694,0.00001031,0.00000
 984,-0.00000893,0.00000053,0.00001707,-0.00000232,-0.00000081,-0.00000
 208,0.00000125,-0.00000585,-0.00000924,-0.00000073,0.00000061,-0.00000
 768,-0.00001206,0.00000975,-0.00002174,0.00000468,-0.00000303,0.000012
 74,-0.00001327,0.00001325,-0.00000692,0.00002273,0.00002892,-0.0000081
 4,0.00047017,0.00048423,0.00029979,-0.00004685,-0.00014194,-0.00001713
 ,0.00049812,0.00002513,0.00007935,0.00043349,-0.00024511,-0.00007639,-
 0.17958211,-0.10206109,-0.09441737,-0.01689024,-0.01575878,-0.01461577
 ,0.00555915,0.00462798,0.00455513,0.18741472,-0.00004103,-0.00003047,0
 .00000208,-0.00002868,0.00020636,0.00031838,0.00002642,-0.00004249,-0.
 00000111,0.00001650,-0.00003093,0.00002517,-0.00001149,0.00005400,0.00
 000913,0.00000311,-0.00000193,-0.00000464,0.00002170,-0.00000257,-0.00
 002152,0.00002509,-0.00001243,0.00000497,-0.00026988,-0.00004219,0.000
 14009,-0.00003748,-0.00000445,0.00001529,0.00000498,-0.00000015,-0.000
 00412,0.00000695,0.00000330,0.00000346,-0.00008205,0.00042662,-0.00030
 158,0.00014339,-0.00012812,0.00003369,-0.00009746,-0.00039597,0.000032
 45,-0.00002900,0.00016448,-0.00000944,0.00883557,0.00543337,0.00625409
 ,-0.00001095,0.00000241,0.00003763,-0.00001154,0.00002724,-0.00001228,
 -0.00000396,-0.00000321,-0.00001283,-0.00002331,-0.00000088,0.00000991
 ,0.00003017,0.00000625,0.00001461,-0.00000020,0.00000010,0.00000114,-0
 .00000840,0.00001567,-0.00000421,-0.00000202,0.00000243,-0.00000671,0.
 00002303,0.00000137,-0.00000237,-0.00000029,0.00002069,-0.00000779,0.0
 0000575,-0.00000580,0.00000106,-0.00002965,-0.00001721,-0.00000284,-0.
 00020677,0.00023192,0.00112443,0.00010205,0.00044920,0.00040366,-0.000
 09435,-0.00017752,0.00006805,0.00007310,0.00050948,0.00035861,-0.10442
 844,-0.12964418,-0.07560520,0.00543705,0.00375467,0.00433855,-0.021065
 11,-0.01411146,-0.01467316,0.11062622,0.13450461,0.00005669,0.00016676
 ,-0.00003819,0.00063592,0.00038776,-0.00043998,-0.00005671,-0.00005427
 ,-0.00002441,0.00007061,-0.00000065,0.00003507,0.00019885,0.00003436,-
 0.00000322,-0.00000809,-0.00000474,0.00000370,-0.00000845,0.00000220,0
 .00000996,-0.00014461,-0.00001612,-0.00001159,-0.00013955,0.00020496,0
 .00000228,-0.00005187,0.00002286,0.00003395,0.00001642,-0.00000503,-0.
 00000380,0.00001509,-0.00000738,-0.00000605,-0.00149721,-0.00061913,0.
 00077745,-0.00014106,0.00000934,0.00019980,0.00023940,-0.00012366,-0.0
 0009981,0.00001818,0.00020505,0.00001079,-0.02482071,-0.01728091,-0.02
 160372,0.00003798,0.00002368,-0.00008538,0.00003265,0.00003809,-0.0000
 1192,0.00001262,0.00000146,0.00000943,0.00002052,-0.00001865,-0.000014
 57,0.00001652,0.00001494,0.00000435,0.00000245,0.00000127,0.00000208,-
 0.00000848,0.00000128,-0.00001261,-0.00000327,0.00000062,-0.00001334,0
 .00000058,-0.00001074,-0.00002549,0.00000321,-0.00000065,0.00000187,0.
 00000373,-0.00000292,0.00000310,-0.00000901,0.00000243,0.00001003,0.00
 197993,0.00299101,-0.00576858,0.00013212,-0.00007025,0.00004201,-0.000
 05593,0.00017623,0.00024119,-0.00129526,-0.00112668,-0.00102581,-0.086
 57053,-0.06906969,-0.11380998,0.00768034,0.00711673,0.00726410,0.00252
 297,0.00124770,0.00246740,0.10122813,0.07631950,0.13214686,-0.00039638
 ,-0.00021255,-0.00011353,-0.00037556,0.00020926,-0.00010723,0.00033054
 ,-0.00047392,0.00022736,0.00028095,0.00045261,0.00021443,-0.00086617,0
 .00006214,-0.00009373,0.00002028,0.00003799,0.00002795,0.00000997,-0.0
 0003471,0.00002501,0.00116595,0.00005477,0.00008337,-0.00357387,-0.000
 01358,-0.00199253,-0.00026961,-0.00013477,-0.00002605,-0.00006014,0.00
 005637,-0.00002130,0.00007260,0.00008160,0.00000936,-0.00027732,0.0001
 2585,-0.00001075,-0.00005552,-0.00005368,-0.00002205,0.00007420,-0.000
 08111,0.00000885,-0.00010417,0.00019111,0.00019471,-0.00010505,-0.0002
 1551,0.00021076,-0.09595444,-0.00037543,0.06418041,0.01877372,0.000114
 50,-0.01801281,-0.00963439,-0.00199787,0.01678895,-0.00953950,0.001908
 64,0.01657919,0.00018537,-0.00066961,0.00035992,-0.00016462,0.00008342
 ,0.00013664,-0.00018323,0.00013699,-0.00009315,0.00008386,-0.00009523,
 -0.00014821,0.00019867,0.00002995,-0.00027975,-0.00004408,0.00019821,0
 .00007262,0.00005182,0.00010212,0.00005905,-0.00007715,-0.00000653,-0.
 00011647,0.00028027,0.00071573,0.00027916,-0.00019786,-0.00014157,-0.0
 0008681,-0.00023042,-0.00007840,0.00015947,0.00009473,0.00002112,-0.00
 016369,0.00019823,-0.00003221,-0.00027969,0.00005418,-0.00010412,0.000
 05996,-0.00004175,-0.00019846,0.00007351,-0.00007910,0.00000502,-0.000
 11569,0.12145263,0.00007494,-0.00010475,-0.00005244,-0.00007970,-0.000
 10315,0.00005355,0.00011978,-0.00004268,0.00003184,-0.00011851,-0.0000
 4156,-0.00002913,0.00000121,0.00015799,-0.00000057,0.00001058,0.000000
 98,0.00001325,-0.00000994,0.00000026,-0.00001269,0.00000138,-0.0000263
 6,0.00000113,-0.00002049,0.00138261,-0.00001561,-0.00014413,0.00001808
 ,0.00008142,-0.00000111,0.00001312,0.00000594,0.00004090,0.00001292,0.
 00000171,0.00014604,0.00001778,-0.00008621,0.00000124,0.00001332,-0.00
 000655,-0.00004102,0.00001240,-0.00000079,-0.00062657,0.00091668,-0.00
 050423,0.00062058,0.00093496,0.00049645,-0.00040548,-0.03342214,0.0004
 1282,0.00009889,-0.00385788,-0.00008004,0.00977328,0.00065982,-0.02067
 477,-0.00978492,0.00057719,0.02082557,-0.00040227,-0.00034317,-0.00002
 692,0.00017210,-0.00021415,-0.00020725,0.00016923,0.00010889,-0.000026
 84,-0.00010314,-0.00009306,0.00006719,-0.00002029,-0.00009465,-0.00013
 506,0.00002232,0.00000070,0.00001382,0.00004643,0.00003576,-0.00000134
 ,0.00002811,-0.00000457,0.00006864,0.00045580,-0.00023229,-0.00007718,
 -0.00019842,0.00010701,0.00003676,-0.00024603,-0.00030456,0.00023346,0
 .00009291,-0.00010043,-0.00007006,0.00001766,-0.00009509,0.00013743,-0
 .00004592,0.00003813,-0.00000116,-0.00002219,0.00000011,-0.00001365,-0
 .00002880,-0.00000515,-0.00007139,0.00053068,0.03813596,0.00049094,-0.
 00015427,0.00002343,0.00048966,0.00016253,0.00001822,0.00010457,0.0001
 5622,-0.00017648,0.00009772,-0.00016051,-0.00017105,-0.00019758,0.0000
 0628,0.00001949,0.00006799,0.00000114,-0.00000952,0.00006137,0.0000025
 0,-0.00000855,0.00021642,0.00000680,0.00002377,0.00257385,0.00001246,0
 .00280713,0.00009092,0.00004585,0.00018326,-0.00002636,-0.00002764,-0.
 00001386,0.00002014,0.00002883,-0.00003726,0.00008942,-0.00004440,0.00
 017859,-0.00002712,0.00002686,-0.00001241,0.00001889,-0.00002792,-0.00
 003685,-0.00007565,-0.00014545,-0.00025759,-0.00009475,0.00016654,-0.0
 0027953,0.09008288,0.00055277,-0.21136190,0.01076148,0.00005499,-0.011
 48110,0.00020410,0.00030145,-0.00115050,0.00015215,-0.00032849,-0.0010
 9859,0.00004505,0.00036412,0.00008319,0.00010199,-0.00010585,-0.000097
 60,0.00013251,0.00001614,0.00002076,-0.00003910,-0.00008164,0.00008834
 ,-0.00011907,-0.00008237,-0.00017578,0.00003838,-0.00006839,0.00003335
 ,-0.00000073,0.00004754,-0.00002087,0.00008393,-0.00002636,0.00006177,
 -0.00010448,-0.00040562,0.00016776,0.00015660,-0.00001318,0.00000928,0
 .00019325,0.00008328,-0.00013739,-0.00003937,0.00005261,0.00010090,-0.
 00011771,0.00008302,-0.00017647,-0.00000014,-0.00004908,-0.00002076,0.
 00003745,0.00006895,0.00003196,0.00008316,0.00002795,0.00006185,-0.081
 10038,-0.00043501,0.23718918,-0.01702341,-0.01852792,0.00167069,-0.017
 38512,0.01825521,0.00171205,0.00059301,0.00393331,0.00035358,0.0009856
 0,-0.00366223,0.00036571,0.00256222,-0.00054239,0.00021553,0.00051467,
 -0.00004206,-0.00003212,0.00048852,0.00006005,-0.00004004,-0.00544298,
 -0.00025221,-0.00042136,-0.13800187,-0.00047351,0.00815038,-0.00561907
 ,-0.01035003,-0.00089262,0.00065607,-0.00005260,-0.00006475,-0.0026046
 6,-0.00012048,0.00079626,-0.00565553,0.01058322,-0.00086431,0.00063045
 ,0.00004492,-0.00008046,-0.00260272,0.00008492,0.00080193,-0.03833907,
 0.00530590,0.00159788,-0.03859827,-0.00525106,0.00155702,-0.01819131,0
 .00001200,0.01622373,-0.01500899,-0.00012540,0.01594630,0.00105620,0.0
 0047798,-0.00121116,0.00112659,-0.00046896,-0.00123785,0.00269562,0.00
 829269,0.00114569,0.00037510,0.00048110,0.00008440,-0.00081425,0.00194
 004,-0.00122120,0.00007101,0.00015444,0.00007419,-0.00009608,-0.000440
 70,-0.00111449,0.00112627,-0.00010256,0.00036381,0.00045540,0.00068073
 ,-0.00015839,0.00031866,-0.00109410,-0.00002159,0.00286211,-0.00823527
 ,0.00115179,-0.00082637,-0.00195987,-0.00122043,0.00031849,-0.00046394
 ,0.00010586,0.00006719,-0.00015711,0.00007066,-0.00014887,0.00053931,-
 0.00124347,0.00046104,-0.00067231,-0.00015466,0.00112549,0.00011780,0.
 00035915,0.00031432,0.00109848,-0.00001724,-0.02101291,-0.00012017,-0.
 02443006,0.30834834,-0.01649534,-0.00016825,0.00043355,0.01629987,0.00
 020730,-0.00041532,0.00056057,-0.00438197,-0.00012121,-0.00052211,-0.0
 0449435,0.00010644,0.00003130,0.00175892,-0.00000749,-0.00071689,0.000
 19814,-0.00026066,0.00068437,0.00022313,0.00026669,-0.00001663,-0.0002
 8741,0.00001450,-0.00038349,-0.04113612,0.00004893,-0.01447909,-0.0074
 8153,0.00380832,0.00056277,0.00015049,-0.00050521,0.00111224,0.0004358
 3,0.00023371,0.01439589,-0.00744339,-0.00386650,-0.00055217,0.00013549
 ,0.00051050,-0.00113233,0.00043160,-0.00021633,-0.00571560,-0.04274063
 ,-0.00264625,0.00591693,-0.04315659,0.00260882,0.00004438,-0.02529983,
 0.00004702,-0.00007700,-0.00148912,0.00009109,0.00601340,0.00245457,-0
 .00205585,-0.00605938,0.00239287,0.00205511,0.00400057,-0.00866398,0.0
 0428569,-0.00073544,0.00025318,-0.00059450,-0.00058740,0.00128606,-0.0
 0074378,-0.00073255,-0.00006008,-0.00085115,-0.00071433,-0.00739956,-0
 .01003575,0.00027058,0.00051382,0.00123037,-0.00045967,-0.00073511,0.0
 0045471,0.00020706,-0.00116549,0.00049466,-0.00396131,-0.00876886,-0.0
 0424816,0.00058305,0.00128758,0.00072655,0.00074186,0.00026558,0.00058
 195,0.00073545,-0.00005633,0.00084681,0.00078396,-0.00738742,0.0100352
 9,0.00046843,-0.00073419,-0.00046082,-0.00027106,0.00051782,-0.0012224
 6,-0.00018970,-0.00115636,-0.00049539,-0.00009864,-0.00406073,-0.00010
 081,0.00050702,0.20575592,0.00003977,0.00221216,0.00385589,0.00008959,
 -0.00218600,0.00380838,-0.00008398,-0.00098428,0.00239175,-0.00009999,
 0.00096243,0.00230790,-0.00048691,0.00005386,-0.00055629,-0.00017567,0
 .00003665,0.00006571,-0.00016123,-0.00003966,0.00004639,0.00079012,0.0
 0004551,-0.00006677,0.00993887,0.00006136,-0.02009759,0.00112585,0.003
 92445,-0.00027956,-0.00052590,0.00025940,0.00018017,0.00145968,0.00019
 701,0.00014307,0.00117075,-0.00403526,-0.00021392,-0.00050497,-0.00025
 777,0.00018665,0.00145849,-0.00018856,0.00014102,0.00203533,0.00040973
 ,-0.03364568,0.00204116,-0.00041504,-0.03376781,0.00986950,0.00002468,
 0.02567557,-0.00631114,0.00001141,-0.01250103,-0.00054463,-0.00007073,
 -0.00469686,-0.00053927,0.00008000,-0.00467855,0.00157240,0.00704805,-
 0.00003264,-0.00004267,-0.00014791,0.00010890,-0.00116677,0.00144411,-
 0.00017373,0.00025429,0.00065579,0.00014305,-0.00274678,-0.01362939,-0
 .00257853,-0.00014035,-0.00176884,-0.00208500,-0.00039580,-0.00117543,
 -0.00024462,0.00009962,-0.00114043,-0.00033509,0.00166384,-0.00704168,
 -0.00004842,-0.00115605,-0.00145022,-0.00016558,-0.00004878,0.00013790
 ,0.00011121,0.00025571,-0.00065380,0.00014804,-0.00293010,0.01361483,-
 0.00262341,-0.00040868,0.00117134,-0.00023927,-0.00016227,0.00176323,-
 0.00208769,0.00008826,0.00112722,-0.00032975,0.00303887,0.00004920,-0.
 01437512,-0.01833730,-0.00002002,0.09655222,-0.00117568,-0.00089208,-0
 .00005722,0.00001937,-0.00219880,-0.00038823,0.00403109,-0.00182415,0.
 00031633,-0.00539916,0.00292631,-0.00066903,-0.02968108,-0.04700138,-0
 .00215490,0.00063439,0.00203720,-0.00051352,0.00010359,0.00011043,0.00
 008052,-0.10858305,-0.13815488,-0.00837777,0.00057078,0.00117543,0.000
 19877,0.00007675,0.00026825,0.00006847,0.00008831,-0.00004392,-0.00001
 092,0.00000786,0.00000539,-0.00002050,-0.00028117,0.00020589,0.0001689
 6,0.00006219,0.00003772,-0.00002737,0.00002838,0.00004086,-0.00000823,
 0.00014956,-0.00015553,0.00005014,-0.00006712,0.00000137,-0.00003967,0
 .00010062,-0.00000718,-0.00004534,-0.00002232,-0.00000352,0.00004119,0
 .00002851,-0.00000005,-0.00000125,0.00002808,0.00000169,-0.00000127,-0
 .00000278,0.00007637,-0.00012263,0.00003802,-0.00001340,0.00000990,-0.
 00000943,-0.00002832,0.00000291,-0.00000671,-0.00000067,-0.00000090,0.
 00002545,0.00004434,0.00009446,-0.00001165,-0.00003120,-0.00000610,0.0
 0001912,-0.00000045,-0.00001485,-0.00001289,-0.00000496,0.00002205,-0.
 00006117,-0.00002408,-0.00003154,0.00000022,0.00002635,0.00000318,0.00
 000437,-0.00000701,-0.00000358,-0.00000134,-0.00000066,-0.00000119,0.0
 0000039,-0.00002122,0.00004123,0.00000687,-0.00000395,-0.00000217,-0.0
 0000559,0.00002888,-0.00000341,0.00000195,-0.00000249,0.00001877,-0.00
 008475,-0.00000498,-0.00002234,0.00021913,-0.00001960,-0.00002285,0.13
 916089,-0.00049843,-0.00099969,-0.00004322,-0.00089366,0.00004316,-0.0
 0011392,0.00560935,0.00324431,0.00035509,0.00234385,0.00249373,0.00018
 788,0.00094759,0.00228908,-0.00002240,-0.00057475,-0.00076317,0.000281
 48,0.00016140,0.00033141,0.00005157,-0.19130378,-0.46272027,-0.0156284
 7,0.00001176,-0.00004439,0.00023680,0.00009129,0.00009032,0.00001226,0
 .00000540,0.00000943,-0.00001310,0.00002019,-0.00005086,-0.00001463,0.
 00003391,-0.00000791,0.00001742,0.00000269,-0.00001170,-0.00001411,-0.
 00000097,0.00000518,-0.00000746,0.00001393,-0.00007210,0.00001052,0.00
 001632,0.00004059,0.00001308,0.00010037,0.00000627,-0.00006510,-0.0000
 1393,0.00000150,0.00003976,0.00002449,-0.00000108,0.00000277,0.0000257
 7,-0.00000040,0.00000192,-0.00002572,0.00001940,-0.00004319,0.00000746
 ,0.00000194,0.00000280,0.00000229,-0.00002576,0.00000184,-0.00000042,0
 .00000358,-0.00000253,0.00000080,0.00001595,0.00005060,-0.00000200,-0.
 00002972,-0.00000690,0.00000017,0.00000302,-0.00000124,0.00000350,0.00
 000761,0.00000903,-0.00002242,-0.00002427,-0.00004304,-0.00000115,0.00
 002016,0.00000192,0.00000991,-0.00000125,0.00000229,-0.00000111,-0.000
 00159,-0.00000064,0.00000537,-0.00001171,0.00004830,0.00000552,-0.0000
 0342,-0.00000073,-0.00000714,0.00002222,-0.00000616,-0.00000141,-0.000
 00070,0.00001004,-0.00010019,0.00000172,-0.00001183,0.00054574,-0.0000
 0097,-0.00008529,0.18345801,0.45612040,-0.00004699,-0.00015139,-0.0006
 5854,-0.00007306,-0.00031856,0.00180496,0.00052238,-0.00007184,-0.0007
 6511,-0.00086044,0.00024342,0.00342448,-0.00227479,-0.00391976,-0.0034
 5260,-0.00048143,0.00035151,-0.00001205,0.00005796,0.00005330,-0.00059
 122,-0.00836360,-0.01120537,-0.00683899,0.00006457,0.00021325,-0.00000
 475,-0.00001617,0.00003975,0.00010087,0.00001208,-0.00002122,-0.000006
 66,-0.00001104,-0.00000241,0.00000541,0.00003399,0.00000960,-0.0003796
 9,-0.00007145,-0.00007406,-0.00000728,0.00001627,0.00003355,0.00001302
 ,0.00001380,-0.00000720,-0.00000657,-0.00000362,0.00004318,-0.00003485
 ,0.00001229,-0.00000043,-0.00000230,-0.00000493,0.00000047,0.00000691,
 0.00000353,-0.00000008,0.00000380,0.00000308,0.00000071,0.00000084,0.0
 0000557,0.00000382,-0.00000799,0.00000474,0.00000022,-0.00000040,-0.00
 000250,-0.00000198,0.00000282,-0.00000417,-0.00000112,-0.00000475,0.00
 000879,0.00000551,0.00003077,0.00000158,-0.00000861,0.00000038,-0.0000
 0076,-0.00000123,-0.00000626,0.00000226,0.00000602,0.00000036,-0.00000
 113,-0.00000238,-0.00000861,-0.00000017,0.00000240,0.00000135,0.000003
 02,-0.00000062,0.00000375,-0.00000117,-0.00000073,0.00000148,0.0000150
 2,0.00000543,0.00002967,0.00000041,-0.00000055,-0.00000336,-0.00000056
 ,0.00000648,-0.00000358,-0.00000444,-0.00000130,0.00000093,-0.00000569
 ,-0.00000130,-0.00000304,0.00001688,-0.00001305,-0.00004303,0.01142989
 ,0.01478657,0.00740984\\0.00001500,0.00000293,-0.00000051,0.00001707,-
 0.00000811,-0.00000061,0.00000184,-0.00000384,0.00000154,-0.00000359,0
 .00000560,0.00000292,-0.00001309,-0.00000271,-0.00000092,-0.00000092,-
 0.00000067,-0.00000067,-0.00000097,-0.00000118,0.00000029,0.00001098,0
 .00000273,-0.00000148,-0.00002019,0.00000131,-0.00000469,0.00000311,0.
 00000440,-0.00000177,0.00000154,-0.00000080,0.00000192,-0.00000052,-0.
 00000210,0.00000021,-0.00000062,-0.00000368,-0.00000141,-0.00000074,0.
 00000215,0.00000102,-0.00000257,0.00000057,-0.00000134,-0.00000107,-0.
 00000440,0.00000628,-0.00000445,0.00000424,0.00000036,-0.00000927,0.00
 000245,-0.00000397,0.00000389,0.00000032,0.00000278,0.00000146,-0.0000
 0033,0.00000046,0.00000113,0.00000259,0.00000020,0.00000002,-0.0000001
 8,-0.00000159,0.00000149,0.00000185,0.00000033,0.00000098,-0.00000058,
 0.,0.00000099,0.00000091,0.00000146,-0.00000094,0.00000091,-0.00000291
 ,0.00000051,-0.00000088,0.00000092,0.00000156,0.00000002,0.00000036,0.
 00000023,0.00000096,-0.00000026,-0.00000041,-0.00000015,0.00000032,-0.
 00000143,0.00000153,-0.00000081,0.00000011,0.00000011,-0.00000112,-0.0
 0000050,0.00000015,0.00000050,-0.00000130,0.00000040,-0.00000146,-0.00
 000011,0.00000027,-0.00000062,-0.00000183,0.00000073,0.,-0.00000122,-0
 .00000148,-0.00000089,0.00000402,-0.00000216,-0.00000168,0.00000511,0.
 00000256,0.00000375,-0.00000529,-0.00000643,0.00000309\\\@
 The archive entry for this job was punched.


 A MAN BEGINS CUTTING HIS WISDOM TEETH THE 1ST
 TIME HE BITES OFF MORE THAN HE CAN CHEW.
 Job cpu time:       1 days 20 hours 14 minutes 21.3 seconds.
 Elapsed time:       0 days  7 hours 44 minutes 38.2 seconds.
 File lengths (MBytes):  RWF=   2020 Int=      0 D2E=      0 Chk=     72 Scr=      1
 Normal termination of Gaussian 16 at Fri Mar 29 13:37:07 2024.
