 Entering Gaussian System, Link 0=/cm/shared/apps//g16/g16
 Input=QST2_HZPtMeH_sigma_HZPtMeH.gjf
 Output=QST2_HZPtMeH_sigma_HZPtMeH.log
 Initial command:
 /cm/shared/apps//g16/l1.exe "/local/mvanvleet/pbs.14687.josephine/Gau-3848584.inp" -scrdir="/local/mvanvleet/pbs.14687.josephine/"
 Entering Link 1 = /cm/shared/apps//g16/l1.exe PID=   3848587.
  
 Copyright (c) 1988-2019, Gaussian, Inc.  All Rights Reserved.
  
 This is part of the Gaussian(R) 16 program.  It is based on
 the Gaussian(R) 09 system (copyright 2009, Gaussian, Inc.),
 the Gaussian(R) 03 system (copyright 2003, Gaussian, Inc.),
 the Gaussian(R) 98 system (copyright 1998, Gaussian, Inc.),
 the Gaussian(R) 94 system (copyright 1995, Gaussian, Inc.),
 the Gaussian 92(TM) system (copyright 1992, Gaussian, Inc.),
 the Gaussian 90(TM) system (copyright 1990, Gaussian, Inc.),
 the Gaussian 88(TM) system (copyright 1988, Gaussian, Inc.),
 the Gaussian 86(TM) system (copyright 1986, Carnegie Mellon
 University), and the Gaussian 82(TM) system (copyright 1983,
 Carnegie Mellon University). Gaussian is a federally registered
 trademark of Gaussian, Inc.
  
 This software contains proprietary and confidential information,
 including trade secrets, belonging to Gaussian, Inc.
  
 This software is provided under written license and may be
 used, copied, transmitted, or stored only in accord with that
 written license.
  
 The following legend is applicable only to US Government
 contracts under FAR:
  
                    RESTRICTED RIGHTS LEGEND
  
 Use, reproduction and disclosure by the US Government is
 subject to restrictions as set forth in subparagraphs (a)
 and (c) of the Commercial Computer Software - Restricted
 Rights clause in FAR 52.227-19.
  
 Gaussian, Inc.
 340 Quinnipiac St., Bldg. 40, Wallingford CT 06492
  
  
 ---------------------------------------------------------------
 Warning -- This program may not be used in any manner that
 competes with the business of Gaussian, Inc. or will provide
 assistance to any competitor of Gaussian, Inc.  The licensee
 of this program is prohibited from giving any competitor of
 Gaussian, Inc. access to this program.  By using this program,
 the user acknowledges that Gaussian, Inc. is engaged in the
 business of creating and licensing software in the field of
 computational chemistry and represents and warrants to the
 licensee that it is not a competitor of Gaussian, Inc. and that
 it will not use this program in any manner prohibited above.
 ---------------------------------------------------------------
  

 Cite this work as:
 Gaussian 16, Revision C.01,
 M. J. Frisch, G. W. Trucks, H. B. Schlegel, G. E. Scuseria, 
 M. A. Robb, J. R. Cheeseman, G. Scalmani, V. Barone, 
 G. A. Petersson, H. Nakatsuji, X. Li, M. Caricato, A. V. Marenich, 
 J. Bloino, B. G. Janesko, R. Gomperts, B. Mennucci, H. P. Hratchian, 
 J. V. Ortiz, A. F. Izmaylov, J. L. Sonnenberg, D. Williams-Young, 
 F. Ding, F. Lipparini, F. Egidi, J. Goings, B. Peng, A. Petrone, 
 T. Henderson, D. Ranasinghe, V. G. Zakrzewski, J. Gao, N. Rega, 
 G. Zheng, W. Liang, M. Hada, M. Ehara, K. Toyota, R. Fukuda, 
 J. Hasegawa, M. Ishida, T. Nakajima, Y. Honda, O. Kitao, H. Nakai, 
 T. Vreven, K. Throssell, J. A. Montgomery, Jr., J. E. Peralta, 
 F. Ogliaro, M. J. Bearpark, J. J. Heyd, E. N. Brothers, K. N. Kudin, 
 V. N. Staroverov, T. A. Keith, R. Kobayashi, J. Normand, 
 K. Raghavachari, A. P. Rendell, J. C. Burant, S. S. Iyengar, 
 J. Tomasi, M. Cossi, J. M. Millam, M. Klene, C. Adamo, R. Cammi, 
 J. W. Ochterski, R. L. Martin, K. Morokuma, O. Farkas, 
 J. B. Foresman, and D. J. Fox, Gaussian, Inc., Wallingford CT, 2019.
 
 ******************************************
 Gaussian 16:  ES64L-G16RevC.01  3-Jul-2019
                 5-Apr-2024 
 ******************************************
 %nprocshared=48
 Will use up to   48 processors via shared memory.
 %chk=QST2_HZPtMeH_sigma_HZPtMeH.chk
 %mem=64GB
 ---------------------------------------------------------------
 # wb97xd def2TZVPP SCRF=(solvent=dichloromethane) opt=qst2 freq
 ---------------------------------------------------------------
 1/5=1,18=20,26=3,27=202,38=1/1,3;
 2/9=110,12=2,17=6,18=5,40=1/2;
 3/5=44,7=202,11=2,25=1,30=1,70=2201,71=1,72=9,74=-58/1,2,3;
 4//1;
 5/5=2,38=5,53=9/2;
 6/7=2,8=2,9=2,10=2,28=1/1;
 7//1,2,3,16;
 1/5=1,18=20,26=3,27=202/3(2);
 2/9=110/2;
 99//99;
 2/9=110/2;
 3/5=44,7=202,11=2,25=1,30=1,70=2205,71=1,72=9,74=-58/1,2,3;
 4/5=5,16=3,69=1/1;
 5/5=2,38=5,53=9/2;
 7//1,2,3,16;
 1/5=1,18=20,26=3,27=202/3(-5);
 2/9=110/2;
 6/7=2,8=2,9=2,10=2,19=2,28=1/1;
 99/9=1/99;
 ------------------------
 ts_xyz/HZPtMeH_sigma.xyz
 ------------------------
 Symbolic Z-matrix:
 Charge =  2 Multiplicity = 1
 Pt                    0.88328   0.00344  -0.09932 
 C                    -1.68762  -1.18751  -0.1224 
 C                    -1.69874   1.166    -0.12151 
 C                    -3.05012  -1.23012  -0.00424 
 C                    -3.06454   1.19499  -0.00466 
 C                    -3.75222  -0.02141   0.0671 
 H                    -3.58237  -2.16863   0.01402 
 H                    -3.59187   2.13757   0.01206 
 O                    -5.07031  -0.09739   0.1814 
 N                    -1.0534   -0.00601  -0.14384 
 C                    -0.78642  -2.35632  -0.38558 
 H                    -0.78759  -2.52054  -1.46326 
 H                    -1.1422   -3.26839   0.09144 
 C                    -0.81144   2.34662  -0.3803 
 H                    -0.81848   2.51705  -1.45701 
 H                    -1.17627   3.25183   0.10307 
 N                     0.62826  -2.07932   0.03118 
 N                     0.60779   2.08345   0.03054 
 C                     3.27528   0.01507   0.30568 
 H                     2.80238   0.00865   1.28856 
 H                     3.88467  -0.8772    0.204 
 H                     3.87463   0.9149    0.21075 
 C                     1.5393   -2.88121  -0.81843 
 H                     2.55685  -2.76839  -0.45648 
 H                     1.26087  -3.93445  -0.76818 
 H                     1.47541  -2.53232  -1.84558 
 C                     0.79637  -2.48292   1.45287 
 H                     0.62782  -3.55625   1.54636 
 H                     1.80562  -2.25134   1.78037 
 H                     0.08114  -1.94925   2.07356 
 C                     1.50835   2.89161  -0.82446 
 H                     1.22278   3.94288  -0.77318 
 H                     2.52853   2.78621  -0.4677 
 H                     1.44156   2.54175  -1.8511 
 C                     0.77939   2.4915    1.45044 
 H                     1.79306   2.27178   1.77232 
 H                     0.59957   3.5631    1.54293 
 H                     0.07407   1.95074   2.07624 
 H                     2.65309   0.01524  -0.65229 
 H                    -5.48048   0.77146   0.20266 
 
 ------------------
 ts_xyz/HZPtMeH.xyz
 ------------------
 Symbolic Z-matrix:
 Charge =  2 Multiplicity = 1
 Pt                   -0.94784   0.00374  -0.08389 
 C                     1.72236   1.16598  -0.17844 
 C                     1.71175  -1.18596  -0.1876 
 C                     3.08619   1.20187  -0.02624 
 C                     3.07214  -1.23639  -0.03434 
 C                     3.76733  -0.02108   0.04954 
 H                     3.61907   2.14001   0.02858 
 H                     3.6099   -2.17068   0.01635 
 O                     5.08288  -0.0962    0.20133 
 N                     1.09656  -0.00524  -0.24769 
 C                     0.8026    2.33959  -0.3984 
 H                     0.76786   2.52029  -1.47272 
 H                     1.16644   3.24678   0.08127 
 C                     0.77687  -2.34539  -0.41757 
 H                     0.72662  -2.50808  -1.49428 
 H                     1.13514  -3.26418   0.04363 
 N                    -0.6177    2.08101   0.05397 
 N                    -0.63429  -2.07636   0.05555 
 C                    -2.98711   0.00625   0.19551 
 H                    -3.14988  -0.06578   1.27505 
 H                    -3.45599   0.91921  -0.16554 
 H                    -3.47614  -0.83683  -0.28833 
 C                    -1.51767   2.96263  -0.72801 
 H                    -2.53033   2.86517  -0.35217 
 H                    -1.19309   3.99699  -0.61589 
 H                    -1.48461   2.67822  -1.77512 
 C                    -0.74361   2.42019   1.50158 
 H                    -0.51549   3.4756    1.64491 
 H                    -1.75988   2.22083   1.82916 
 H                    -0.04051   1.82229   2.08037 
 C                    -1.55359  -2.95447  -0.70725 
 H                    -1.23469  -3.99083  -0.59601 
 H                    -2.55901  -2.84616  -0.31467 
 H                    -1.53562  -2.67573  -1.75619 
 C                    -0.73758  -2.41019   1.50603 
 H                    -1.74838  -2.21155   1.84969 
 H                    -0.50569  -3.46457   1.65004 
 H                    -0.02647  -1.80844   2.07095 
 H                    -1.33983   0.00777  -1.53281 
 H                     5.48878   0.77369   0.2453 
 
 Iteration  1 RMS(Cart)=  0.07502675 RMS(Int)=  0.23926616
 Iteration  2 RMS(Cart)=  0.04393603 RMS(Int)=  0.22022498
 Iteration  3 RMS(Cart)=  0.03264063 RMS(Int)=  0.20750104
 Iteration  4 RMS(Cart)=  0.02815639 RMS(Int)=  0.19994766
 Iteration  5 RMS(Cart)=  0.02005234 RMS(Int)=  0.19488097
 Iteration  6 RMS(Cart)=  0.02005730 RMS(Int)=  0.19123388
 Iteration  7 RMS(Cart)=  0.02011452 RMS(Int)=  0.18911787
 Iteration  8 RMS(Cart)=  0.01658085 RMS(Int)=  0.18856948
 Iteration  9 RMS(Cart)=  0.00133350 RMS(Int)=  0.18856618
 Iteration 10 RMS(Cart)=  0.00000630 RMS(Int)=  0.18856672
 Iteration 11 RMS(Cart)=  0.00000039 RMS(Int)=  0.18856691
 Iteration  1 RMS(Cart)=  0.00000013 RMS(Int)=  0.18856697
 Iteration  1 RMS(Cart)=  0.00000005 RMS(Int)=  0.18856699
 Iteration  1 RMS(Cart)=  0.00000002 RMS(Int)=  0.18856700
 Iteration  1 RMS(Cart)=  0.00000001 RMS(Int)=  0.18856700
 Iteration  1 RMS(Cart)=  0.00000000 RMS(Int)=  0.18856701
 Iteration  1 RMS(Cart)=  0.00000000 RMS(Int)=  0.18856701
 Iteration  1 RMS(Cart)=  0.00000000 RMS(Int)=  0.18856701
 Iteration  1 RMS(Cart)=  0.00000000 RMS(Int)=  0.18856701
 Iteration  1 RMS(Cart)=  0.00000000 RMS(Int)=  0.18856701
   Var     Old X     New X   DQ Goal   DQ Act.  Rel. Err.   Overall
     1    3.6608    3.7669    0.1075    0.1061    0.9869
     2    3.9729    3.9761    0.0052    0.0032
     3    3.9726    3.9792    0.0057    0.0066
     4    4.5846    4.2107   -0.3475   -0.3739    1.0761
     5    3.5040    3.1415   -0.3337   -0.3625    1.0862
     6    2.5857    2.5897    0.0042    0.0041
     7    2.5344    2.5242   -0.0108   -0.0102    0.9429
     8    2.8330    2.8448    0.0076    0.0117
     9    2.5910    2.5900   -0.0011   -0.0010
    10    2.5287    2.5223   -0.0051   -0.0064
    11    2.8334    2.8387    0.0072    0.0053
    12    2.6450    2.6475    0.0021    0.0025
    13    2.0392    2.0403    0.0012    0.0012
    14    2.6441    2.6479    0.0032    0.0038
    15    2.0413    2.0403   -0.0009   -0.0009
    16    2.5043    2.5054    0.0011    0.0011
    17    1.8161    1.8160   -0.0001   -0.0001
    18    2.0600    2.0599   -0.0001   -0.0001
    19    2.0580    2.0577   -0.0002   -0.0002
    20    2.8357    2.8470    0.0116    0.0113    0.9771
    21    2.0601    2.0600   -0.0000   -0.0000
    22    2.0581    2.0577   -0.0004   -0.0004
    23    2.8360    2.8481    0.0111    0.0121    1.0894
    24    2.7996    2.8009    0.0012    0.0012
    25    2.8108    2.8153    0.0045    0.0045
    26    2.7998    2.8008    0.0009    0.0009
    27    2.8106    2.8150    0.0044    0.0044
    28    2.0612    2.0644    0.0032    0.0032
    29    2.0509    2.0534    0.0025    0.0025
    30    2.0510    2.0536    0.0027    0.0027
    31    2.1586    3.3947    1.1766    1.2361    1.0505
    32    2.0520    2.0508   -0.0013   -0.0013
    33    2.0609    2.0602   -0.0007   -0.0007
    34    2.0535    2.0524   -0.0011   -0.0011
    35    2.0607    2.0596   -0.0012   -0.0012
    36    2.0523    2.0525    0.0002    0.0002
    37    2.0542    2.0564    0.0023    0.0023
    38    2.0609    2.0603   -0.0005   -0.0005
    39    2.0520    2.0510   -0.0011   -0.0011
    40    2.0535    2.0524   -0.0011   -0.0011
    41    2.0523    2.0522   -0.0001   -0.0001
    42    2.0608    2.0595   -0.0013   -0.0013
    43    2.0541    2.0564    0.0023    0.0023
    44    1.4458    1.4378   -0.0111   -0.0080    0.7262
    45    1.4457    1.4330   -0.0114   -0.0127    1.1204
    46    3.1308    3.1605    0.0046    0.0297
    47    3.2870    3.2245   -0.0442   -0.0624    1.4112
    48    2.8158    2.3051   -0.5304   -0.5107    0.9629
    49    2.8596    2.8354   -0.0260   -0.0242    0.9296
    50    1.6850    1.7228    0.0157    0.0377    2.4053
    51    1.7119    1.6925   -0.0197   -0.0193    0.9786
    52    1.6852    1.6773    0.0128   -0.0079   -0.6152
    53    1.7084    1.7363   -0.0161    0.0278   -1.7342
    54    0.4706    0.9177    0.4861    0.4472    0.9200
    55    2.0941    2.0916   -0.0019   -0.0025
    56    2.2012    2.2095    0.0079    0.0083
    57    1.9820    1.9773   -0.0047   -0.0048
    58    2.0948    2.0915   -0.0025   -0.0033
    59    2.1988    2.2108    0.0107    0.0120    1.1150
    60    1.9838    1.9766   -0.0071   -0.0072
    61    2.0681    2.0614   -0.0063   -0.0067
    62    2.1173    2.1167   -0.0008   -0.0006
    63    2.0976    2.1050    0.0072    0.0074
    64    2.0664    2.0616   -0.0049   -0.0048
    65    2.1014    2.1165    0.0151    0.0151    0.9978
    66    2.1152    2.1050   -0.0102   -0.0102    1.0020
    67    2.0963    2.1025    0.0059    0.0063
    68    2.0418    2.0899    0.0482    0.0480    0.9966
    69    2.1449    2.0907   -0.0540   -0.0542    1.0030
    70    1.9547    1.9538   -0.0009   -0.0009
    71    2.0677    2.0570   -0.0088   -0.0106
    72    2.0686    2.0612   -0.0097   -0.0074
    73    2.1451    2.1572    0.0105    0.0121    1.1555
    74    1.8654    1.8659    0.0011    0.0005
    75    1.9602    1.9607    0.0005    0.0005
    76    1.9542    1.9671    0.0120    0.0129    1.0750
    77    1.8823    1.8826    0.0001    0.0003
    78    1.8790    1.8734   -0.0054   -0.0057
    79    1.9187    1.9098   -0.0088   -0.0089
    80    1.8648    1.8671    0.0023    0.0024
    81    1.9602    1.9607    0.0005    0.0005
    82    1.9544    1.9649    0.0108    0.0105    0.9706
    83    1.8820    1.8828    0.0007    0.0007
    84    1.8796    1.8734   -0.0060   -0.0061
    85    1.9188    1.9105   -0.0087   -0.0083
    86    1.8546    1.8615    0.0083    0.0069
    87    2.0109    2.0285    0.0169    0.0176    1.0433
    88    1.8907    1.8698   -0.0210   -0.0209    0.9931
    89    1.8971    1.8939   -0.0053   -0.0032
    90    1.8986    1.9019    0.0045    0.0034
    91    1.9090    1.9050   -0.0034   -0.0040
    92    1.8551    1.8622    0.0068    0.0071
    93    2.0091    2.0279    0.0188    0.0188    1.0016
    94    1.8916    1.8703   -0.0212   -0.0213    1.0053
    95    1.8978    1.8919   -0.0047   -0.0059
    96    1.8990    1.9037    0.0035    0.0047
    97    1.9083    1.9049   -0.0034   -0.0034
    98    1.2901    1.5366    0.2829    0.2465    0.8714
    99    2.1342    2.0804   -0.0852   -0.0538    0.6315
   100    2.1339    2.0702   -0.0845   -0.0638    0.7545
   101    1.8997    1.8460   -0.0024   -0.0538
   102    1.8998    1.9522   -0.0012    0.0524
   103    2.1171    2.3598    0.2049    0.2427    1.1847
   104    1.9427    1.9235   -0.0289   -0.0192    0.6637
   105    1.8002    1.6727   -0.0864   -0.1275    1.4755
   106    1.8001    1.6749   -0.1203   -0.1253    1.0411
   107    1.9059    1.9068    0.0009    0.0009
   108    1.9170    1.9117   -0.0053   -0.0053
   109    1.9094    1.9106    0.0012    0.0012
   110    1.9010    1.9028    0.0018    0.0018
   111    1.9143    1.9156    0.0013    0.0013
   112    1.9162    1.9163    0.0001    0.0001
   113    1.9087    1.9080   -0.0007   -0.0007
   114    1.9128    1.9099   -0.0030   -0.0030
   115    1.9158    1.9147   -0.0011   -0.0010
   116    1.9046    1.9080    0.0034    0.0034
   117    1.9098    1.9067   -0.0031   -0.0031
   118    1.9120    1.9164    0.0044    0.0044
   119    1.9172    1.9117   -0.0055   -0.0055
   120    1.9055    1.9060    0.0005    0.0005
   121    1.9095    1.9108    0.0014    0.0014
   122    1.9009    1.9036    0.0027    0.0027
   123    1.9163    1.9159   -0.0004   -0.0004
   124    1.9144    1.9158    0.0013    0.0013
   125    1.9126    1.9104   -0.0021   -0.0021
   126    1.9087    1.9081   -0.0006   -0.0006
   127    1.9159    1.9143   -0.0016   -0.0016
   128    1.9045    1.9076    0.0031    0.0031
   129    1.9117    1.9160    0.0043    0.0043
   130    1.9103    1.9072   -0.0031   -0.0031
   131   -0.0349   -0.0033    0.0286    0.0315    1.1008
   132    3.0446    3.0100   -0.0370   -0.0346    0.9366
   133   -3.0457   -3.0017    0.0420    0.0440    1.0500
   134    0.0337    0.0116   -0.0236   -0.0221    0.9343
   135    1.6068    1.6117    0.0316    0.0049    0.1563
   136   -1.5970   -1.6582   -0.0340   -0.0612    1.7987
   137    0.2821    0.2638   -0.0161   -0.0182    1.1309
   138    2.3839    2.3778   -0.0057   -0.0061
   139   -1.7553   -1.7707   -0.0151   -0.0154    1.0163
   140    0.7654    0.7521   -0.0115   -0.0132    1.1472
   141    2.8672    2.8661   -0.0011   -0.0011
   142   -1.2720   -1.2824   -0.0105   -0.0104    0.9841
   143   -3.0049   -2.9607    0.0281    0.0442    1.5720
   144   -0.9031   -0.8467    0.0385    0.0564    1.4637
   145    1.2409    1.2879    0.0291    0.0471    1.6166
   146   -2.5312   -2.0341    0.5191    0.4971    0.9575
   147   -0.4294    0.0799    0.5295    0.5092    0.9617
   148    1.7146    2.2145    0.5201    0.4999    0.9612
   149   -0.2777   -0.2721    0.0064    0.0056
   150   -2.3797   -2.3836   -0.0048   -0.0039
   151    1.7609    1.7651    0.0034    0.0042
   152   -0.7610   -0.7608    0.0018    0.0003
   153   -2.8630   -2.8723   -0.0094   -0.0093
   154    1.2776    1.2764   -0.0012   -0.0012
   155    3.0093    2.9483   -0.0381   -0.0609    1.6003
   156    0.9073    0.8368   -0.0493   -0.0705    1.4300
   157   -1.2353   -1.2977   -0.0411   -0.0624    1.5186
   158    2.5354    2.0231   -0.5291   -0.5123    0.9683
   159    0.4335   -0.0884   -0.5403   -0.5219    0.9659
   160   -1.7091   -2.2229   -0.5321   -0.5138    0.9656
   161   -1.4840   -1.4649   -0.0344    0.0190   -0.5540
   162    0.3040    0.4025    0.1078    0.0985    0.9133
   163    3.0111    2.8298   -0.1783   -0.1813    1.0167
   164    1.4921    1.5120   -0.0385    0.0199   -0.5165
   165   -3.0031   -2.9037    0.1037    0.0993    0.9578
   166   -0.2960   -0.4765   -0.1824   -0.1804    0.9890
   167   -3.1415   -3.0733    3.1083    0.0682    0.0219
   168   -1.3535   -1.2058    0.1089    0.1477    1.3557
   169    1.3536    1.2215   -0.1772   -0.1321    0.7454
   170    0.0203    0.0111   -0.0098   -0.0092
   171    3.1402    3.1382   -0.0016   -0.0020
   172   -2.9973   -3.0176   -0.0236   -0.0204    0.8647
   173    0.1227    0.1095   -0.0153   -0.0132    0.8623
   174    3.0162    2.9703   -0.0451   -0.0458    1.0151
   175   -0.0604   -0.0354    0.0261    0.0250    0.9605
   176   -0.2347   -0.2698   -0.0324   -0.0352    1.0865
   177    2.9720    3.0077    0.0388    0.0357    0.9189
   178    1.4521    1.4843    0.0335    0.0322    0.9620
   179   -0.6088   -0.5775    0.0324    0.0313    0.9662
   180   -2.7775   -2.7447    0.0344    0.0329    0.9554
   181   -1.5723   -1.5507    0.0205    0.0216    1.0575
   182    2.6499    2.6706    0.0194    0.0207    1.0699
   183    0.4812    0.5035    0.0213    0.0222    1.0429
   184   -0.0178   -0.0104    0.0072    0.0074
   185   -3.1395   -3.1396    0.0004   -0.0001
   186    3.0013    3.0242    0.0207    0.0229    1.1074
   187   -0.1204   -0.1051    0.0139    0.0153    1.1035
   188   -3.0174   -2.9704    0.0465    0.0470    1.0117
   189    0.0591    0.0350   -0.0247   -0.0241    0.9772
   190    0.2323    0.2645    0.0336    0.0323    0.9590
   191   -2.9744   -3.0133   -0.0375   -0.0389    1.0363
   192   -1.4468   -1.4918   -0.0442   -0.0450    1.0179
   193    0.6134    0.5711   -0.0416   -0.0423    1.0171
   194    2.7824    2.7376   -0.0444   -0.0448    1.0093
   195    1.5791    1.5488   -0.0313   -0.0303    0.9671
   196   -2.6439   -2.6715   -0.0287   -0.0276    0.9613
   197   -0.4749   -0.5050   -0.0315   -0.0301    0.9554
   198    0.0183    0.0116   -0.0067   -0.0067
   199   -3.1414   -3.1398    0.0021    0.0016
   200   -3.1018   -3.1155   -0.0148   -0.0137    0.9278
   201    0.0217    0.0162   -0.0060   -0.0054
   202   -0.0196   -0.0120    0.0080    0.0076
   203    3.1412    3.1394   -0.0014   -0.0018
   204    3.1019    3.1173    0.0149    0.0154    1.0328
   205   -0.0205   -0.0144    0.0056    0.0060
   206   -3.1172   -1.5613    1.5558    1.5559    1.0000
   207    0.0057    1.5705    1.5649    1.5648    1.0000
   208   -0.4712   -0.4724   -0.0025   -0.0012
   209   -2.6451   -2.6701   -0.0251   -0.0250    0.9958
   210    1.5609    1.5406   -0.0204   -0.0202    0.9902
   211    1.5741    1.5774    0.0023    0.0032
   212   -0.5998   -0.6203   -0.0203   -0.0206    1.0124
   213   -2.6769   -2.6928   -0.0157   -0.0159    1.0099
   214   -2.6629   -2.6673   -0.0052   -0.0044
   215    1.4464    1.4182   -0.0278   -0.0282    1.0158
   216   -0.6308   -0.6543   -0.0232   -0.0235    1.0147
   217    0.4642    0.4806    0.0161    0.0165    1.0192
   218    2.6367    2.6768    0.0404    0.0402    0.9927
   219   -1.5695   -1.5342    0.0356    0.0353    0.9908
   220   -1.5809   -1.5695    0.0110    0.0115    1.0434
   221    0.5915    0.6267    0.0353    0.0352    0.9963
   222    2.6685    2.6989    0.0305    0.0303    0.9947
   223    2.6561    2.6746    0.0180    0.0185    1.0269
   224   -1.4547   -1.4125    0.0423    0.0422    0.9971
   225    0.6224    0.6597    0.0375    0.0374    0.9959
   226    1.1666    1.1453   -0.0214   -0.0213    0.9957
   227   -3.0330   -3.0547   -0.0218   -0.0217    0.9958
   228   -0.9286   -0.9527   -0.0242   -0.0241    0.9962
   229   -3.0382   -3.0413   -0.0033   -0.0031
   230   -0.9546   -0.9581   -0.0037   -0.0035
   231    1.1498    1.1439   -0.0061   -0.0059
   232   -0.9675   -0.9707   -0.0029   -0.0032
   233    1.1160    1.1124   -0.0033   -0.0036
   234   -3.0628   -3.0688   -0.0057   -0.0060
   235    3.1023    3.0879   -0.0135   -0.0144    1.0651
   236   -1.0936   -1.1061   -0.0116   -0.0125    1.0760
   237    1.0069    0.9974   -0.0087   -0.0095
   238    1.0935    1.0802   -0.0145   -0.0133    0.9155
   239   -3.1025   -3.1138   -0.0125   -0.0113    0.9023
   240   -1.0019   -1.0103   -0.0096   -0.0084
   241   -0.9762   -0.9853   -0.0087   -0.0091
   242    1.1110    1.1039   -0.0068   -0.0071
   243   -3.0716   -3.0758   -0.0038   -0.0042
   244    3.0357    3.0558    0.0203    0.0200    0.9888
   245   -1.1641   -1.1438    0.0205    0.0203    0.9890
   246    0.9310    0.9541    0.0233    0.0231    0.9903
   247    0.9573    0.9602    0.0024    0.0029
   248    3.0406    3.0438    0.0026    0.0031
   249   -1.1474   -1.1415    0.0054    0.0059
   250   -1.1139   -1.1113    0.0029    0.0026
   251    0.9695    0.9723    0.0031    0.0029
   252    3.0646    3.0703    0.0059    0.0056
   253    1.0946    1.1108    0.0166    0.0162    0.9794
   254   -3.1016   -3.0833    0.0187    0.0183    0.9818
   255   -1.0056   -0.9924    0.0136    0.0132    0.9748
   256    3.1048    3.1205    0.0151    0.0157    1.0351
   257   -1.0914   -1.0736    0.0173    0.0178    1.0308
   258    1.0046    1.0173    0.0121    0.0127    1.0436
   259   -1.1080   -1.0987    0.0095    0.0093
   260    0.9790    0.9904    0.0116    0.0114    0.9838
   261    3.0750    3.0814    0.0065    0.0063

 GradGradGradGradGradGradGradGradGradGradGradGradGradGradGradGradGradGrad
 Berny optimization.
 Initialization pass.
                           ----------------------------
                           !    Initial Parameters    !
                           ! (Angstroms and Degrees)  !
 --------------------------                            --------------------------
 ! Name  Definition         TS        Reactant Product Derivative Info.         !
 --------------------------------------------------------------------------------
 ! R1    R(1,10)            1.9933    1.9372    2.051  estimate D2E/DX2         !
 ! R2    R(1,17)            2.1041    2.1024    2.1079 estimate D2E/DX2         !
 ! R3    R(1,18)            2.1057    2.1022    2.1082 estimate D2E/DX2         !
 ! R4    R(1,19)            2.2282    2.4261    2.0583 estimate D2E/DX2         !
 ! R5    R(1,39)            1.6624    1.8542    1.501  estimate D2E/DX2         !
 ! R6    R(2,4)             1.3704    1.3683    1.3728 estimate D2E/DX2         !
 ! R7    R(2,10)            1.3358    1.3411    1.3297 estimate D2E/DX2         !
 ! R8    R(2,11)            1.5054    1.4992    1.5072 estimate D2E/DX2         !
 ! R9    R(3,5)             1.3706    1.3711    1.3699 estimate D2E/DX2         !
 ! R10   R(3,10)            1.3348    1.3381    1.3327 estimate D2E/DX2         !
 ! R11   R(3,14)            1.5022    1.4994    1.507  estimate D2E/DX2         !
 ! R12   R(4,6)             1.401     1.3996    1.4019 estimate D2E/DX2         !
 ! R13   R(4,7)             1.0797    1.0791    1.0803 estimate D2E/DX2         !
 ! R14   R(5,6)             1.4012    1.3992    1.4026 estimate D2E/DX2         !
 ! R15   R(5,8)             1.0797    1.0802    1.0792 estimate D2E/DX2         !
 ! R16   R(6,9)             1.3258    1.3252    1.3264 estimate D2E/DX2         !
 ! R17   R(9,40)            0.961     0.961     0.9609 estimate D2E/DX2         !
 ! R18   R(11,12)           1.09      1.0901    1.09   estimate D2E/DX2         !
 ! R19   R(11,13)           1.0889    1.089     1.0888 estimate D2E/DX2         !
 ! R20   R(11,17)           1.5066    1.5006    1.5129 estimate D2E/DX2         !
 ! R21   R(14,15)           1.0901    1.0901    1.0901 estimate D2E/DX2         !
 ! R22   R(14,16)           1.0889    1.0891    1.0887 estimate D2E/DX2         !
 ! R23   R(14,18)           1.5071    1.5008    1.5125 estimate D2E/DX2         !
 ! R24   R(17,23)           1.4822    1.4815    1.4828 estimate D2E/DX2         !
 ! R25   R(17,27)           1.4898    1.4874    1.4921 estimate D2E/DX2         !
 ! R26   R(18,31)           1.4821    1.4816    1.4826 estimate D2E/DX2         !
 ! R27   R(18,35)           1.4896    1.4873    1.492  estimate D2E/DX2         !
 ! R28   R(19,20)           1.0924    1.0907    1.0941 estimate D2E/DX2         !
 ! R29   R(19,21)           1.0866    1.0853    1.088  estimate D2E/DX2         !
 ! R30   R(19,22)           1.0867    1.0853    1.0881 estimate D2E/DX2         !
 ! R31   R(19,39)           1.7964    1.1423    2.3876 estimate D2E/DX2         !
 ! R32   R(23,24)           1.0852    1.0859    1.0845 estimate D2E/DX2         !
 ! R33   R(23,25)           1.0902    1.0906    1.0899 estimate D2E/DX2         !
 ! R34   R(23,26)           1.0861    1.0867    1.0856 estimate D2E/DX2         !
 ! R35   R(27,28)           1.0899    1.0905    1.0893 estimate D2E/DX2         !
 ! R36   R(27,29)           1.0861    1.086     1.0862 estimate D2E/DX2         !
 ! R37   R(27,30)           1.0882    1.087     1.0894 estimate D2E/DX2         !
 ! R38   R(31,32)           1.0903    1.0906    1.09   estimate D2E/DX2         !
 ! R39   R(31,33)           1.0853    1.0859    1.0848 estimate D2E/DX2         !
 ! R40   R(31,34)           1.0861    1.0867    1.0855 estimate D2E/DX2         !
 ! R41   R(35,36)           1.086     1.086     1.0859 estimate D2E/DX2         !
 ! R42   R(35,37)           1.0898    1.0905    1.0891 estimate D2E/DX2         !
 ! R43   R(35,38)           1.0882    1.087     1.0895 estimate D2E/DX2         !
 ! A1    A(10,1,17)        82.378    82.8381   81.571  estimate D2E/DX2         !
 ! A2    A(10,1,18)        82.103    82.8327   81.5302 estimate D2E/DX2         !
 ! A3    L(10,1,19,17,-1)  181.085  179.3831  179.9137 estimate D2E/DX2         !
 ! A4    L(10,1,19,17,-2)  184.7521  188.3296  183.2595 estimate D2E/DX2        !
 ! A5    A(10,1,39)       132.0734  161.332   100.5581 estimate D2E/DX2         !
 ! A6    A(17,1,18)       162.4557  163.8403  160.8613 estimate D2E/DX2         !
 ! A7    A(17,1,19)        98.707    96.5451   98.3427 estimate D2E/DX2         !
 ! A8    A(17,1,39)        96.9749   98.0823   95.8192 estimate D2E/DX2         !
 ! A9    A(18,1,19)        96.1031   96.5548   98.0233 estimate D2E/DX2         !
 ! A10   A(18,1,39)        99.4817   97.8864   96.0465 estimate D2E/DX2         !
 ! A11   A(19,1,39)        52.5827   26.9608   82.663  estimate D2E/DX2         !
 ! A12   A(4,2,10)        119.8382  119.9813  119.7595 estimate D2E/DX2         !
 ! A13   A(4,2,11)        126.596   126.1195  127.0196 estimate D2E/DX2         !
 ! A14   A(10,2,11)       113.2891  113.5629  113.0198 estimate D2E/DX2         !
 ! A15   A(5,3,10)        119.8324  120.0232  119.7388 estimate D2E/DX2         !
 ! A16   A(5,3,14)        126.6688  125.9836  127.2127 estimate D2E/DX2         !
 ! A17   A(10,3,14)       113.2503  113.6645  112.8526 estimate D2E/DX2         !
 ! A18   A(2,4,6)         118.107   118.4907  117.7682 estimate D2E/DX2         !
 ! A19   A(2,4,7)         121.2807  121.3125  121.2239 estimate D2E/DX2         !
 ! A20   A(6,4,7)         120.607   120.1851  121.0072 estimate D2E/DX2         !
 ! A21   A(3,5,6)         118.1228  118.3972  117.8388 estimate D2E/DX2         !
 ! A22   A(3,5,8)         121.268   120.4021  122.1377 estimate D2E/DX2         !
 ! A23   A(6,5,8)         120.6054  121.1906  120.0225 estimate D2E/DX2         !
 ! A24   A(4,6,5)         120.4666  120.1069  120.7849 estimate D2E/DX2         !
 ! A25   A(4,6,9)         119.7412  116.9885  122.5127 estimate D2E/DX2         !
 ! A26   A(5,6,9)         119.7898  122.896   116.7024 estimate D2E/DX2         !
 ! A27   A(6,9,40)        111.9468  111.9982  111.8953 estimate D2E/DX2         !
 ! A28   A(1,10,2)        117.8598  118.47    117.458  estimate D2E/DX2         !
 ! A29   A(1,10,3)        118.0977  118.5212  117.413  estimate D2E/DX2         !
 ! A30   A(2,10,3)        123.6005  122.907   124.1074 estimate D2E/DX2         !
 ! A31   A(2,11,12)       106.9074  106.8788  107.0007 estimate D2E/DX2         !
 ! A32   A(2,11,13)       112.3393  112.313   112.3691 estimate D2E/DX2         !
 ! A33   A(2,11,17)       112.7038  111.9653  113.3392 estimate D2E/DX2         !
 ! A34   A(12,11,13)      107.8654  107.8488  107.8634 estimate D2E/DX2         !
 ! A35   A(12,11,17)      107.336   107.6609  107.0459 estimate D2E/DX2         !
 ! A36   A(13,11,17)      109.4221  109.934   108.9295 estimate D2E/DX2         !
 ! A37   A(3,14,15)       106.9793  106.8431  107.106  estimate D2E/DX2         !
 ! A38   A(3,14,16)       112.3398  112.3098  112.3642 estimate D2E/DX2         !
 ! A39   A(3,14,18)       112.5807  111.9813  113.2165 estimate D2E/DX2         !
 ! A40   A(15,14,16)      107.8758  107.8335  107.9174 estimate D2E/DX2         !
 ! A41   A(15,14,18)      107.3406  107.6924  107.0082 estimate D2E/DX2         !
 ! A42   A(16,14,18)      109.4637  109.9399  108.9437 estimate D2E/DX2         !
 ! A43   A(1,17,11)       106.656   106.2597  107.213  estimate D2E/DX2         !
 ! A44   A(1,17,23)       116.2269  115.2157  117.1541 estimate D2E/DX2         !
 ! A45   A(1,17,27)       107.1303  108.3268  105.9172 estimate D2E/DX2         !
 ! A46   A(11,17,23)      108.5137  108.6963  108.0888 estimate D2E/DX2         !
 ! A47   A(11,17,27)      108.9723  108.7795  109.2967 estimate D2E/DX2         !
 ! A48   A(23,17,27)      109.1469  109.3762  108.9816 estimate D2E/DX2         !
 ! A49   A(1,18,14)       106.6974  106.2917  107.0722 estimate D2E/DX2         !
 ! A50   A(1,18,31)       116.1916  115.1129  117.2667 estimate D2E/DX2         !
 ! A51   A(1,18,35)       107.1576  108.3799  105.9484 estimate D2E/DX2         !
 ! A52   A(14,18,31)      108.3973  108.7343  108.1939 estimate D2E/DX2         !
 ! A53   A(14,18,35)      109.0741  108.805   109.2022 estimate D2E/DX2         !
 ! A54   A(31,18,35)      109.1411  109.3383  108.9502 estimate D2E/DX2         !
 ! A55   A(1,19,20)        88.0408   73.9147  106.3345 estimate D2E/DX2         !
 ! A56   A(1,19,21)       119.1962  122.2785  112.5166 estimate D2E/DX2         !
 ! A57   A(1,19,22)       118.6115  122.2659  112.5791 estimate D2E/DX2         !
 ! A58   A(20,19,21)      105.7659  108.8462  108.576  estimate D2E/DX2         !
 ! A59   A(20,19,22)      111.8551  108.8518  108.7149 estimate D2E/DX2         !
 ! A60   A(20,19,39)      135.2073  121.3023  144.7769 estimate D2E/DX2         !
 ! A61   A(21,19,22)      110.2074  111.307   107.9937 estimate D2E/DX2         !
 ! A62   A(21,19,39)       95.8401  103.1437   93.2436 estimate D2E/DX2         !
 ! A63   A(22,19,39)       95.962   103.1391   89.3521 estimate D2E/DX2         !
 ! A64   A(17,23,24)      109.2501  109.1993  109.3008 estimate D2E/DX2         !
 ! A65   A(17,23,25)      109.5299  109.8351  109.2246 estimate D2E/DX2         !
 ! A66   A(17,23,26)      109.4683  109.3982  109.5382 estimate D2E/DX2         !
 ! A67   A(24,23,25)      109.0241  108.9183  109.1299 estimate D2E/DX2         !
 ! A68   A(24,23,26)      109.7542  109.6823  109.8259 estimate D2E/DX2         !
 ! A69   A(25,23,26)      109.7986  109.7925  109.8045 estimate D2E/DX2         !
 ! A70   A(17,27,28)      109.3231  109.3628  109.2831 estimate D2E/DX2         !
 ! A71   A(17,27,29)      109.4272  109.5972  109.2572 estimate D2E/DX2         !
 ! A72   A(17,27,30)      109.7068  109.7668  109.6465 estimate D2E/DX2         !
 ! A73   A(28,27,29)      109.3221  109.1268  109.5174 estimate D2E/DX2         !
 ! A74   A(28,27,30)      109.2469  109.4247  109.0687 estimate D2E/DX2         !
 ! A75   A(29,27,30)      109.7996  109.5468  110.0524 estimate D2E/DX2         !
 ! A76   A(18,31,32)      109.5341  109.8469  109.2211 estimate D2E/DX2         !
 ! A77   A(18,31,33)      109.2045  109.1783  109.2306 estimate D2E/DX2         !
 ! A78   A(18,31,34)      109.483   109.4038  109.562  estimate D2E/DX2         !
 ! A79   A(32,31,33)      109.0654  108.9126  109.2181 estimate D2E/DX2         !
 ! A80   A(32,31,34)      109.7736  109.7966  109.7504 estimate D2E/DX2         !
 ! A81   A(33,31,34)      109.7645  109.6873  109.8416 estimate D2E/DX2         !
 ! A82   A(18,35,36)      109.4605  109.5811  109.3399 estimate D2E/DX2         !
 ! A83   A(18,35,37)      109.3283  109.3624  109.2939 estimate D2E/DX2         !
 ! A84   A(18,35,38)      109.6827  109.772   109.593  estimate D2E/DX2         !
 ! A85   A(36,35,37)      109.2992  109.1222  109.4762 estimate D2E/DX2         !
 ! A86   A(36,35,38)      109.7794  109.5343  110.0246 estimate D2E/DX2         !
 ! A87   A(37,35,38)      109.2756  109.4531  109.0976 estimate D2E/DX2         !
 ! D1    D(17,1,10,2)      -0.1913   -1.9969    1.2834 estimate D2E/DX2         !
 ! D2    D(17,1,10,3)     172.4586  174.4419  170.2069 estimate D2E/DX2         !
 ! D3    D(18,1,10,2)    -171.9829 -174.5068 -169.6994 estimate D2E/DX2         !
 ! D4    D(18,1,10,3)       0.667     1.9319   -0.7759 estimate D2E/DX2         !
 ! D5    D(39,1,10,2)      92.3449   92.0622   95.679  estimate D2E/DX2         !
 ! D6    D(39,1,10,3)     -95.0051  -91.4991  -95.3975 estimate D2E/DX2         !
 ! D7    D(10,1,17,11)     15.1162   16.1612   14.3131 estimate D2E/DX2         !
 ! D8    D(10,1,17,23)    136.2382  136.5867  135.9286 estimate D2E/DX2         !
 ! D9    D(10,1,17,27)   -101.4553 -100.5738 -102.3086 estimate D2E/DX2         !
 ! D10   D(18,1,17,11)     43.0949   43.8526   42.5316 estimate D2E/DX2         !
 ! D11   D(18,1,17,23)    164.2168  164.2781  164.147  estimate D2E/DX2         !
 ! D12   D(18,1,17,27)    -73.4767  -72.8824  -74.0902 estimate D2E/DX2         !
 ! D13   D(19,1,17,11)   -169.6359 -172.1684 -168.9463 estimate D2E/DX2         !
 ! D14   D(19,1,17,23)    -48.5139  -51.7429  -47.3309 estimate D2E/DX2         !
 ! D15   D(19,1,17,27)     73.7926   71.0966   74.432  estimate D2E/DX2         !
 ! D16   D(39,1,17,11)   -116.545  -145.0256  -85.5381 estimate D2E/DX2         !
 ! D17   D(39,1,17,23)      4.577   -24.6001   36.0773 estimate D2E/DX2         !
 ! D18   D(39,1,17,27)    126.8835   98.2393  157.8402 estimate D2E/DX2         !
 ! D19   D(10,1,18,14)    -15.5897  -15.9127  -15.1745 estimate D2E/DX2         !
 ! D20   D(10,1,18,31)   -136.5702 -136.3459 -136.8927 estimate D2E/DX2         !
 ! D21   D(10,1,18,35)    101.1334  100.8949  101.2873 estimate D2E/DX2         !
 ! D22   D(17,1,18,14)    -43.5883  -43.6045  -43.3961 estimate D2E/DX2         !
 ! D23   D(17,1,18,31)   -164.5688 -164.0378 -165.1143 estimate D2E/DX2         !
 ! D24   D(17,1,18,35)     73.1348   73.203    73.0656 estimate D2E/DX2         !
 ! D25   D(19,1,18,14)    168.9258  172.4174  168.0536 estimate D2E/DX2         !
 ! D26   D(19,1,18,31)     47.9453   51.9841   46.3354 estimate D2E/DX2         !
 ! D27   D(19,1,18,35)    -74.3511  -70.7751  -75.4846 estimate D2E/DX2         !
 ! D28   D(39,1,18,14)    115.9166  145.2695   84.6434 estimate D2E/DX2         !
 ! D29   D(39,1,18,31)     -5.064    24.8362  -37.0749 estimate D2E/DX2         !
 ! D30   D(39,1,18,35)   -127.3604  -97.923  -158.8949 estimate D2E/DX2         !
 ! D31   D(17,1,19,20)    -83.9344  -85.0255  -88.9645 estimate D2E/DX2         !
 ! D32   D(17,1,19,21)     23.0623   17.4194   29.7765 estimate D2E/DX2         !
 ! D33   D(17,1,19,22)    162.135   172.521   152.0898 estimate D2E/DX2         !
 ! D34   D(18,1,19,20)     86.6312   85.4919   81.0797 estimate D2E/DX2         !
 ! D35   D(18,1,19,21)   -166.372  -172.0633 -160.1793 estimate D2E/DX2         !
 ! D36   D(18,1,19,22)    -27.2994  -16.9617  -37.866  estimate D2E/DX2         !
 ! D37   D(39,1,19,20)   -176.0844 -179.9925  176.1918 estimate D2E/DX2         !
 ! D38   D(39,1,19,21)    -69.0877  -77.5476  -65.0672 estimate D2E/DX2         !
 ! D39   D(39,1,19,22)     69.985    77.554    57.2461 estimate D2E/DX2         !
 ! D40   D(10,2,4,6)        0.6372    1.1644    0.0397 estimate D2E/DX2         !
 ! D41   D(10,2,4,7)      179.8054  179.9217  179.7425 estimate D2E/DX2         !
 ! D42   D(11,2,4,6)     -172.897  -171.7298 -174.4294 estimate D2E/DX2         !
 ! D43   D(11,2,4,7)        6.2712    7.0276    5.2734 estimate D2E/DX2         !
 ! D44   D(4,2,10,1)      170.1875  172.8132  167.64   estimate D2E/DX2         !
 ! D45   D(4,2,10,3)       -2.0254   -3.4595   -0.4733 estimate D2E/DX2         !
 ! D46   D(11,2,10,1)     -15.4613  -13.4454  -17.1563 estimate D2E/DX2         !
 ! D47   D(11,2,10,3)     172.3258  170.2819  174.7304 estimate D2E/DX2         !
 ! D48   D(4,2,11,12)      85.0464   83.1989   87.0399 estimate D2E/DX2         !
 ! D49   D(4,2,11,13)     -33.0895  -34.8841  -31.1693 estimate D2E/DX2         !
 ! D50   D(4,2,11,17)    -157.2582 -159.1406 -155.1999 estimate D2E/DX2         !
 ! D51   D(10,2,11,12)    -88.8488  -90.0881  -87.7442 estimate D2E/DX2         !
 ! D52   D(10,2,11,13)    153.0152  151.8289  154.0466 estimate D2E/DX2         !
 ! D53   D(10,2,11,17)     28.8466   27.5724   30.016  estimate D2E/DX2         !
 ! D54   D(10,3,5,6)       -0.5941   -1.0209   -0.1982 estimate D2E/DX2         !
 ! D55   D(10,3,5,8)     -179.8882 -179.8802 -179.8371 estimate D2E/DX2         !
 ! D56   D(14,3,5,6)      173.2741  171.9621  174.3316 estimate D2E/DX2         !
 ! D57   D(14,3,5,8)       -6.02     -6.8973   -5.3072 estimate D2E/DX2         !
 ! D58   D(5,3,10,1)     -170.193  -172.8865 -167.5619 estimate D2E/DX2         !
 ! D59   D(5,3,10,2)        2.0026    3.3844    0.5564 estimate D2E/DX2         !
 ! D60   D(14,3,10,1)      15.1576   13.3094   17.1638 estimate D2E/DX2         !
 ! D61   D(14,3,10,2)    -172.6468 -170.4197 -174.718  estimate D2E/DX2         !
 ! D62   D(5,3,14,15)     -85.4718  -82.8938  -87.9593 estimate D2E/DX2         !
 ! D63   D(5,3,14,16)      32.7224   35.1465   30.3798 estimate D2E/DX2         !
 ! D64   D(5,3,14,18)     156.8511  159.4207  154.329  estimate D2E/DX2         !
 ! D65   D(10,3,14,15)     88.74     90.4747   86.8873 estimate D2E/DX2         !
 ! D66   D(10,3,14,16)   -153.0657 -151.4851 -154.7736 estimate D2E/DX2         !
 ! D67   D(10,3,14,18)    -28.9371  -27.2109  -30.8244 estimate D2E/DX2         !
 ! D68   D(2,4,6,5)         0.6663    1.0502    0.287  estimate D2E/DX2         !
 ! D69   D(2,4,6,9)      -179.8957 -179.9861 -179.7455 estimate D2E/DX2         !
 ! D70   D(7,4,6,5)      -178.5078 -177.7216 -179.4165 estimate D2E/DX2         !
 ! D71   D(7,4,6,9)         0.9302    1.242     0.551  estimate D2E/DX2         !
 ! D72   D(3,5,6,4)        -0.688    -1.1225   -0.2085 estimate D2E/DX2         !
 ! D73   D(3,5,6,9)       179.8743  179.9774  179.8222 estimate D2E/DX2         !
 ! D74   D(8,5,6,4)       178.611   177.7275  179.4383 estimate D2E/DX2         !
 ! D75   D(8,5,6,9)        -0.8268   -1.1726   -0.531  estimate D2E/DX2         !
 ! D76   D(4,6,9,40)      -89.4572 -178.6048   -0.3181 estimate D2E/DX2         !
 ! D77   D(5,6,9,40)       89.9847    0.3274  179.6506 estimate D2E/DX2         !
 ! D78   D(2,11,17,1)     -27.0666  -27.0002  -27.2836 estimate D2E/DX2         !
 ! D79   D(2,11,17,23)   -152.9854 -151.5554 -154.4274 estimate D2E/DX2         !
 ! D80   D(2,11,17,27)     88.2715   89.4311   87.0889 estimate D2E/DX2         !
 ! D81   D(12,11,17,1)     90.3758   90.1917   90.4503 estimate D2E/DX2         !
 ! D82   D(12,11,17,23)   -35.543   -34.3635  -36.6936 estimate D2E/DX2         !
 ! D83   D(12,11,17,27)  -154.286  -153.377  -155.1772 estimate D2E/DX2         !
 ! D84   D(13,11,17,1)   -152.827  -152.5736 -153.1688 estimate D2E/DX2         !
 ! D85   D(13,11,17,23)    81.2542   82.8712   79.6874 estimate D2E/DX2         !
 ! D86   D(13,11,17,27)   -37.4888  -36.1423  -38.7962 estimate D2E/DX2         !
 ! D87   D(3,14,18,1)      27.5389   26.5962   28.446  estimate D2E/DX2         !
 ! D88   D(3,14,18,31)    153.3697  151.0691  155.7043 estimate D2E/DX2         !
 ! D89   D(3,14,18,35)    -87.9033  -89.9265  -85.8424 estimate D2E/DX2         !
 ! D90   D(15,14,18,1)    -89.9244  -90.5807  -89.3228 estimate D2E/DX2         !
 ! D91   D(15,14,18,31)    35.9064   33.8921   37.9355 estimate D2E/DX2         !
 ! D92   D(15,14,18,35)   154.6334  152.8965  156.3888 estimate D2E/DX2         !
 ! D93   D(16,14,18,1)    153.2414  152.1817  154.2457 estimate D2E/DX2         !
 ! D94   D(16,14,18,31)   -80.9278  -83.3455  -78.4961 estimate D2E/DX2         !
 ! D95   D(16,14,18,35)    37.7992   35.6589   39.9572 estimate D2E/DX2         !
 ! D96   D(1,17,23,24)     65.6212   66.8418   64.3901 estimate D2E/DX2         !
 ! D97   D(1,17,23,25)   -175.0239 -173.7797 -176.2787 estimate D2E/DX2         !
 ! D98   D(1,17,23,26)    -54.5881  -53.2058  -55.9808 estimate D2E/DX2         !
 ! D99   D(11,17,23,24)  -174.2514 -174.0749 -174.4512 estimate D2E/DX2         !
 ! D100  D(11,17,23,25)   -54.8965  -54.6965  -55.12   estimate D2E/DX2         !
 ! D101  D(11,17,23,26)    65.5393   65.8774   65.1779 estimate D2E/DX2         !
 ! D102  D(27,17,23,24)   -55.6186  -55.4365  -55.7669 estimate D2E/DX2         !
 ! D103  D(27,17,23,25)    63.7363   63.942    63.5644 estimate D2E/DX2         !
 ! D104  D(27,17,23,26)  -175.8279 -175.4841 -176.1378 estimate D2E/DX2         !
 ! D105  D(1,17,27,28)    176.9244  177.7506  176.1993 estimate D2E/DX2         !
 ! D106  D(1,17,27,29)    -63.375   -62.6604  -63.9886 estimate D2E/DX2         !
 ! D107  D(1,17,27,30)     57.1461   57.6931   56.6999 estimate D2E/DX2         !
 ! D108  D(11,17,27,28)    61.8926   62.6526   60.9922 estimate D2E/DX2         !
 ! D109  D(11,17,27,29)  -178.4068 -177.7583 -179.1958 estimate D2E/DX2         !
 ! D110  D(11,17,27,30)   -57.8858  -57.4049  -58.5072 estimate D2E/DX2         !
 ! D111  D(23,17,27,28)   -56.4535  -55.9341  -56.9333 estimate D2E/DX2         !
 ! D112  D(23,17,27,29)    63.2471   63.655    62.8788 estimate D2E/DX2         !
 ! D113  D(23,17,27,30)  -176.2318 -175.9916 -176.4327 estimate D2E/DX2         !
 ! D114  D(1,18,31,32)    175.0828  173.9346  176.257  estimate D2E/DX2         !
 ! D115  D(1,18,31,33)    -65.537   -66.6996  -64.3485 estimate D2E/DX2         !
 ! D116  D(1,18,31,34)     54.6659   53.3447   56.013  estimate D2E/DX2         !
 ! D117  D(14,18,31,32)    55.0139   54.8495   55.1223 estimate D2E/DX2         !
 ! D118  D(14,18,31,33)   174.3941  174.2153  174.5168 estimate D2E/DX2         !
 ! D119  D(14,18,31,34)   -65.403   -65.7404  -65.1217 estimate D2E/DX2         !
 ! D120  D(35,18,31,32)   -63.6707  -63.82    -63.4914 estimate D2E/DX2         !
 ! D121  D(35,18,31,33)    55.7095   55.5457   55.9032 estimate D2E/DX2         !
 ! D122  D(35,18,31,34)   175.9124  175.5901  176.2647 estimate D2E/DX2         !
 ! D123  D(1,18,35,36)     63.644    62.7151   64.612  estimate D2E/DX2         !
 ! D124  D(1,18,35,37)   -176.66   -177.7113 -175.5698 estimate D2E/DX2         !
 ! D125  D(1,18,35,38)    -56.858   -57.616   -56.0608 estimate D2E/DX2         !
 ! D126  D(14,18,35,36)   178.7898  177.8925  179.6264 estimate D2E/DX2         !
 ! D127  D(14,18,35,37)   -61.5142  -62.534   -60.5554 estimate D2E/DX2         !
 ! D128  D(14,18,35,38)    58.2878   57.5614   58.9535 estimate D2E/DX2         !
 ! D129  D(31,18,35,36)   -62.9488  -63.482   -62.3939 estimate D2E/DX2         !
 ! D130  D(31,18,35,37)    56.7471   56.0916   57.4243 estimate D2E/DX2         !
 ! D131  D(31,18,35,38)   176.5491  176.1869  176.9333 estimate D2E/DX2         !
 --------------------------------------------------------------------------------
 Trust Radius=3.00D-01 FncErr=1.00D-07 GrdErr=1.00D-06 EigMax=2.50D+02 EigMin=1.00D-04
 Number of steps in this run=    240 maximum allowed number of steps=    240.
 Search for a saddle point of order  1.
 GradGradGradGradGradGradGradGradGradGradGradGradGradGradGradGradGradGrad

                          Input orientation:                          
 ---------------------------------------------------------------------
 Center     Atomic      Atomic             Coordinates (Angstroms)
 Number     Number       Type             X           Y           Z
 ---------------------------------------------------------------------
      1         78           0        0.942667    0.007288   -0.058679
      2          6           0       -1.685642   -1.148792   -0.099841
      3          6           0       -1.669964    1.204692   -0.098429
      4          6           0       -3.047971   -1.179615    0.045709
      5          6           0       -3.031992    1.252796    0.046719
      6          6           0       -3.730838    0.040973    0.127225
      7          1           0       -3.586737   -2.114526    0.083409
      8          1           0       -3.558375    2.194625    0.086875
      9          8           0       -5.048871    0.048952    0.270412
     10          7           0       -1.048654    0.024355   -0.146914
     11          6           0       -0.783432   -2.326588   -0.354836
     12          1           0       -0.777338   -2.493912   -1.431942
     13          1           0       -1.145161   -3.236019    0.122464
     14          6           0       -0.752312    2.368380   -0.343977
     15          1           0       -0.736124    2.539405   -1.420470
     16          1           0       -1.104309    3.281137    0.134214
     17          7           0        0.639885   -2.071042    0.067834
     18          7           0        0.664416    2.089370    0.087890
     19          6           0        3.153247    0.043607    0.218607
     20          1           0        2.980842    0.013190    1.296919
     21          1           0        3.731241   -0.846872   -0.013211
     22          1           0        3.700445    0.934228   -0.078625
     23          6           0        1.535042   -2.914891   -0.758839
     24          1           0        2.553528   -2.817265   -0.397114
     25          1           0        1.228250   -3.958060   -0.679651
     26          1           0        1.480992   -2.593158   -1.794792
     27          6           0        0.795447   -2.450769    1.499971
     28          1           0        0.591459   -3.515181    1.615049
     29          1           0        1.812219   -2.243012    1.820405
     30          1           0        0.094002   -1.883264    2.108357
     31          6           0        1.575286    2.929888   -0.724791
     32          1           0        1.282003    3.976244   -0.636160
     33          1           0        2.590237    2.813915   -0.358238
     34          1           0        1.522682    2.620357   -1.764500
     35          6           0        0.815947    2.452920    1.524518
     36          1           0        1.829255    2.234230    1.848130
     37          1           0        0.619683    3.517580    1.649822
     38          1           0        0.107309    1.884093    2.123257
     39          1           0        2.109845   -0.030400   -1.241826
     40          1           0       -5.502212    0.048009   -0.576923
 ---------------------------------------------------------------------
                    Distance matrix (angstroms):
                    1          2          3          4          5
     1  Pt   0.000000
     2  C    2.871623   0.000000
     3  C    2.874230   2.353537   0.000000
     4  C    4.164712   1.370429   2.757643   0.000000
     5  C    4.166571   2.757129   1.370585   2.432463   0.000000
     6  C    4.677322   2.376957   2.377470   1.400995   1.401207
     7  H    5.003776   2.140183   3.837224   1.079698   3.412908
     8  H    5.006496   3.836721   2.140186   3.412872   1.079691
     9  O    6.000713   3.589288   3.590096   2.358701   2.359466
    10  N    1.993347   1.335756   1.334756   2.341776   2.340981
    11  C    2.917893   1.505394   3.649880   2.569849   4.246088
    12  H    3.331707   2.099728   4.031714   3.011081   4.616029
    13  H    3.861461   2.167501   4.477067   2.802745   4.869839
    14  C    2.920462   3.647081   1.502181   4.243839   2.567901
    15  H    3.329329   4.030935   2.097930   4.617946   3.013141
    16  H    3.865929   4.474036   2.164651   4.866617   2.799605
    17  N    2.104076   2.507337   4.011669   3.794129   4.952881
    18  N    2.105700   4.005460   2.503338   4.946702   3.790117
    19  C    2.228199   4.993803   4.971116   6.323074   6.304670
    20  H    2.447823   5.007715   4.999667   6.271754   6.265285
    21  H    2.916814   5.425982   5.778339   6.787629   7.081915
    22  H    2.909460   5.774890   5.377252   7.072829   6.741136
    23  C    3.062721   3.731781   5.261100   4.966135   6.235090
    24  H    3.269176   4.565385   5.839798   5.852759   6.925346
    25  H    4.023822   4.088879   5.949073   5.150919   6.769807
    26  H    3.172727   3.871255   5.218221   5.088914   6.208828
    27  C    2.914293   3.226507   4.689939   4.301462   5.520654
    28  H    3.915674   3.704840   5.507018   4.600342   6.190530
    29  H    3.057928   4.137595   5.262527   5.282216   6.231614
    30  H    2.998410   2.929628   4.185326   3.823824   4.884369
    31  C    3.063577   5.259262   3.728308   6.233473   4.963354
    32  H    4.025077   5.946473   4.084699   6.767311   5.147237
    33  H    3.268238   5.835491   4.561405   6.921044   5.848979
    34  H    3.174016   5.222156   3.869482   6.213494   5.088791
    35  C    2.916108   4.676410   3.220525   5.505637   4.293114
    36  H    3.062879   5.252992   4.134438   6.220160   5.276365
    37  H    3.917326   5.490980   3.694362   6.171588   4.586275
    38  H    2.996842   4.165961   2.925094   4.863980   3.816512
    39  H    1.662397   4.118331   4.137604   5.438888   5.453937
    40  H    6.465810   4.028169   4.031500   2.813899   2.818230
                    6          7          8          9         10
     6  C    0.000000
     7  H    2.160754   0.000000
     8  H    2.160923   4.309245   0.000000
     9  O    1.325812   2.617908   2.619003   0.000000
    10  N    2.696209   3.327120   3.326173   4.022003   0.000000
    11  C    3.811159   2.845268   5.323231   4.922205   2.374976
    12  H    4.192828   3.214490   5.658918   5.254537   2.840173
    13  H    4.174258   2.687111   5.942791   5.104104   3.272907
    14  C    3.809262   5.321002   2.844260   4.921142   2.370886
    15  H    4.195931   5.660982   3.218084   5.259394   2.836388
    16  H    4.171016   5.939546   2.684249   5.101484   3.269367
    17  N    4.854622   4.226874   5.985120   6.074320   2.699624
    18  N    4.849303   5.978717   4.224103   6.069454   2.693330
    19  C    6.884692   7.078361   7.049120   8.202283   4.217813
    20  H    6.812900   7.009484   6.998873   8.095140   4.280375
    21  H    7.516024   7.427589   7.899318   8.830250   4.860484
    22  H    7.487606   7.900897   7.369291   8.800913   4.835956
    23  C    6.103420   5.251913   7.263972   7.293260   3.960948
    24  H    6.923707   6.199000   7.918879   8.152132   4.594902
    25  H    6.421516   5.212003   7.832934   7.507397   4.618195
    26  H    6.147842   5.425735   7.201302   7.340635   3.995746
    27  C    5.346070   4.617710   6.521678   6.474293   3.498453
    28  H    5.791554   4.665305   7.222072   6.806204   4.280514
    29  H    6.229681   5.672952   7.179208   7.397981   4.146792
    30  H    4.717729   4.207342   5.835702   5.793154   3.167162
    31  C    6.101370   7.262628   5.249180   7.291754   3.957413
    32  H    6.418543   7.830701   5.208283   7.505029   4.613973
    33  H    6.919601   7.914517   6.195731   8.148386   4.589970
    34  H    6.150717   7.206944   5.424572   7.344270   3.995945
    35  C    5.333214   6.505534   4.611749   6.461264   3.488315
    36  H    6.219850   7.166511   5.668346   7.387371   4.140785
    37  H    5.773398   7.201960   4.652868   6.787242   4.267812
    38  H    4.702405   5.813425   4.204821   5.778146   3.154132
    39  H    5.999415   6.208935   6.232567   7.317129   3.343343
    40  H    1.906210   2.963383   2.971041   0.960986   4.474332
                   11         12         13         14         15
    11  C    0.000000
    12  H    1.090043   0.000000
    13  H    1.088911   1.761305   0.000000
    14  C    4.695084   4.982587   5.637480   0.000000
    15  H    4.981536   5.033499   5.991952   1.090114   0.000000
    16  H    5.638148   5.992575   6.517295   1.088896   1.761468
    17  N    1.506581   2.106340   2.132263   4.670788   5.036335
    18  N    4.668293   5.039347   5.624548   1.507141   2.106939
    19  C    4.630777   4.961130   5.407541   4.579788   4.903344
    20  H    4.729970   5.277894   5.381506   4.709129   5.251838
    21  H    4.763249   5.005280   5.431918   5.527159   5.779671
    22  H    5.551069   5.799496   6.396194   4.685536   4.905128
    23  C    2.425828   2.444871   2.839596   5.772092   5.945191
    24  H    3.373107   3.502870   3.758406   6.149985   6.368908
    25  H    2.610377   2.594620   2.607261   6.637705   6.828223
    26  H    2.696692   2.289446   3.314486   5.631106   5.603474
    27  C    2.438973   3.327406   2.506014   5.387011   5.981347
    28  H    2.680210   3.492958   2.306857   6.345060   6.901802
    29  H    3.387633   4.164915   3.551783   5.703183   6.314177
    30  H    2.652120   3.696734   2.703561   4.980628   5.718542
    31  C    5.773297   5.954201   6.792428   2.424463   2.445212
    32  H    6.638588   6.836452   7.647442   2.609413   2.598554
    33  H    6.148693   6.377024   7.126428   3.372142   3.502623
    34  H    5.637161   5.617512   6.706353   2.693878   2.286288
    35  C    5.379003   5.979160   6.178651   2.440872   3.330069
    36  H    5.699145   6.317320   6.461324   3.389368   4.166298
    37  H    6.335746   6.898331   7.145530   2.679228   3.495958
    38  H    4.966307   5.708675   5.638032   2.657202   3.701190
    39  H    3.798721   3.800114   4.767845   3.840861   3.838665
    40  H    5.287241   5.432942   5.500716   5.291496   5.443732
                   16         17         18         19         20
    16  H    0.000000
    17  N    5.629604   0.000000
    18  N    2.133270   4.160533   0.000000
    19  C    5.349346   3.288078   3.224362   0.000000
    20  H    5.359087   3.366713   3.337380   1.092431   0.000000
    21  H    6.359618   3.325905   4.247017   1.086632   1.737598
    22  H    5.351537   4.291867   3.252622   1.086728   1.805066
    23  C    6.793709   1.482152   5.149522   3.510940   3.858774
    24  H    7.131101   2.105957   5.280061   2.987200   3.326233
    25  H    7.649129   2.113230   6.121964   4.530543   4.769616
    26  H    6.701655   2.109369   5.112470   3.715204   4.312920
    27  C    6.191051   1.489768   4.756469   3.663744   3.299738
    28  H    7.159501   2.117016   5.809349   4.601933   4.273145
    29  H    6.470363   2.115524   4.805059   3.097215   2.594256
    30  H    5.657228   2.120609   4.493270   4.079579   3.548072
    31  C    2.835753   5.149032   1.482095   3.422072   3.817070
    32  H    2.602141   6.121894   2.113280   4.438221   4.725319
    33  H    3.756392   5.277141   2.105418   2.885193   3.276610
    34  H    3.307995   5.113317   2.109483   3.637458   4.277364
    35  C    2.511229   4.755960   1.489641   3.601828   3.269687
    36  H    3.555182   4.808266   2.115721   3.034325   2.561836
    37  H    2.307622   5.808252   2.116935   4.531645   4.240325
    38  H    2.715887   4.489042   2.120194   4.036436   3.527081
    39  H    4.815657   2.835527   2.889781   1.796393   2.684355
    40  H    5.504578   6.529276   6.529657   8.691942   8.687617
                   21         22         23         24         25
    21  H    0.000000
    22  H    1.782567   0.000000
    23  C    3.107403   4.468487   0.000000
    24  H    2.327411   3.935805   1.085214   0.000000
    25  H    4.048284   5.514296   1.090226   1.771328   0.000000
    26  H    3.359638   4.507067   1.086109   1.775968   1.780554
    27  C    3.671660   4.731721   2.421700   2.612297   2.685144
    28  H    4.430502   5.686086   2.624127   2.895791   2.422250
    29  H    2.999000   4.155306   2.679691   2.407632   3.087505
    30  H    4.336435   5.072237   3.370707   3.633045   3.655720
    31  C    4.406631   2.986049   5.845016   5.839015   6.896832
    32  H    5.445114   3.926011   6.896870   6.915612   7.934605
    33  H    3.849973   2.200901   5.838933   5.631434   6.915053
    34  H    4.468380   3.229219   5.625876   5.700889   6.673766
    35  C    4.663923   3.632743   5.877432   5.872539   6.791834
    36  H    4.071281   2.983913   5.778953   5.575240   6.715306
    37  H    5.612122   4.376338   6.929373   6.932530   7.853788
    38  H    5.015531   4.319856   5.777123   5.868478   6.575983
    39  H    2.192041   2.193980   2.980598   2.945677   4.064451
    40  H    9.293828   9.258649   7.637723   8.552022   7.833151
                   26         27         28         29         30
    26  H    0.000000
    27  C    3.368339   0.000000
    28  H    3.642583   1.089876   0.000000
    29  H    3.647185   1.086124   1.775061   0.000000
    30  H    4.202649   1.088219   1.775942   1.778934   0.000000
    31  C    5.626529   5.874451   6.926881   5.770013   5.778179
    32  H    6.673759   6.790160   7.852786   6.707830   6.578567
    33  H    5.703556   5.864393   6.924337   5.560963   5.863341
    34  H    5.213769   6.074698   7.066355   6.048780   6.109235
    35  C    6.076430   4.903792   5.973008   4.809561   4.434474
    36  H    6.057709   4.810321   5.885763   4.477360   4.475777
    37  H    7.067413   5.972816   7.032904   5.885207   5.445706
    38  H    6.106053   4.433176   5.444708   4.475649   3.767410
    39  H    2.696100   3.886294   4.755096   3.789656   4.326714
    40  H    7.564661   7.086458   7.391474   8.030993   6.500626
                   31         32         33         34         35
    31  C    0.000000
    32  H    1.090289   0.000000
    33  H    1.085328   1.771927   0.000000
    34  H    1.086081   1.780311   1.776151   0.000000
    35  C    2.421464   2.684447   2.612125   3.368257   0.000000
    36  H    2.677379   3.083146   2.404825   3.646118   1.085976
    37  H    2.626279   2.423789   2.900092   3.643901   1.089827
    38  H    3.370462   3.656689   3.631434   4.202383   1.088218
    39  H    3.052275   4.135861   3.016891   2.764862   3.936205
    40  H    7.643171   7.839650   8.554869   7.574724   7.079461
                   36         37         38         39         40
    36  H    0.000000
    37  H    1.774649   0.000000
    38  H    1.778592   1.776217   0.000000
    39  H    3.841237   4.813561   4.358809   0.000000
    40  H    8.025637   7.380644   6.490678   7.641443   0.000000
 Stoichiometry    C12H23N3OPt(2+)
 Framework group  C1[X(C12H23N3OPt)]
 Deg. of freedom   114
 Full point group                 C1      NOp   1
 Largest Abelian subgroup         C1      NOp   1
 Largest concise Abelian subgroup C1      NOp   1
                         Standard orientation:                         
 ---------------------------------------------------------------------
 Center     Atomic      Atomic             Coordinates (Angstroms)
 Number     Number       Type             X           Y           Z
 ---------------------------------------------------------------------
      1         78           0       -0.914385    0.005316   -0.088044
      2          6           0        1.709021    1.172297   -0.134041
      3          6           0        1.702929   -1.181215   -0.142896
      4          6           0        3.071755    1.208051    0.006506
      5          6           0        3.065682   -1.224385   -0.003097
      6          6           0        3.759889   -0.010080    0.080091
      7          1           0        3.606850    2.144982    0.046277
      8          1           0        3.596042   -2.164222    0.030942
      9          8           0        5.078476   -0.013298    0.218271
     10          7           0        1.076640   -0.003227   -0.183859
     11          6           0        0.801065    2.347500   -0.380462
     12          1           0        0.790210    2.519505   -1.456794
     13          1           0        1.160895    3.256306    0.099456
     14          6           0        0.789098   -2.347558   -0.390086
     15          1           0        0.769528   -2.513940   -1.467251
     16          1           0        1.146616   -3.260952    0.082765
     17          7           0       -0.619589    2.084293    0.046445
     18          7           0       -0.627108   -2.076233    0.048339
     19          6           0       -3.123733   -0.041250    0.197412
     20          1           0       -2.947370   -0.014844    1.275190
     21          1           0       -3.706221    0.847864   -0.028316
     22          1           0       -3.668423   -0.932792   -0.101660
     23          6           0       -1.521298    2.928083   -0.773137
     24          1           0       -2.538001    2.824715   -0.408007
     25          1           0       -1.218457    3.972140   -0.690530
     26          1           0       -1.469863    2.611106   -1.810688
     27          6           0       -0.771270    2.457115    1.480810
     28          1           0       -0.571181    3.521840    1.599788
     29          1           0       -1.785966    2.243806    1.804160
     30          1           0       -0.065220    1.889828    2.084052
     31          6           0       -1.537621   -2.916905   -0.764583
     32          1           0       -1.239748   -3.962431   -0.681650
     33          1           0       -2.551640   -2.806685   -0.393701
     34          1           0       -1.490216   -2.602619   -1.803115
     35          6           0       -0.771715   -2.446676    1.483919
     36          1           0       -1.784672   -2.233547    1.812304
     37          1           0       -0.570646   -3.511063    1.603809
     38          1           0       -0.063136   -1.877582    2.082471
     39          1           0       -2.086180    0.043406   -1.266605
     40          1           0        5.528597   -0.006798   -0.630754
 ---------------------------------------------------------------------
 Rotational constants (GHZ):           0.5429780           0.3349073           0.2277847
 Standard basis: def2TZVPP (5D, 7F)
 There are   992 symmetry adapted cartesian basis functions of A   symmetry.
 There are   874 symmetry adapted basis functions of A   symmetry.
   874 basis functions,  1307 primitive gaussians,   992 cartesian basis functions
    70 alpha electrons       70 beta electrons
       nuclear repulsion energy      1574.4113574574 Hartrees.
 NAtoms=   40 NActive=   40 NUniq=   40 SFac= 1.00D+00 NAtFMM=   60 NAOKFM=F Big=F
 Integral buffers will be    131072 words long.
 Raffenetti 2 integral format.
 Two-electron integral symmetry is turned on.
 Nuclear repulsion after empirical dispersion term =     1574.3666976644 Hartrees.
 ------------------------------------------------------------------------------
 Polarizable Continuum Model (PCM)
 =================================
 Model                : PCM.
 Atomic radii         : UFF (Universal Force Field).
 Polarization charges : Total charges.
 Charge compensation  : None.
 Solution method      : On-the-fly selection.
 Cavity type          : Scaled VdW (van der Waals Surface) (Alpha=1.100).
 Cavity algorithm     : GePol (No added spheres)
                        Default sphere list used, NSphG=   40.
                        Lebedev-Laikov grids with approx.  5.0 points / Ang**2.
                        Smoothing algorithm: York/Karplus (Gamma=1.0000).
                        Polarization charges: spherical gaussians, with
                                              point-specific exponents (IZeta= 3).
                        Self-potential: point-specific (ISelfS= 7).
                        Self-field    : sphere-specific E.n sum rule (ISelfD= 2).
 1st derivatives      : Analytical E(r).r(x)/FMM algorithm (CHGder, D1EAlg=3).
                        Cavity 1st derivative terms included.
 Solvent              : Dichloromethane, Eps=   8.930000 Eps(inf)=   2.028346
 ------------------------------------------------------------------------------
 One-electron integrals computed using PRISM.
   1 Symmetry operations used in ECPInt.
 ECPInt:  NShTT=   54615 NPrTT=  140092 LenC2=   49261 LenP2D=   96466.
 LDataN:  DoStor=T MaxTD1= 9 Len=  602
 NBasis=   874 RedAO= T EigKep=  1.63D-05  NBF=   874
 NBsUse=   874 1.00D-06 EigRej= -1.00D+00 NBFU=   874
 Defaulting to unpruned grid for atomic number  78.
 ExpMin= 4.92D-02 ExpMax= 2.70D+04 ExpMxC= 9.22D+02 IAcc=3 IRadAn=         5 AccDes= 0.00D+00
 Harris functional with IExCor= 4639 and IRadAn=       5 diagonalized for initial guess.
 HarFok:  IExCor= 4639 AccDes= 0.00D+00 IRadAn=         5 IDoV= 1 UseB2=F ITyADJ=14
 ICtDFT=  3500011 ScaDFX=  1.000000  1.000000  1.000000  1.000000
 Defaulting to unpruned grid for atomic number  78.
 FoFCou: FMM=F IPFlag=           0 FMFlag=      100000 FMFlg1=           0
         NFxFlg=           0 DoJE=T BraDBF=F KetDBF=T FulRan=T
         wScrn=  0.000000 ICntrl=       500 IOpCl=  0 I1Cent=   200000004 NGrid=           0
         NMat0=    1 NMatS0=      1 NMatT0=    0 NMatD0=    1 NMtDS0=    0 NMtDT0=    0
 Petite list used in FoFCou.
 Requested convergence on RMS density matrix=1.00D-08 within 128 cycles.
 Requested convergence on MAX density matrix=1.00D-06.
 Requested convergence on             energy=1.00D-06.
 No special actions if energy rises.
 Defaulting to unpruned grid for atomic number  78.
 Defaulting to unpruned grid for atomic number  78.
 Defaulting to unpruned grid for atomic number  78.
 Defaulting to unpruned grid for atomic number  78.
 Defaulting to unpruned grid for atomic number  78.
 Defaulting to unpruned grid for atomic number  78.
 Defaulting to unpruned grid for atomic number  78.
 Defaulting to unpruned grid for atomic number  78.
 Defaulting to unpruned grid for atomic number  78.
 Defaulting to unpruned grid for atomic number  78.
 Defaulting to unpruned grid for atomic number  78.
 Defaulting to unpruned grid for atomic number  78.
 Defaulting to unpruned grid for atomic number  78.
 Defaulting to unpruned grid for atomic number  78.
 Defaulting to unpruned grid for atomic number  78.
 Defaulting to unpruned grid for atomic number  78.
 Defaulting to unpruned grid for atomic number  78.
 Defaulting to unpruned grid for atomic number  78.
 Defaulting to unpruned grid for atomic number  78.
 Defaulting to unpruned grid for atomic number  78.
 Defaulting to unpruned grid for atomic number  78.
 Defaulting to unpruned grid for atomic number  78.
 Defaulting to unpruned grid for atomic number  78.
 Defaulting to unpruned grid for atomic number  78.
 Defaulting to unpruned grid for atomic number  78.
 Defaulting to unpruned grid for atomic number  78.
 Defaulting to unpruned grid for atomic number  78.
 Defaulting to unpruned grid for atomic number  78.
 Defaulting to unpruned grid for atomic number  78.
 Defaulting to unpruned grid for atomic number  78.
 Defaulting to unpruned grid for atomic number  78.
 Defaulting to unpruned grid for atomic number  78.
 Defaulting to unpruned grid for atomic number  78.
 Defaulting to unpruned grid for atomic number  78.
 Defaulting to unpruned grid for atomic number  78.
 Defaulting to unpruned grid for atomic number  78.
 Defaulting to unpruned grid for atomic number  78.
 Defaulting to unpruned grid for atomic number  78.
 Defaulting to unpruned grid for atomic number  78.
 Defaulting to unpruned grid for atomic number  78.
 Defaulting to unpruned grid for atomic number  78.
 Defaulting to unpruned grid for atomic number  78.
 Defaulting to unpruned grid for atomic number  78.
 Defaulting to unpruned grid for atomic number  78.
 Defaulting to unpruned grid for atomic number  78.
 Defaulting to unpruned grid for atomic number  78.
 Defaulting to unpruned grid for atomic number  78.
 Defaulting to unpruned grid for atomic number  78.
 Inv3:  Mode=1 IEnd=    19400547.
 Iteration    1 A*A^-1 deviation from unit magnitude is 3.55D-15 for    205.
 Iteration    1 A*A^-1 deviation from orthogonality  is 1.78D-15 for   2376   1374.
 Iteration    1 A^-1*A deviation from unit magnitude is 2.89D-15 for    205.
 Iteration    1 A^-1*A deviation from orthogonality  is 2.36D-15 for   1772    834.
 Error on total polarization charges =  0.02120
 SCF Done:  E(RwB97XD) =  -829.739839873     A.U. after   17 cycles
            NFock= 17  Conv=0.32D-08     -V/T= 2.1111

 **********************************************************************

            Population analysis using the SCF Density.

 **********************************************************************

 Orbital symmetries:
       Occupied  (A) (A) (A) (A) (A) (A) (A) (A) (A) (A) (A) (A)
                 (A) (A) (A) (A) (A) (A) (A) (A) (A) (A) (A) (A)
                 (A) (A) (A) (A) (A) (A) (A) (A) (A) (A) (A) (A)
                 (A) (A) (A) (A) (A) (A) (A) (A) (A) (A) (A) (A)
                 (A) (A) (A) (A) (A) (A) (A) (A) (A) (A) (A) (A)
                 (A) (A) (A) (A) (A) (A) (A) (A) (A) (A)
       Virtual   (A) (A) (A) (A) (A) (A) (A) (A) (A) (A) (A) (A)
                 (A) (A) (A) (A) (A) (A) (A) (A) (A) (A) (A) (A)
                 (A) (A) (A) (A) (A) (A) (A) (A) (A) (A) (A) (A)
                 (A) (A) (A) (A) (A) (A) (A) (A) (A) (A) (A) (A)
                 (A) (A) (A) (A) (A) (A) (A) (A) (A) (A) (A) (A)
                 (A) (A) (A) (A) (A) (A) (A) (A) (A) (A) (A) (A)
                 (A) (A) (A) (A) (A) (A) (A) (A) (A) (A) (A) (A)
                 (A) (A) (A) (A) (A) (A) (A) (A) (A) (A) (A) (A)
                 (A) (A) (A) (A) (A) (A) (A) (A) (A) (A) (A) (A)
                 (A) (A) (A) (A) (A) (A) (A) (A) (A) (A) (A) (A)
                 (A) (A) (A) (A) (A) (A) (A) (A) (A) (A) (A) (A)
                 (A) (A) (A) (A) (A) (A) (A) (A) (A) (A) (A) (A)
                 (A) (A) (A) (A) (A) (A) (A) (A) (A) (A) (A) (A)
                 (A) (A) (A) (A) (A) (A) (A) (A) (A) (A) (A) (A)
                 (A) (A) (A) (A) (A) (A) (A) (A) (A) (A) (A) (A)
                 (A) (A) (A) (A) (A) (A) (A) (A) (A) (A) (A) (A)
                 (A) (A) (A) (A) (A) (A) (A) (A) (A) (A) (A) (A)
                 (A) (A) (A) (A) (A) (A) (A) (A) (A) (A) (A) (A)
                 (A) (A) (A) (A) (A) (A) (A) (A) (A) (A) (A) (A)
                 (A) (A) (A) (A) (A) (A) (A) (A) (A) (A) (A) (A)
                 (A) (A) (A) (A) (A) (A) (A) (A) (A) (A) (A) (A)
                 (A) (A) (A) (A) (A) (A) (A) (A) (A) (A) (A) (A)
                 (A) (A) (A) (A) (A) (A) (A) (A) (A) (A) (A) (A)
                 (A) (A) (A) (A) (A) (A) (A) (A) (A) (A) (A) (A)
                 (A) (A) (A) (A) (A) (A) (A) (A) (A) (A) (A) (A)
                 (A) (A) (A) (A) (A) (A) (A) (A) (A) (A) (A) (A)
                 (A) (A) (A) (A) (A) (A) (A) (A) (A) (A) (A) (A)
                 (A) (A) (A) (A) (A) (A) (A) (A) (A) (A) (A) (A)
                 (A) (A) (A) (A) (A) (A) (A) (A) (A) (A) (A) (A)
                 (A) (A) (A) (A) (A) (A) (A) (A) (A) (A) (A) (A)
                 (A) (A) (A) (A) (A) (A) (A) (A) (A) (A) (A) (A)
                 (A) (A) (A) (A) (A) (A) (A) (A) (A) (A) (A) (A)
                 (A) (A) (A) (A) (A) (A) (A) (A) (A) (A) (A) (A)
                 (A) (A) (A) (A) (A) (A) (A) (A) (A) (A) (A) (A)
                 (A) (A) (A) (A) (A) (A) (A) (A) (A) (A) (A) (A)
                 (A) (A) (A) (A) (A) (A) (A) (A) (A) (A) (A) (A)
                 (A) (A) (A) (A) (A) (A) (A) (A) (A) (A) (A) (A)
                 (A) (A) (A) (A) (A) (A) (A) (A) (A) (A) (A) (A)
                 (A) (A) (A) (A) (A) (A) (A) (A) (A) (A) (A) (A)
                 (A) (A) (A) (A) (A) (A) (A) (A) (A) (A) (A) (A)
                 (A) (A) (A) (A) (A) (A) (A) (A) (A) (A) (A) (A)
                 (A) (A) (A) (A) (A) (A) (A) (A) (A) (A) (A) (A)
                 (A) (A) (A) (A) (A) (A) (A) (A) (A) (A) (A) (A)
                 (A) (A) (A) (A) (A) (A) (A) (A) (A) (A) (A) (A)
                 (A) (A) (A) (A) (A) (A) (A) (A) (A) (A) (A) (A)
                 (A) (A) (A) (A) (A) (A) (A) (A) (A) (A) (A) (A)
                 (A) (A) (A) (A) (A) (A) (A) (A) (A) (A) (A) (A)
                 (A) (A) (A) (A) (A) (A) (A) (A) (A) (A) (A) (A)
                 (A) (A) (A) (A) (A) (A) (A) (A) (A) (A) (A) (A)
                 (A) (A) (A) (A) (A) (A) (A) (A) (A) (A) (A) (A)
                 (A) (A) (A) (A) (A) (A) (A) (A) (A) (A) (A) (A)
                 (A) (A) (A) (A) (A) (A) (A) (A) (A) (A) (A) (A)
                 (A) (A) (A) (A) (A) (A) (A) (A) (A) (A) (A) (A)
                 (A) (A) (A) (A) (A) (A) (A) (A) (A) (A) (A) (A)
                 (A) (A) (A) (A) (A) (A) (A) (A) (A) (A) (A) (A)
                 (A) (A) (A) (A) (A) (A) (A) (A) (A) (A) (A) (A)
                 (A) (A) (A) (A) (A) (A) (A) (A) (A) (A) (A) (A)
                 (A) (A) (A) (A) (A) (A) (A) (A) (A) (A) (A) (A)
                 (A) (A) (A) (A) (A) (A) (A) (A) (A) (A) (A) (A)
                 (A) (A) (A) (A) (A) (A) (A) (A) (A) (A) (A) (A)
                 (A) (A) (A) (A) (A) (A) (A) (A) (A) (A) (A) (A)
                 (A) (A) (A) (A) (A) (A) (A) (A) (A) (A) (A) (A)
                 (A) (A) (A) (A) (A) (A) (A) (A) (A) (A) (A) (A)
                 (A) (A) (A) (A) (A) (A) (A) (A) (A) (A) (A) (A)
                 (A) (A) (A) (A) (A) (A) (A) (A) (A) (A) (A) (A)
                 (A) (A) (A) (A) (A) (A) (A) (A) (A) (A) (A) (A)
                 (A) (A) (A) (A) (A) (A) (A) (A) (A) (A) (A) (A)
 The electronic state is 1-A.
 Alpha  occ. eigenvalues --  -19.32109 -14.58024 -14.57990 -14.55310 -10.43016
 Alpha  occ. eigenvalues --  -10.41418 -10.41398 -10.39271 -10.39249 -10.36487
 Alpha  occ. eigenvalues --  -10.36477 -10.36087 -10.36071 -10.35499 -10.35494
 Alpha  occ. eigenvalues --  -10.35123  -4.14127  -2.38368  -2.38277  -2.35823
 Alpha  occ. eigenvalues --   -1.22633  -1.16522  -1.12530  -1.11931  -0.98251
 Alpha  occ. eigenvalues --   -0.96579  -0.90155  -0.87695  -0.87544  -0.87294
 Alpha  occ. eigenvalues --   -0.83958  -0.80595  -0.80137  -0.77133  -0.76981
 Alpha  occ. eigenvalues --   -0.70539  -0.68281  -0.67570  -0.66166  -0.64344
 Alpha  occ. eigenvalues --   -0.64326  -0.63339  -0.62755  -0.62604  -0.60313
 Alpha  occ. eigenvalues --   -0.58533  -0.58011  -0.57028  -0.56792  -0.56616
 Alpha  occ. eigenvalues --   -0.55614  -0.54729  -0.54422  -0.53578  -0.52956
 Alpha  occ. eigenvalues --   -0.52270  -0.51919  -0.51785  -0.51545  -0.51496
 Alpha  occ. eigenvalues --   -0.51155  -0.49699  -0.46443  -0.44414  -0.44006
 Alpha  occ. eigenvalues --   -0.43926  -0.42160  -0.42051  -0.40399  -0.39142
 Alpha virt. eigenvalues --   -0.06127  -0.02705  -0.01656  -0.01160   0.05585
 Alpha virt. eigenvalues --    0.07599   0.08359   0.09420   0.09929   0.10762
 Alpha virt. eigenvalues --    0.11134   0.11317   0.12002   0.12459   0.13018
 Alpha virt. eigenvalues --    0.13209   0.13504   0.13786   0.14428   0.14490
 Alpha virt. eigenvalues --    0.15447   0.15553   0.16609   0.16980   0.17258
 Alpha virt. eigenvalues --    0.17676   0.17990   0.18162   0.18664   0.19274
 Alpha virt. eigenvalues --    0.19689   0.20427   0.20567   0.21637   0.21769
 Alpha virt. eigenvalues --    0.22430   0.22907   0.23217   0.24273   0.25115
 Alpha virt. eigenvalues --    0.25648   0.26389   0.26881   0.27144   0.28065
 Alpha virt. eigenvalues --    0.28201   0.28768   0.29234   0.30497   0.30581
 Alpha virt. eigenvalues --    0.30760   0.31630   0.32030   0.32760   0.32928
 Alpha virt. eigenvalues --    0.33682   0.34038   0.34236   0.35212   0.35947
 Alpha virt. eigenvalues --    0.36460   0.36555   0.37093   0.37939   0.38384
 Alpha virt. eigenvalues --    0.39339   0.39974   0.40299   0.40796   0.41523
 Alpha virt. eigenvalues --    0.41969   0.42120   0.42830   0.43456   0.44033
 Alpha virt. eigenvalues --    0.44352   0.44432   0.44463   0.44935   0.45654
 Alpha virt. eigenvalues --    0.45771   0.46452   0.46608   0.46834   0.47130
 Alpha virt. eigenvalues --    0.47355   0.47916   0.48202   0.48259   0.48874
 Alpha virt. eigenvalues --    0.49079   0.49972   0.50345   0.50714   0.51056
 Alpha virt. eigenvalues --    0.52139   0.52563   0.52773   0.53431   0.53785
 Alpha virt. eigenvalues --    0.54302   0.55026   0.55513   0.55644   0.56510
 Alpha virt. eigenvalues --    0.56824   0.57408   0.57502   0.58517   0.59472
 Alpha virt. eigenvalues --    0.59503   0.59943   0.60997   0.61645   0.62252
 Alpha virt. eigenvalues --    0.62435   0.63782   0.64585   0.65055   0.65285
 Alpha virt. eigenvalues --    0.67204   0.67864   0.68793   0.68961   0.69803
 Alpha virt. eigenvalues --    0.70196   0.70363   0.70611   0.71005   0.71234
 Alpha virt. eigenvalues --    0.73464   0.74148   0.75499   0.75650   0.77209
 Alpha virt. eigenvalues --    0.77819   0.78896   0.79119   0.80218   0.80395
 Alpha virt. eigenvalues --    0.81260   0.81846   0.82527   0.83965   0.85126
 Alpha virt. eigenvalues --    0.85688   0.86313   0.86694   0.86717   0.87057
 Alpha virt. eigenvalues --    0.87493   0.88399   0.89888   0.90088   0.90401
 Alpha virt. eigenvalues --    0.91074   0.92370   0.93715   0.93978   0.94408
 Alpha virt. eigenvalues --    0.94959   0.95662   0.96294   0.96974   0.97199
 Alpha virt. eigenvalues --    0.97440   0.98650   0.98725   0.99381   0.99842
 Alpha virt. eigenvalues --    1.00351   1.01098   1.01339   1.01844   1.03190
 Alpha virt. eigenvalues --    1.03507   1.04036   1.04308   1.04451   1.05642
 Alpha virt. eigenvalues --    1.06582   1.06855   1.07695   1.08069   1.08444
 Alpha virt. eigenvalues --    1.09317   1.10218   1.10303   1.11257   1.12619
 Alpha virt. eigenvalues --    1.12649   1.13338   1.14793   1.15185   1.15895
[...]
 81548,-0.00036363,-0.00009176,-0.00053932,0.00034778,-0.00081895,0.000
 05965,0.00003933,0.00001165,0.00023177,0.00014859,-0.00056844,-0.00054
 635,0.00003764,-0.00001464,-0.00003120,-0.00000452,-0.00001864,-0.0000
 0060,-0.00000147,0.00001408,0.00000263,-0.00000289,-0.00000706,-0.0000
 0209,0.00005244,0.00010276,0.00003611,0.00000846,0.00002088,0.00000194
 ,0.00001849,-0.00004648,-0.00000502,-0.00002478,-0.00002182,-0.0000049
 3,0.00035825,-0.00027239,0.00058053,0.00013699,-0.00003932,-0.00006977
 ,-0.00019029,0.00022726,0.00074537,-0.00012636,-0.00011381,-0.00006944
 ,0.05849594,-0.06248716,0.01958817,-0.06006578,0.06337483,-0.00077954,
 0.00035888,-0.00013748,-0.00006299,-0.00009571,-0.00003550,0.00020552,
 0.00061723,-0.00042419,0.00005232,-0.00007399,-0.00000461,-0.00016893,
 -0.00027688,0.00009477,0.00003329,0.00014577,0.00001920,0.00000352,-0.
 00000301,0.00000263,0.00001517,0.00000275,-0.00001839,-0.00005671,-0.0
 0003586,0.00000316,0.00015291,-0.00012905,0.00005923,-0.00000559,-0.00
 003707,0.00000717,-0.00000058,-0.00000525,0.00000147,-0.00000811,-0.00
 000448,-0.00000474,0.00107411,-0.00103261,-0.00596522,-0.00191480,0.00
 010138,-0.00042447,0.00018078,0.00001335,-0.00000815,-0.00007118,-0.00
 024291,-0.00009475,-0.03313630,0.00554791,-0.01572656,-0.00036868,0.00
 002512,-0.00008905,0.00023637,-0.00009370,-0.00033789,0.00003921,0.000
 12361,0.00003725,0.00036018,-0.00060741,-0.00059186,-0.00003600,-0.000
 01431,0.00002107,0.00000469,-0.00001368,0.00000086,0.00001637,-0.00000
 906,-0.00000952,0.00000151,-0.00000566,-0.00000594,-0.00000333,0.00001
 245,-0.00003195,0.00000224,-0.00000017,0.00000244,-0.00000141,0.000000
 96,0.00001544,0.00000482,0.00000006,0.00000486,-0.00217191,-0.00039950
 ,0.00120422,0.00017479,0.00002982,-0.00008262,0.00027008,0.00028737,-0
 .00095141,0.00018273,-0.00022660,0.00025093,-0.06905038,0.01626054,-0.
 07321273,0.08581382,-0.01540235,0.08737728,0.00028319,0.00067836,0.000
 26712,0.00013936,0.00018045,-0.00002103,-0.00029877,-0.00034322,0.0000
 5752,-0.00011961,0.00005995,0.00001714,0.00014171,0.00009792,0.0000252
 9,-0.00000961,-0.00017471,0.00000160,-0.00000075,0.00000367,0.00000868
 ,-0.00002321,-0.00000492,-0.00001770,0.00000884,0.00002646,-0.00000056
 ,-0.00026029,0.00006325,-0.00031176,0.00000896,-0.00001164,0.00000481,
 -0.00000094,-0.00000174,-0.00000017,-0.00000346,0.00000721,0.00000590,
 0.00080893,-0.00202477,-0.00068387,0.00005187,0.00007542,0.00011508,-0
 .00089952,0.00045927,-0.00038433,-0.00009880,-0.00000787,0.00006216,-0
 .00021742,-0.00301297,-0.00103829,-0.00009773,0.00018308,0.00001375,0.
 00018991,-0.00014216,0.00010774,-0.00001678,-0.00000701,0.00005775,0.0
 0007508,-0.00007750,-0.00005101,0.,0.00003190,-0.00000741,0.00000359,-
 0.00000492,-0.00000017,0.00000208,0.00000673,0.00000607,0.00000136,-0.
 00000136,-0.00000182,-0.00002613,-0.00004140,0.00002976,0.00001086,-0.
 00000691,0.00000031,-0.00000286,-0.00000514,0.00000184,0.00001232,0.00
 000316,0.00000022,0.00003622,0.00069218,0.00019154,0.00002233,0.000266
 77,0.00014821,-0.00010572,0.00018815,-0.00009109,-0.00010624,-0.000221
 51,-0.00007512,-0.05925816,0.05111389,0.00503590,-0.00309909,0.0285256
 3,0.00368860,0.05801548,0.00022033,0.00183275,-0.00059524,0.00008620,0
 .00014576,-0.00006617,0.00004076,-0.00021505,0.00005570,-0.00009019,0.
 00005915,0.00001637,-0.00004996,-0.00002195,0.00001891,0.00013462,-0.0
 0004354,0.00000139,-0.00000919,-0.00000218,0.00000548,-0.00001730,-0.0
 0000490,-0.00000879,-0.00013965,0.00000437,0.00000993,-0.00005756,0.00
 009165,-0.00016393,0.00013314,-0.00002913,0.00007833,-0.00000570,0.000
 00618,-0.00000687,-0.00003762,-0.00001181,-0.00000875,0.00051786,0.000
 54419,0.00097883,-0.00016004,0.00034287,0.00016388,-0.00046020,-0.0004
 1606,-0.00052505,0.00003825,-0.00020443,0.00026733,0.00102747,-0.00768
 897,-0.00507309,-0.00017562,0.00007143,0.00001908,-0.00001452,0.000030
 72,0.00001520,0.00001964,-0.00001345,0.00000069,0.00001381,0.00001909,
 0.00000429,-0.00011217,0.00001956,0.00009070,0.00000843,0.00000602,-0.
 00000115,0.00001720,-0.00003858,-0.00002088,0.00000520,0.00001514,-0.0
 0000304,-0.00008300,-0.00019568,-0.00012219,0.00000635,-0.00002587,0.0
 0005268,-0.00000385,0.00001936,0.00000267,0.00001860,0.00001942,0.0000
 0477,-0.00042908,0.00137075,0.00088887,0.00081785,-0.00092141,0.000682
 08,0.00004370,-0.00013776,-0.00007465,-0.00004343,0.00029687,0.0001025
 1,0.05017674,-0.30909651,-0.02819920,-0.00033451,-0.00384123,0.0000115
 7,-0.05505161,0.33185957,-0.00054504,0.00158924,-0.00428869,0.00002765
 ,-0.00004388,-0.00000195,-0.00030585,0.00005301,0.00005091,-0.00004029
 ,0.00008998,-0.00000079,-0.00004306,0.00001383,0.00001553,0.00002227,-
 0.00003620,0.00000405,-0.00000217,-0.00000351,-0.00000564,-0.00001269,
 -0.00000382,0.00000933,-0.00005207,0.00000866,0.00000189,0.00032307,0.
 00023314,0.00007359,0.00031881,-0.00006557,0.00017500,-0.00001999,0.00
 000941,-0.00001551,-0.00009322,-0.00001411,-0.00002043,0.00241700,-0.0
 0185441,0.00051325,0.00017224,0.00017267,0.00020989,-0.00063416,0.0003
 6220,-0.00001072,-0.00007148,-0.00100501,0.00091787,0.00537421,-0.0377
 8073,-0.01682220,-0.00032855,0.00029362,0.00000585,0.00015780,-0.00010
 884,0.00005653,0.00004256,-0.00001307,0.00005426,0.00013754,-0.0000528
 0,0.00000484,-0.00023139,0.00005149,0.00020011,0.00002169,0.00000073,-
 0.00000619,0.00004786,-0.00007666,-0.00004815,0.00001372,0.00002083,-0
 .00002386,-0.00010643,-0.00033760,-0.00029822,0.00000041,-0.00005550,0
 .00016900,0.00000982,-0.00000497,0.00000181,-0.00001428,-0.00001145,-0
 .00000469,-0.00061853,-0.00272439,0.00155206,-0.00030199,0.00164160,0.
 00030079,0.00006133,0.00021308,-0.00008430,-0.00019650,0.00038204,0.00
 028786,0.00351805,-0.01976130,-0.05039318,-0.00050471,0.00962973,0.002
 01668,-0.00423968,0.03315034,0.06219125,-0.00002012,0.00134162,0.00211
 677,0.00031896,0.00035015,-0.00008028,0.00084399,-0.00049375,-0.000618
 75,-0.00025515,0.00012624,0.00002929,0.00018003,0.00023058,0.00003885,
 -0.00000980,-0.00034207,-0.00001865,-0.00000768,0.00000595,0.00001763,
 -0.00001616,0.00000209,-0.00000238,-0.00000208,0.00004934,-0.00000184,
 -0.00213549,-0.00107600,-0.00255787,0.00003892,0.00000858,0.00002270,-
 0.00000962,0.00000285,-0.00000255,-0.00000129,0.00000036,0.00000648,0.
 00063086,0.00053709,-0.00043424,0.00006643,0.00005502,0.00013912,0.000
 05973,0.00012779,-0.00003909,-0.00001550,0.00003808,0.00002463,0.00310
 055,0.00404010,-0.00436446,-0.00003516,-0.00003750,0.00010552,0.000037
 35,-0.00005291,0.00000042,0.00001615,0.00006170,-0.00000721,0.00011567
 ,0.00000563,-0.00006666,-0.00001970,0.00002314,-0.00000222,-0.00000192
 ,-0.00000197,0.00000279,0.00000057,-0.00000336,0.00000340,0.00000195,0
 .00000392,0.00000235,-0.00007568,-0.00002857,0.00002767,0.00001219,-0.
 00001892,-0.00001507,-0.00001488,0.00002978,0.00000950,0.00008655,0.00
 003172,0.00003412,0.00011108,0.00006011,-0.00080462,-0.00005915,-0.000
 10408,-0.00000328,0.00043968,0.00003251,-0.00014120,0.00057906,-0.0000
 9864,-0.00010126,-0.17437077,-0.10102553,0.09576798,-0.01547620,-0.016
 29132,0.01539219,0.00488496,0.00426828,-0.00430973,0.18135889,0.002351
 37,0.00002318,-0.00212618,-0.00006032,-0.00003316,0.00002401,0.0001242
 0,0.00071654,-0.00030681,0.00004600,-0.00004806,-0.00000648,0.00008678
 ,-0.00003331,-0.00000519,-0.00001716,0.00003684,0.00001004,0.00000571,
 -0.00000061,0.00000421,0.00001930,0.,0.00001743,0.00003666,-0.00001212
 ,-0.00001268,-0.00350534,-0.00025313,-0.00072110,-0.00007456,0.0000015
 2,-0.00001991,0.00000911,-0.00000312,0.00000509,0.00001278,0.00000204,
 0.00000190,-0.00015104,0.00025387,0.00063231,0.00014382,-0.00012789,-0
 .00006184,-0.00014885,-0.00030920,0.00002743,-0.00002164,0.00016318,-0
 .00001657,0.00885205,0.00573424,-0.00726717,-0.00019075,0.00001463,0.0
 0002046,0.00001580,-0.00000165,0.00001567,0.00000282,-0.00001134,0.000
 02965,-0.00006122,0.00000714,-0.00000076,0.00004550,0.00001119,-0.0000
 1993,-0.00000147,-0.00000346,-0.00000172,-0.00001130,0.00001491,0.0000
 0678,-0.00000317,-0.00000314,0.00000028,0.00009036,0.00015247,0.000107
 77,-0.00000320,0.00001988,0.00001284,0.00001362,-0.00002617,-0.0000050
 1,-0.00004345,-0.00013998,-0.00001388,-0.00038750,-0.00005446,-0.00113
 681,0.00005458,0.00043063,-0.00036288,-0.00005433,-0.00018230,-0.00006
 966,0.00008720,0.00064387,-0.00031057,-0.09991951,-0.13282462,0.079084
 93,0.00552807,0.00430020,-0.00495739,-0.02134447,-0.01369171,0.0159518
 6,0.10837634,0.13524145,0.00128471,-0.00039696,-0.00101853,0.00003511,
 -0.00012791,-0.00002298,-0.00099588,-0.00030370,-0.00003188,0.00001162
 ,0.00008251,-0.00002515,-0.00000809,0.00008052,0.00004576,-0.00026400,
 -0.00013940,-0.00000027,0.00000638,0.00000370,0.00000044,0.00000219,0.
 00000235,0.00000532,0.00019764,0.00003039,-0.00001408,-0.00229217,-0.0
 0038615,-0.00175281,0.00010895,-0.00005063,0.00007697,-0.00002733,0.00
 000835,-0.00000688,-0.00003264,0.00000423,-0.00000749,0.00129995,0.000
 43318,0.00075258,0.00009599,-0.00000362,0.00015295,-0.00020078,0.00015
 063,-0.00007580,-0.00006318,-0.00033729,-0.00014714,0.02341605,0.01817
 798,-0.02254817,0.00002297,0.00002548,-0.00008342,-0.00002719,-0.00005
 152,-0.00000782,-0.00001059,-0.00000350,0.00000801,-0.00002331,0.00002
 095,-0.00000925,-0.00005865,-0.00004370,0.00002074,0.00000015,0.000001
 39,0.00000182,0.00002059,-0.00001852,-0.00001559,0.00000659,-0.0000067
 5,-0.00001273,-0.00001639,0.00001574,-0.00004198,-0.00000040,-0.000005
 06,-0.00000506,-0.00000029,0.00000748,0.00000682,0.00003389,0.00000818
 ,0.00005857,-0.00222167,-0.00315206,-0.00551696,-0.00013670,0.00004184
 ,0.00006929,0.00001260,-0.00014571,0.00014559,0.00120580,0.00123030,-0
 .00084689,0.08773306,0.07110038,-0.11877965,-0.00632130,-0.00647263,0.
 00704728,-0.00289157,-0.00169754,0.00317838,-0.09993970,-0.07852141,0.
 13935326,-0.05535535,-0.00122827,0.12707318,0.00018574,0.00188343,-0.0
 0019222,0.00011609,-0.00186692,-0.00025724,-0.00039344,-0.00004454,0.0
 0037509,-0.00039226,0.00006166,0.00036257,0.00046802,-0.00003633,-0.00
 015742,-0.00007333,-0.00000420,0.00007612,-0.00006898,0.00000457,0.000
 07861,-0.00043252,-0.00001344,0.00001972,-0.00573110,-0.00007870,-0.01
 060476,-0.00036045,0.00029790,-0.00102169,0.00010141,-0.00014660,0.000
 05032,0.00017821,0.00009314,0.00001407,-0.00036686,-0.00020767,-0.0010
 6433,0.00011305,0.00013845,0.00005372,0.00017156,-0.00009688,0.0000164
 3,0.00101708,0.00055976,0.00073828,0.00142881,-0.00017362,0.00057571,-
 0.01111041,0.00015163,0.00108751,0.00499564,0.00009603,-0.00001751,-0.
 00228789,-0.00076195,-0.00193811,-0.00155740,0.00098403,-0.00131140,0.
 00092952,-0.00012602,-0.00000666,-0.00011076,0.00019197,-0.00011684,-0
 .00022411,0.00018482,0.00001111,0.00045460,0.00022378,0.00031106,0.000
 68239,-0.00030906,0.00077261,-0.00004411,0.00033514,-0.00000194,0.0002
 1936,-0.00007696,-0.00009532,-0.00036565,-0.00010016,0.00004759,0.0008
 4459,0.00002629,-0.00006898,-0.00022007,-0.00016651,0.00001806,-0.0001
 1177,-0.00017506,-0.00011004,0.00041689,-0.00041524,0.00071262,0.00065
 189,0.00035384,0.00077158,0.00023248,0.00007221,-0.00007007,-0.0000526
 7,-0.00033481,0.00000098,-0.00036287,0.00009700,0.00006091,0.06638950,
 -0.00110676,-0.03412825,0.00014994,0.00005713,-0.00032470,0.00054906,-
 0.00006843,-0.00024554,-0.00055856,0.00035186,-0.00013830,-0.00007286,
 -0.00033778,-0.00013166,0.00006099,0.00000740,0.00048062,0.00000736,0.
 00000968,0.00000295,-0.00005436,-0.00000370,0.00000092,0.00005205,0.00
 000309,-0.00006779,-0.00000686,0.00015283,0.00356246,-0.00006610,-0.00
 026822,0.00049617,-0.00035843,-0.00011221,-0.00004071,-0.00000193,0.00
 018171,0.00001656,-0.00001606,0.00036053,0.00044853,0.00046430,0.00011
 720,-0.00006376,-0.00001515,-0.00019141,0.00002558,0.00001621,-0.00162
 528,0.00415646,0.00610443,0.00179911,0.00389226,-0.00616961,0.00025420
 ,0.00076641,0.00005148,-0.00004586,-0.00069033,-0.00009701,0.00157916,
 0.00019652,0.00143879,-0.00131274,0.00027729,-0.00135579,0.00046088,-0
 .00047892,0.00003813,0.00005591,-0.00007016,-0.00000757,-0.00002385,0.
 00030607,-0.00000315,0.00002562,-0.00000129,-0.00171500,-0.00025585,-0
 .00011542,-0.00033040,0.00017115,-0.00017784,-0.00007944,-0.00006001,0
 .00008471,-0.00011590,0.00024322,-0.00000758,-0.00046299,-0.00060369,-
 0.00032134,0.00003854,0.00005195,0.00031238,-0.00000828,-0.00004513,-0
 .00005296,0.00001577,-0.00023555,-0.00066621,0.00165975,0.00022177,-0.
 00008194,0.00029303,0.00004900,0.00008452,0.00012518,-0.00017540,-0.00
 016418,0.00008206,-0.00023232,-0.00000696,0.00045522,0.00056285,0.0228
 6156,0.11811374,0.00006925,-0.20114992,0.00032246,0.00087303,0.0001040
 6,0.00027630,-0.00087710,0.00008298,-0.00039088,0.00020503,0.00004247,
 -0.00036910,-0.00017905,0.00003745,0.00057743,-0.00005159,-0.00002096,
 -0.00004685,-0.00000637,-0.00000045,-0.00003798,0.00000602,-0.00000044
 ,-0.00067257,-0.00001802,0.00004369,-0.00256092,-0.00059214,-0.0015509
 3,-0.00063208,-0.00036765,0.00022455,0.00006678,-0.00004001,-0.0000096
 5,0.00005973,-0.00001660,-0.00003583,-0.00077608,0.00070081,0.00034663
 ,0.00007195,0.00003448,-0.00000448,0.00005560,0.00001425,-0.00003503,0
 .00049059,-0.00059962,0.00120127,0.00054432,0.00084161,0.00126315,0.00
 033302,0.00007951,-0.00665243,-0.00168971,-0.00011660,0.00171731,0.000
 15830,0.00029160,0.00013820,0.00003502,-0.00023938,-0.00004104,0.00033
 256,0.00010733,-0.00024202,-0.00001413,0.00006782,-0.00009114,-0.00005
 881,0.00000010,0.00000311,0.00029443,-0.00159585,0.00035849,0.00049324
 ,0.00080034,-0.00020362,-0.00003363,0.00005163,0.00003572,0.00017152,-
 0.00011917,-0.00001306,-0.00022858,0.00002510,0.00004223,0.00032396,-0
 .00000472,-0.00018838,-0.00006430,0.00000911,0.00001363,-0.00001892,-0
 .00007141,-0.00010185,0.00064027,0.00155341,0.00043786,0.00044371,-0.0
 0082829,-0.00022308,0.00018562,0.00011409,-0.00000384,-0.00002964,-0.0
 0005231,0.00003688,-0.00023570,-0.00001508,0.00004687,-0.11618258,-0.0
 0011205,0.20439297,-0.00067427,-0.00003563,-0.00028193,-0.00149795,-0.
 00121356,0.00015771,-0.00055763,-0.00178037,0.00038680,0.00432662,-0.0
 0204674,-0.00071385,-0.00445264,0.00325428,0.00052673,-0.03267517,-0.0
 4547016,0.00100874,0.00110784,0.00202128,0.00054712,0.00010771,0.00008
 375,-0.00008219,-0.12154367,-0.15021181,0.00335692,0.00178318,0.001148
 29,-0.00007480,-0.00003209,0.00030331,-0.00012586,0.00013159,-0.000046
 50,0.00002381,0.00002827,0.00002244,0.00002399,-0.00031819,0.00019839,
 -0.00019136,0.00008953,0.00003254,0.00003338,0.00003859,0.00002642,0.0
 0000378,0.00016109,-0.00013810,-0.00003785,-0.00007282,-0.00001463,0.0
 0005005,0.00000664,-0.00002501,0.00009053,0.00007478,0.00000068,0.0000
 1136,0.00004872,-0.00000206,0.00001485,0.00004673,0.00000471,0.0000110
 5,0.00002317,0.00009785,0.00013186,0.00003771,-0.00001684,-0.00001508,
 -0.00001318,-0.00000934,-0.00000548,-0.00001207,0.00000540,0.00000770,
 0.00002082,0.00004046,-0.00010586,-0.00000859,-0.00001220,0.00000084,0
 .00001370,-0.00000027,0.00001600,-0.00001114,-0.00000485,-0.00003155,-
 0.00005645,-0.00003352,0.00004984,0.00000012,0.00001499,-0.00000741,0.
 00000957,-0.00000666,0.00000141,-0.00000487,-0.00000616,0.00000493,-0.
 00001249,-0.00000182,-0.00005755,0.00000812,-0.00000809,0.00000126,0.0
 0000070,0.00001558,0.00000477,0.00000563,0.00000021,-0.00002333,0.0000
 2516,-0.00001206,0.00005192,0.15384721,-0.00052831,0.00001954,-0.00033
 250,-0.00119815,-0.00143355,0.00005964,-0.00171362,0.00070205,0.000095
 87,0.00630800,0.00246904,0.00011742,0.00328863,0.00264925,-0.00022699,
 0.00132965,0.00435107,0.00001782,-0.00017989,-0.00059697,-0.00076015,0
 .00017250,0.00032937,-0.00003585,-0.20317464,-0.44610304,0.00259514,0.
 00155504,-0.00018791,0.00003867,0.00002186,0.00009503,-0.00005703,0.00
 003740,0.00001092,0.00001526,0.00003463,-0.00003728,0.00000689,-0.0000
 2964,-0.00005994,-0.00006153,0.00003882,-0.00001368,0.00001645,0.00000
 979,-0.00000468,0.00000462,0.00001227,-0.00004076,0.00001918,0.0000409
 7,0.00003058,0.00001318,-0.00001122,0.00000584,0.00012925,0.00007073,0
 .00000300,0.00000240,0.00002568,-0.00000310,0.00000084,0.00002987,0.00
 000025,0.00000592,-0.00001794,0.00003006,0.00004918,0.00000999,-0.0000
 0040,-0.00000489,0.00000173,-0.00001209,-0.00000287,-0.00000259,0.0000
 0720,0.00000337,-0.00001242,-0.00000289,-0.00005558,0.00000451,-0.0000
 1644,0.00000488,0.00000135,0.00000310,0.00000391,0.00000562,0.00000879
 ,-0.00001332,-0.00000990,-0.00003833,0.00005310,-0.00000347,0.00000807
 ,-0.00000382,0.00001364,0.00000149,-0.00000446,-0.00000507,-0.00000441
 ,0.00000363,0.00000099,-0.00000679,-0.00005671,0.00000719,-0.00000416,
 0.00000268,-0.00000222,0.00000955,0.00000429,-0.00000203,-0.00000138,-
 0.00001674,0.00004445,0.00000388,0.00005850,0.19382580,0.43782974,0.00
 003174,-0.00000407,0.00000877,0.00004477,0.00010478,-0.00065513,0.0001
 2469,0.00022060,0.00186114,-0.00039850,0.00033702,-0.00145074,0.000745
 46,-0.00022306,0.00431369,0.00191422,0.00292857,-0.00315118,0.00043196
 ,-0.00088654,-0.00057783,-0.00004614,-0.00004344,-0.00059225,0.0020254
 2,-0.00060218,-0.00888056,-0.00011929,-0.00016382,-0.00002044,0.000023
 73,-0.00001056,0.00015462,-0.00001728,0.00002873,-0.00000189,0.0000098
 4,-0.00001010,0.00000373,-0.00002434,0.00001582,-0.00049335,0.00008949
 ,0.00009458,-0.00000645,-0.00002216,-0.00004047,0.00002118,0.00000630,
 -0.00001040,0.00000828,-0.00002870,-0.00003626,-0.00005983,0.00000754,
 0.00000153,0.00000037,-0.00000382,-0.00000160,-0.00000076,-0.00000205,
 -0.00000177,-0.00000024,-0.00000332,0.00000010,-0.00000101,-0.00001009
 ,0.00000032,0.00000098,-0.00000207,0.00000006,-0.00000077,0.00000245,0
 .00000016,0.00000259,0.00000564,-0.00000097,-0.00000639,-0.00000119,-0
 .00000707,0.00002575,-0.00000258,0.00000372,0.00000271,0.00000136,0.00
 000154,-0.00000459,-0.00000070,-0.00001243,-0.00000232,0.00000332,-0.0
 0000221,-0.00000630,-0.00000010,-0.00000152,0.00000111,-0.00000143,0.0
 0000142,0.00000434,0.00000203,0.00000176,0.00000081,-0.00001563,-0.000
 00108,0.00002616,-0.00000012,-0.00000034,-0.00000507,-0.00000178,-0.00
 000275,-0.00000309,0.00000535,0.00000635,-0.00000011,-0.00001076,0.000
 00523,-0.00000138,-0.00476324,-0.00168968,0.00948547\\-0.00000106,-0.0
 0000914,0.00004201,0.00000424,0.00000111,-0.00002467,0.00000388,0.0000
 0085,-0.00002701,0.00000629,-0.00000058,-0.00005558,0.00000347,0.00000
 081,-0.00005705,0.00000198,-0.00000078,-0.00006915,0.00000230,-0.00000
 109,-0.00006516,0.00000179,-0.00000047,-0.00006853,0.00000064,-0.00000
 015,-0.00009218,0.00001751,-0.00000930,-0.00001281,0.00000711,-0.00000
 168,-0.00000685,0.00003248,-0.00000221,-0.00001221,0.00000206,-0.00000
 006,-0.00001864,0.00000556,-0.00000101,-0.00000278,0.00003526,0.000000
 49,-0.00001410,0.00000183,-0.00000020,-0.00002046,-0.00000599,0.000006
 14,0.00001778,0.00000891,-0.00000589,0.00000815,0.00000494,-0.00000046
 ,0.00004754,-0.00004044,0.00000039,0.00005586,0.00001084,0.00000229,0.
 00007087,0.00000106,0.00000169,0.00006273,0.00001592,-0.00000158,0.000
 02146,0.00000542,0.00000109,0.00004851,0.00001538,-0.00000121,0.000024
 03,0.00003655,-0.00000425,0.00002736,-0.00002943,0.00001037,0.00000985
 ,-0.00002451,0.00000033,0.00001097,-0.00003123,0.00000677,0.00003194,-
 0.00003857,-0.00000004,0.00000154,0.00000685,0.00000238,0.00002049,0.0
 0001025,-0.00000075,0.00001663,0.00000490,0.00000247,0.00004774,0.0000
 3846,-0.00000199,0.00002569,-0.00003369,0.00000147,0.00000251,-0.00003
 209,-0.00000060,0.00002391,-0.00003025,0.00000487,0.00000673,-0.000042
 27,-0.00000067,-0.00000661,0.00002372,0.00000159,0.00002899,-0.0000000
 6,-0.00000098,-0.00009950\\\@
 The archive entry for this job was punched.


 YOU CAN WIPE THE SLATE CLEAN, BUT YOU'LL STILL
 HAVE TO EAT A LITTLE CHALK DUST.
 Job cpu time:       2 days 14 hours 57 minutes 25.0 seconds.
 Elapsed time:       0 days  1 hours 19 minutes 18.2 seconds.
 File lengths (MBytes):  RWF=   2368 Int=      0 D2E=      0 Chk=     72 Scr=      1
 Normal termination of Gaussian 16 at Fri Apr  5 19:18:59 2024.
