 Entering Gaussian System, Link 0=/cm/shared/apps//g16/g16
 Input=QST2_ZIrMeH_sigma_ZIrMeH.gjf
 Output=QST2_ZIrMeH_sigma_ZIrMeH.log
 Initial command:
 /cm/shared/apps//g16/l1.exe "/local/mvanvleet/pbs.14070.josephine/Gau-377277.inp" -scrdir="/local/mvanvleet/pbs.14070.josephine/"
 Entering Link 1 = /cm/shared/apps//g16/l1.exe PID=    377280.
  
 Copyright (c) 1988-2019, Gaussian, Inc.  All Rights Reserved.
  
 This is part of the Gaussian(R) 16 program.  It is based on
 the Gaussian(R) 09 system (copyright 2009, Gaussian, Inc.),
 the Gaussian(R) 03 system (copyright 2003, Gaussian, Inc.),
 the Gaussian(R) 98 system (copyright 1998, Gaussian, Inc.),
 the Gaussian(R) 94 system (copyright 1995, Gaussian, Inc.),
 the Gaussian 92(TM) system (copyright 1992, Gaussian, Inc.),
 the Gaussian 90(TM) system (copyright 1990, Gaussian, Inc.),
 the Gaussian 88(TM) system (copyright 1988, Gaussian, Inc.),
 the Gaussian 86(TM) system (copyright 1986, Carnegie Mellon
 University), and the Gaussian 82(TM) system (copyright 1983,
 Carnegie Mellon University). Gaussian is a federally registered
 trademark of Gaussian, Inc.
  
 This software contains proprietary and confidential information,
 including trade secrets, belonging to Gaussian, Inc.
  
 This software is provided under written license and may be
 used, copied, transmitted, or stored only in accord with that
 written license.
  
 The following legend is applicable only to US Government
 contracts under FAR:
  
                    RESTRICTED RIGHTS LEGEND
  
 Use, reproduction and disclosure by the US Government is
 subject to restrictions as set forth in subparagraphs (a)
 and (c) of the Commercial Computer Software - Restricted
 Rights clause in FAR 52.227-19.
  
 Gaussian, Inc.
 340 Quinnipiac St., Bldg. 40, Wallingford CT 06492
  
  
 ---------------------------------------------------------------
 Warning -- This program may not be used in any manner that
 competes with the business of Gaussian, Inc. or will provide
 assistance to any competitor of Gaussian, Inc.  The licensee
 of this program is prohibited from giving any competitor of
 Gaussian, Inc. access to this program.  By using this program,
 the user acknowledges that Gaussian, Inc. is engaged in the
 business of creating and licensing software in the field of
 computational chemistry and represents and warrants to the
 licensee that it is not a competitor of Gaussian, Inc. and that
 it will not use this program in any manner prohibited above.
 ---------------------------------------------------------------
  

 Cite this work as:
 Gaussian 16, Revision C.01,
 M. J. Frisch, G. W. Trucks, H. B. Schlegel, G. E. Scuseria, 
 M. A. Robb, J. R. Cheeseman, G. Scalmani, V. Barone, 
 G. A. Petersson, H. Nakatsuji, X. Li, M. Caricato, A. V. Marenich, 
 J. Bloino, B. G. Janesko, R. Gomperts, B. Mennucci, H. P. Hratchian, 
 J. V. Ortiz, A. F. Izmaylov, J. L. Sonnenberg, D. Williams-Young, 
 F. Ding, F. Lipparini, F. Egidi, J. Goings, B. Peng, A. Petrone, 
 T. Henderson, D. Ranasinghe, V. G. Zakrzewski, J. Gao, N. Rega, 
 G. Zheng, W. Liang, M. Hada, M. Ehara, K. Toyota, R. Fukuda, 
 J. Hasegawa, M. Ishida, T. Nakajima, Y. Honda, O. Kitao, H. Nakai, 
 T. Vreven, K. Throssell, J. A. Montgomery, Jr., J. E. Peralta, 
 F. Ogliaro, M. J. Bearpark, J. J. Heyd, E. N. Brothers, K. N. Kudin, 
 V. N. Staroverov, T. A. Keith, R. Kobayashi, J. Normand, 
 K. Raghavachari, A. P. Rendell, J. C. Burant, S. S. Iyengar, 
 J. Tomasi, M. Cossi, J. M. Millam, M. Klene, C. Adamo, R. Cammi, 
 J. W. Ochterski, R. L. Martin, K. Morokuma, O. Farkas, 
 J. B. Foresman, and D. J. Fox, Gaussian, Inc., Wallingford CT, 2019.
 
 ******************************************
 Gaussian 16:  ES64L-G16RevC.01  3-Jul-2019
                 8-Mar-2024 
 ******************************************
 %nprocshared=48
 Will use up to   48 processors via shared memory.
 %chk=QST2_ZIrMeH_sigma_ZIrMeH.chk
 %mem=16GB
 ---------------------------------------------------------------
 # wb97xd def2TZVPP SCRF=(solvent=dichloromethane) opt=qst2 freq
 ---------------------------------------------------------------
 1/5=1,18=20,26=3,27=202,38=1/1,3;
 2/9=110,12=2,17=6,18=5,40=1/2;
 3/5=44,7=202,11=2,25=1,30=1,70=2201,71=1,72=9,74=-58/1,2,3;
 4//1;
 5/5=2,38=5,53=9/2;
 6/7=2,8=2,9=2,10=2,28=1/1;
 7//1,2,3,16;
 1/5=1,18=20,26=3,27=202/3(2);
 2/9=110/2;
 99//99;
 2/9=110/2;
 3/5=44,7=202,11=2,25=1,30=1,70=2205,71=1,72=9,74=-58/1,2,3;
 4/5=5,16=3,69=1/1;
 5/5=2,38=5,53=9/2;
 7//1,2,3,16;
 1/5=1,18=20,26=3,27=202/3(-5);
 2/9=110/2;
 6/7=2,8=2,9=2,10=2,19=2,28=1/1;
 99/9=1/99;
 -----------------------
 ts_xyz/ZIrMeH_sigma.xyz
 -----------------------
 Symbolic Z-matrix:
 Charge =  0 Multiplicity = 1
 C                    -1.71978  -1.16905  -0.19473 
 C                    -1.71978   1.16905  -0.19473 
 C                    -3.06928  -1.21586  -0.00808 
 C                    -3.06927   1.21586  -0.00808 
 C                    -3.83922   0.00001   0.12019 
 H                    -3.58581  -2.16554   0.03465 
 H                    -3.5858    2.16555   0.03465 
 O                    -5.07441   0.00001   0.31157 
 N                    -1.05529   0.       -0.25573 
 C                    -0.8199   -2.34074  -0.47914 
 H                    -0.76065  -2.44656  -1.56298 
 H                    -1.21555  -3.27344  -0.07257 
 C                    -0.81989   2.34075  -0.47914 
 H                    -0.76064   2.44656  -1.56298 
 H                    -1.21554   3.27344  -0.07257 
 N                     0.57542  -2.11152   0.01463 
 N                     0.57543   2.11152   0.01463 
 C                     3.24431   0.        0.42317 
 H                     2.73319  -0.00001   1.38669 
 H                     3.86129  -0.89179   0.34323 
 H                     3.86129   0.8918    0.34325 
 C                     1.50014  -2.94564  -0.77259 
 H                     2.50622  -2.82976  -0.37661 
 H                     1.21544  -4.00093  -0.71604 
 H                     1.48641  -2.61806  -1.80878 
 C                     0.6478   -2.53421   1.42996 
 H                     0.43837  -3.60514   1.51502 
 H                     1.64253  -2.33157   1.8188 
 H                    -0.08054  -1.97818   2.01511 
 C                     1.50015   2.94564  -0.77259 
 H                     1.21545   4.00092  -0.71604 
 H                     2.50623   2.82975  -0.37661 
 H                     1.48641   2.61805  -1.80878 
 C                     0.64781   2.5342    1.42996 
 H                     1.64254   2.33156   1.81879 
 H                     0.43839   3.60514   1.51502 
 H                    -0.08053   1.97818   2.01512 
 H                     2.62059   0.00001  -0.56336 
 Ir                    0.89167   0.       -0.09189 
 
 -----------------
 ts_xyz/ZIrMeH.xyz
 -----------------
 Symbolic Z-matrix:
 Charge =  0 Multiplicity = 1
 C                    -1.72432  -1.16882  -0.28111 
 C                    -1.72432   1.16882  -0.28111 
 C                    -3.06006  -1.22081  -0.0121 
 C                    -3.06006   1.22081  -0.0121 
 C                    -3.82219   0.        0.14428 
 H                    -3.57126  -2.16843   0.09354 
 H                    -3.57126   2.16843   0.09354 
 O                    -5.04414   0.        0.4033 
 N                    -1.07865   0.       -0.41153 
 C                    -0.80315  -2.336    -0.53746 
 H                    -0.69295  -2.43541  -1.61769 
 H                    -1.2078   -3.2736   -0.15318 
 C                    -0.80315   2.336    -0.53747 
 H                    -0.69295   2.43541  -1.61769 
 H                    -1.2078    3.2736   -0.15318 
 N                     0.57682  -2.11235   0.01924 
 N                     0.57682   2.11235   0.01924 
 C                     2.95      0.        0.53994 
 H                     2.99785   0.        1.64129 
 H                     3.52914  -0.87468   0.21746 
 H                     3.52914   0.87467   0.21746 
 C                     1.52587  -2.97505  -0.70605 
 H                     2.51438  -2.85612  -0.27145 
 H                     1.22292  -4.0236   -0.63559 
 H                     1.55861  -2.67384  -1.74949 
 C                     0.58152  -2.49777   1.44789 
 H                     0.32599  -3.55417   1.5594 
 H                     1.5702   -2.31745   1.86266 
 H                    -0.15056  -1.90052   1.99074 
 C                     1.52587   2.97505  -0.70605 
 H                     1.22292   4.0236   -0.63559 
 H                     2.51438   2.85612  -0.27144 
 H                     1.55861   2.67384  -1.74949 
 C                     0.58152   2.49777   1.44789 
 H                     1.57019   2.31745   1.86266 
 H                     0.32599   3.55417   1.5594 
 H                    -0.15056   1.90052   1.99074 
 H                     1.42637   0.       -1.53262 
 Ir                    0.93768   0.       -0.08254 
 
 Iteration  1 RMS(Cart)=  0.05191486 RMS(Int)=  0.38591531
 Iteration  2 RMS(Cart)=  0.03308905 RMS(Int)=  0.37003124
 Iteration  3 RMS(Cart)=  0.02658896 RMS(Int)=  0.36030299
 Iteration  4 RMS(Cart)=  0.02209085 RMS(Int)=  0.35539987
 Iteration  5 RMS(Cart)=  0.00689633 RMS(Int)=  0.35225502
 Iteration  6 RMS(Cart)=  0.00316109 RMS(Int)=  0.34962984
 Iteration  7 RMS(Cart)=  0.00274420 RMS(Int)=  0.34737660
 Iteration  8 RMS(Cart)=  0.00238184 RMS(Int)=  0.34543795
 Iteration  9 RMS(Cart)=  0.00206559 RMS(Int)=  0.34376952
 Iteration 10 RMS(Cart)=  0.00178966 RMS(Int)=  0.34233375
 Iteration 11 RMS(Cart)=  0.00154923 RMS(Int)=  0.34109835
 Iteration 12 RMS(Cart)=  0.00134004 RMS(Int)=  0.34003544
 Iteration 13 RMS(Cart)=  0.00115829 RMS(Int)=  0.33912101
 Iteration 14 RMS(Cart)=  0.00100057 RMS(Int)=  0.33833434
 Iteration 15 RMS(Cart)=  0.00086386 RMS(Int)=  0.33765761
 Iteration 16 RMS(Cart)=  0.00074547 RMS(Int)=  0.33707547
 Iteration 17 RMS(Cart)=  0.00064304 RMS(Int)=  0.33657468
 Iteration 18 RMS(Cart)=  0.00055449 RMS(Int)=  0.33614390
 Iteration 19 RMS(Cart)=  0.00047797 RMS(Int)=  0.33577333
 Iteration 20 RMS(Cart)=  0.00041191 RMS(Int)=  0.33545455
 Iteration 21 RMS(Cart)=  0.00035489 RMS(Int)=  0.33518033
 Iteration 22 RMS(Cart)=  0.00030570 RMS(Int)=  0.33494444
 Iteration 23 RMS(Cart)=  0.00026329 RMS(Int)=  0.33474151
 Iteration 24 RMS(Cart)=  0.00022672 RMS(Int)=  0.33456695
 Iteration 25 RMS(Cart)=  0.00019520 RMS(Int)=  0.33441678
 Iteration 26 RMS(Cart)=  0.00016805 RMS(Int)=  0.33428759
 Iteration 27 RMS(Cart)=  0.00014466 RMS(Int)=  0.33417646
 Iteration 28 RMS(Cart)=  0.00012452 RMS(Int)=  0.33408086
 Iteration 29 RMS(Cart)=  0.00010717 RMS(Int)=  0.33399861
 Iteration 30 RMS(Cart)=  0.00009223 RMS(Int)=  0.33392786
 Iteration 31 RMS(Cart)=  0.00007937 RMS(Int)=  0.33386700
 Iteration 32 RMS(Cart)=  0.00006830 RMS(Int)=  0.33381464
 Iteration 33 RMS(Cart)=  0.00005878 RMS(Int)=  0.33376959
 Iteration 34 RMS(Cart)=  0.00005057 RMS(Int)=  0.33373084
 Iteration 35 RMS(Cart)=  0.00004352 RMS(Int)=  0.33369751
 Iteration 36 RMS(Cart)=  0.00003744 RMS(Int)=  0.33366883
 Iteration 37 RMS(Cart)=  0.00003222 RMS(Int)=  0.33364416
 Iteration 38 RMS(Cart)=  0.00002772 RMS(Int)=  0.33362293
 Iteration 39 RMS(Cart)=  0.00002385 RMS(Int)=  0.33360467
 Iteration 40 RMS(Cart)=  0.00002052 RMS(Int)=  0.33358896
 Iteration 41 RMS(Cart)=  0.00001765 RMS(Int)=  0.33357545
 Iteration 42 RMS(Cart)=  0.00001519 RMS(Int)=  0.33356383
 Iteration 43 RMS(Cart)=  0.00001307 RMS(Int)=  0.33355383
 Iteration 44 RMS(Cart)=  0.00001124 RMS(Int)=  0.33354522
 Iteration 45 RMS(Cart)=  0.00000967 RMS(Int)=  0.33353782
 Iteration 46 RMS(Cart)=  0.00000832 RMS(Int)=  0.33353145
 Iteration 47 RMS(Cart)=  0.00000716 RMS(Int)=  0.33352597
 Iteration 48 RMS(Cart)=  0.00000616 RMS(Int)=  0.33352126
 Iteration 49 RMS(Cart)=  0.00000530 RMS(Int)=  0.33351721
 Iteration 50 RMS(Cart)=  0.00000456 RMS(Int)=  0.33351372
 Iteration 51 RMS(Cart)=  0.00000392 RMS(Int)=  0.33351072
 Iteration 52 RMS(Cart)=  0.00000337 RMS(Int)=  0.33350814
 Iteration 53 RMS(Cart)=  0.00000290 RMS(Int)=  0.33350592
 Iteration 54 RMS(Cart)=  0.00000250 RMS(Int)=  0.33350401
 Iteration 55 RMS(Cart)=  0.00000215 RMS(Int)=  0.33350236
 Iteration 56 RMS(Cart)=  0.00000185 RMS(Int)=  0.33350095
 Iteration 57 RMS(Cart)=  0.00000159 RMS(Int)=  0.33349973
 Iteration 58 RMS(Cart)=  0.00000137 RMS(Int)=  0.33349869
 Iteration 59 RMS(Cart)=  0.00000118 RMS(Int)=  0.33349779
 Iteration 60 RMS(Cart)=  0.00000101 RMS(Int)=  0.33349701
 Iteration 61 RMS(Cart)=  0.00000087 RMS(Int)=  0.33349635
 Iteration  1 RMS(Cart)=  0.00000075 RMS(Int)=  0.33349577
 Iteration  1 RMS(Cart)=  0.00000064 RMS(Int)=  0.33349528
 Iteration  1 RMS(Cart)=  0.00000055 RMS(Int)=  0.33349486
 Iteration  1 RMS(Cart)=  0.00000048 RMS(Int)=  0.33349449
 Iteration  1 RMS(Cart)=  0.00000041 RMS(Int)=  0.33349418
 Iteration  1 RMS(Cart)=  0.00000035 RMS(Int)=  0.33349391
 Iteration  1 RMS(Cart)=  0.00000030 RMS(Int)=  0.33349367
 Iteration  1 RMS(Cart)=  0.00000026 RMS(Int)=  0.33349348
 Iteration  1 RMS(Cart)=  0.00000022 RMS(Int)=  0.33349330
   Var     Old X     New X   DQ Goal   DQ Act.  Rel. Err.   Overall
     1    2.5760    2.5763    0.0004    0.0003
     2    2.5437    2.5372   -0.0042   -0.0066
     3    2.8431    2.8499    0.0041    0.0068
     4    2.5760    2.5763    0.0004    0.0003
     5    2.5437    2.5372   -0.0042   -0.0065
     6    2.8431    2.8500    0.0041    0.0068
     7    2.7304    2.7347    0.0026    0.0043
     8    2.0445    2.0445   -0.0000   -0.0000
     9    2.7304    2.7346    0.0026    0.0043
    10    2.0445    2.0445   -0.0000   -0.0000
    11    2.3620    2.3612   -0.0008   -0.0008
    12    3.6922    3.7581    0.0842    0.0658    0.7815
    13    2.0609    2.0607   -0.0002   -0.0002
    14    2.0630    2.0624   -0.0005   -0.0005
    15    2.8303    2.8492    0.0066    0.0188
    16    2.0609    2.0607   -0.0002   -0.0002
    17    2.0630    2.0624   -0.0005   -0.0005
    18    2.8303    2.8492    0.0066    0.0189
    19    2.7841    2.7842    0.0001    0.0001
    20    2.7947    2.7955    0.0008    0.0008
    21    4.0397    4.0454    0.0072    0.0057
    22    2.7841    2.7842    0.0001    0.0001
    23    2.7947    2.7955    0.0008    0.0008
    24    4.0397    4.0453    0.0072    0.0056
    25    2.0611    2.0722    0.0110    0.0110    1.0000
    26    2.0548    2.0644    0.0096    0.0096
    27    2.0548    2.0644    0.0096    0.0096
    28    2.2056    3.5918    1.3277    1.3862    1.0440
    29    4.5511    4.2407   -0.2853   -0.3104    1.0880
    30    2.0549    2.0539   -0.0010   -0.0010
    31    2.0683    2.0675   -0.0007   -0.0007
    32    2.0538    2.0535   -0.0003   -0.0003
    33    2.0684    2.0665   -0.0018   -0.0018
    34    2.0543    2.0544    0.0001    0.0001
    35    2.0545    2.0568    0.0023    0.0023
    36    2.0683    2.0675   -0.0007   -0.0007
    37    2.0549    2.0539   -0.0010   -0.0010
    38    2.0538    2.0535   -0.0003   -0.0003
    39    2.0543    2.0544    0.0001    0.0001
    40    2.0684    2.0665   -0.0019   -0.0019
    41    2.0546    2.0568    0.0023    0.0023
    42    3.3865    3.1058   -0.2474   -0.2807    1.1347
    43    2.1232    2.1247   -0.0005    0.0015
    44    2.2034    2.2062    0.0067    0.0028
    45    1.9525    1.9439   -0.0048   -0.0087
    46    2.1232    2.1246   -0.0005    0.0014
    47    2.2034    2.2062    0.0067    0.0027
    48    1.9525    1.9439   -0.0048   -0.0086
    49    2.1069    2.0925   -0.0034   -0.0144
    50    2.1039    2.0803    0.0043   -0.0236
    51    2.0723    2.0456   -0.0008   -0.0267
    52    2.1069    2.0925   -0.0034   -0.0144
    53    2.1039    2.0803    0.0043   -0.0236
    54    2.0723    2.0456   -0.0008   -0.0267
    55    2.0002    2.0094    0.0033    0.0092
    56    2.1415    2.1127   -0.0016   -0.0288
    57    2.1415    2.1127   -0.0017   -0.0288
    58    2.1043    2.1115    0.0055    0.0072
    59    2.0807    2.0661   -0.0163   -0.0146    0.8949
    60    2.0807    2.0660   -0.0163   -0.0147    0.9016
    61    1.8712    1.8872    0.0024    0.0159
    62    1.9586    1.9511    0.0002   -0.0075
    63    1.9560    1.9500    0.0034   -0.0059
    64    1.8827    1.8821    0.0006   -0.0007
    65    1.8670    1.8623   -0.0023   -0.0047
    66    1.9237    1.9272   -0.0043    0.0035
    67    1.8712    1.8871    0.0024    0.0159
    68    1.9586    1.9511    0.0002   -0.0075
    69    1.9560    1.9500    0.0034   -0.0059
    70    1.8827    1.8821    0.0006   -0.0007
    71    1.8670    1.8623   -0.0023   -0.0046
    72    1.9237    1.9272   -0.0043    0.0035
    73    1.8986    1.9018   -0.0002    0.0033
    74    1.8937    1.8986    0.0021    0.0048
    75    1.8468    1.8447    0.0055   -0.0021
    76    1.8953    1.8929    0.0010   -0.0024
    77    2.0261    2.0226    0.0028   -0.0035
    78    1.8994    1.9000   -0.0111    0.0006   -0.0502
    79    1.8986    1.9019   -0.0002    0.0033
    80    1.8937    1.8986    0.0021    0.0049
    81    1.8469    1.8447    0.0055   -0.0022
    82    1.8953    1.8929    0.0010   -0.0024
    83    2.0261    2.0227    0.0028   -0.0034
    84    1.8994    1.9000   -0.0111    0.0006   -0.0515
    85    1.9080    1.8824   -0.0316   -0.0256    0.8109
    86    1.9080    1.8824   -0.0316   -0.0256    0.8111
    87    2.0901    2.3663    0.2305    0.2762    1.1983
    88    1.2986    1.5670    0.3078    0.2684    0.8719
    89    1.9233    1.8882   -0.0394   -0.0352    0.8928
    90    1.8143    1.7022   -0.0838   -0.1121    1.3378
    91    2.1395    2.0957   -0.0691   -0.0438    0.6340
    92    1.8143    1.7021   -0.0838   -0.1121    1.3383
    93    2.1395    2.0957   -0.0691   -0.0438    0.6336
    94    1.9027    1.9023   -0.0004   -0.0004
    95    1.9337    1.9317   -0.0020   -0.0020
    96    1.9080    1.9075   -0.0006   -0.0006
    97    1.9014    1.9049    0.0035    0.0035
    98    1.9037    1.9035   -0.0002   -0.0002
    99    1.9141    1.9138   -0.0003   -0.0003
   100    1.9227    1.9253    0.0027    0.0026
   101    1.9112    1.9081   -0.0031   -0.0031
   102    1.9136    1.9136   -0.0000   -0.0000
   103    1.9068    1.9091    0.0023    0.0023
   104    1.9075    1.9031   -0.0044   -0.0044
   105    1.9020    1.9045    0.0026    0.0026
   106    1.9337    1.9317   -0.0020   -0.0020
   107    1.9027    1.9023   -0.0004   -0.0004
   108    1.9080    1.9075   -0.0005   -0.0005
   109    1.9014    1.9049    0.0035    0.0035
   110    1.9141    1.9138   -0.0003   -0.0003
   111    1.9037    1.9035   -0.0002   -0.0002
   112    1.9112    1.9081   -0.0031   -0.0031
   113    1.9227    1.9253    0.0027    0.0027
   114    1.9136    1.9136   -0.0000   -0.0000
   115    1.9068    1.9091    0.0024    0.0024
   116    1.9020    1.9045    0.0026    0.0026
   117    1.9075    1.9031   -0.0044   -0.0044
   118    1.4271    1.4224   -0.0077   -0.0046
   119    1.4271    1.4225   -0.0077   -0.0045
   120    3.1321    3.1322   -0.0012    0.0001
   121    3.2741    3.2672    0.0034   -0.0069
   122    2.7914    2.2888   -0.5287   -0.5026    0.9508
   123    2.8281    2.8183   -0.0189   -0.0098    0.5191
   124    1.7051    1.7098    0.0065    0.0047
   125    1.7273    1.7166   -0.0288   -0.0107    0.3718
   126    1.7051    1.7101    0.0065    0.0050
   127    1.7273    1.7166   -0.0288   -0.0107    0.3702
   128    0.4818    0.9774    0.5320    0.4957    0.9318
   129    0.0094   -0.0888   -0.0060   -0.0982
   130    3.1378    2.6636   -3.1384   -0.4742    0.1511
   131   -3.0280   -3.0786   -0.0291   -0.0506    1.7408
   132    0.1004   -0.3262   -0.0200   -0.4266   21.3761
   133   -0.0539    0.0124    0.0273    0.0662    2.4282
   134    2.8863    2.8504   -0.0765   -0.0359    0.4696
   135    2.9972    3.0229    0.0477    0.0257    0.5392
   136   -0.3458   -0.4223   -0.0561   -0.0765    1.3629
   137    1.5858    1.6140    0.0650    0.0282    0.4335
   138   -0.4784   -0.4551    0.0626    0.0233    0.3717
   139   -2.6539   -2.6249    0.0656    0.0290    0.4417
   140   -1.4602   -1.3891    0.0437    0.0711    1.6273
   141    2.7588    2.8250    0.0414    0.0662    1.6017
   142    0.5833    0.6552    0.0443    0.0719    1.6238
   143   -0.0094    0.0889    0.0060    0.0982
   144   -3.1378   -2.6636    3.1384    0.4742    0.1511
   145    3.0280    3.0787    0.0291    0.0507    1.7415
   146   -0.1004    0.3262    0.0200    0.4266   21.3828
   147    0.0539   -0.0124   -0.0273   -0.0662    2.4281
   148   -2.8863   -2.8504    0.0765    0.0359    0.4693
   149   -2.9972   -3.0229   -0.0477   -0.0257    0.5394
   150    0.3458    0.4223    0.0561    0.0764    1.3624
   151   -1.5858   -1.6140   -0.0650   -0.0282    0.4337
   152    0.4784    0.4551   -0.0626   -0.0233    0.3719
   153    2.6539    2.6249   -0.0656   -0.0290    0.4420
   154    1.4602    1.3891   -0.0437   -0.0711    1.6273
   155   -2.7588   -2.8250   -0.0414   -0.0662    1.6019
   156   -0.5833   -0.6552   -0.0443   -0.0719    1.6239
   157    0.0321    0.1546   -0.0140    0.1225   -8.7753
   158   -3.1230    2.9701   -0.0034    6.0931
   159   -3.0965   -2.6054    3.1187    0.4911    0.1575
   160    0.0316    0.2101   -0.0123    0.1785  -14.5032
   161   -0.0321   -0.1546    0.0140   -0.1225   -8.7757
   162    3.1230   -2.9701    0.0034   -6.0931
   163    3.0965    2.6054   -3.1187   -0.4911    0.1575
   164   -0.0316   -0.2101    0.0123   -0.1785  -14.5028
   165    0.0366    0.0832    0.0425    0.0467    1.0977
   166   -2.9795   -2.9292    0.0547    0.0503    0.9195
   167    1.6701    1.7185    0.0486    0.0484    0.9958
   168    2.9795    2.9293   -0.0547   -0.0503    0.9190
   169   -0.0366   -0.0832   -0.0425   -0.0466    1.0971
   170   -1.6701   -1.7186   -0.0486   -0.0485    0.9984
   171   -2.7085   -2.7387   -0.0180   -0.0302    1.6791
   172    1.5158    1.4840   -0.0202   -0.0319    1.5739
   173   -0.5201   -0.5539   -0.0112   -0.0337    3.0049
   174   -0.6624   -0.6794   -0.0146   -0.0170    1.1664
   175   -2.7213   -2.7400   -0.0168   -0.0187    1.1093
   176    1.5259    1.5054   -0.0078   -0.0206
   177    1.3800    1.3614   -0.0174   -0.0186    1.0667
   178   -0.6789   -0.6991   -0.0197   -0.0203    1.0294
   179   -2.7148   -2.7370   -0.0107   -0.0222    2.0741
   180    2.7085    2.7387    0.0180    0.0302    1.6788
   181   -1.5158   -1.4840    0.0202    0.0319    1.5737
   182    0.5201    0.5539    0.0112    0.0337    3.0028
   183    0.6625    0.6794    0.0146    0.0170    1.1663
   184    2.7213    2.7400    0.0168    0.0187    1.1091
   185   -1.5259   -1.5054    0.0078    0.0206
   186   -1.3800   -1.3614    0.0174    0.0186    1.0667
   187    0.6789    0.6991    0.0197    0.0203    1.0293
   188    2.7148    2.7370    0.0107    0.0222    2.0734
   189   -3.0802   -3.0895   -0.0044   -0.0093
   190   -0.9880   -0.9944   -0.0016   -0.0065
   191    1.1235    1.1149   -0.0036   -0.0085
   192   -1.0223   -1.0254   -0.0014   -0.0030
   193    1.0699    1.0697    0.0014   -0.0002
   194   -3.1018   -3.1041   -0.0006   -0.0023
   195    1.1235    1.1168   -0.0133   -0.0067    0.5063
   196   -3.0674   -3.0713   -0.0104   -0.0039    0.3728
   197   -0.9560   -0.9620   -0.0125   -0.0059    0.4757
   198    1.0899    1.0773   -0.0144   -0.0127    0.8811
   199   -3.0959   -3.1059   -0.0118   -0.0101    0.8548
   200   -1.0099   -1.0188   -0.0105   -0.0088    0.8377
   201   -0.9710   -0.9889   -0.0159   -0.0179    1.1283
   202    1.1264    1.1111   -0.0133   -0.0153    1.1534
   203   -3.0709   -3.0850   -0.0121   -0.0141    1.1693
   204    3.0917    3.0794   -0.0126   -0.0123    0.9739
   205   -1.0940   -1.1038   -0.0100   -0.0097    0.9670
   206    0.9919    0.9834   -0.0088   -0.0085
   207    0.2731    0.2681   -0.0166   -0.0050    0.3000
   208    0.6865    0.6805   -0.0019   -0.0059
   209   -3.0010   -2.9991   -0.0200    0.0020   -0.0982
   210   -2.5145   -2.0107    0.5168    0.5038    0.9748
   211    2.3805    2.3760   -0.0109   -0.0045    0.4125
   212    2.7939    2.7884    0.0037   -0.0055
   213   -0.8936   -0.8912   -0.0144    0.0024   -0.1690
   214   -0.4071    0.0972    0.5224    0.5043    0.9652
   215   -1.7590   -1.7687   -0.0164   -0.0097    0.5937
   216   -1.3456   -1.3563   -0.0018   -0.0107
   217    1.2501    1.2473   -0.0199   -0.0028    0.1421
   218    1.7366    2.2356    0.5169    0.4990    0.9653
   219    0.9880    0.9945    0.0016    0.0065
   220    3.0802    3.0895    0.0044    0.0093
   221   -1.1235   -1.1149    0.0036    0.0086
   222   -1.0699   -1.0697   -0.0014    0.0002
   223    1.0223    1.0254    0.0014    0.0030
   224    3.1018    3.1041    0.0006    0.0023
   225    3.0674    3.0713    0.0104    0.0039    0.3712
   226   -1.1235   -1.1168    0.0133    0.0067    0.5048
   227    0.9560    0.9619    0.0125    0.0059    0.4744
   228    3.0959    3.1059    0.0118    0.0100    0.8528
   229   -1.0899   -1.0773    0.0144    0.0126    0.8795
   230    1.0099    1.0187    0.0105    0.0088    0.8355
   231   -1.1264   -1.1111    0.0133    0.0153    1.1534
   232    0.9710    0.9889    0.0159    0.0179    1.1283
   233    3.0709    3.0850    0.0121    0.0141    1.1693
   234    1.0941    1.1038    0.0100    0.0097    0.9693
   235   -3.0917   -3.0794    0.0127    0.0123    0.9757
   236   -0.9919   -0.9834    0.0088    0.0085
   237   -0.2731   -0.2681    0.0165    0.0050    0.2994
   238   -0.6865   -0.6805    0.0019    0.0059
   239    3.0010    2.9991    0.0200   -0.0019   -0.0972
   240    2.5145    2.0107   -0.5168   -0.5038    0.9748
   241   -2.3805   -2.3760    0.0109    0.0045    0.4114
   242   -2.7939   -2.7884   -0.0037    0.0054
   243    0.8936    0.8912    0.0144   -0.0024   -0.1677
   244    0.4071   -0.0972   -0.5224   -0.5043    0.9652
   245    1.7590    1.7687    0.0164    0.0097    0.5931
   246    1.3456    1.3563    0.0018    0.0107
   247   -1.2501   -1.2472    0.0199    0.0028    0.1431
   248   -1.7366   -2.2356   -0.5169   -0.4990    0.9653
   249   -1.4897   -1.4882    0.0075    0.0015
   250    1.4897    1.4883   -0.0075   -0.0014
   251    3.1416    3.1415    0.0000   -0.0000
   252    0.3124    0.4424    0.1425    0.1299    0.9118
   253   -2.9914   -2.8644    0.1274    0.1271    0.9972
   254   -1.3395   -1.2111    0.1350    0.1284    0.9516
   255    2.9914    2.8644   -0.1274   -0.1270    0.9968
   256   -0.3124   -0.4423   -0.1425   -0.1299    0.9114
   257    1.3395    1.2110   -0.1350   -0.1285    0.9522

 GradGradGradGradGradGradGradGradGradGradGradGradGradGradGradGradGradGrad
 Berny optimization.
 Initialization pass.
                           ----------------------------
                           !    Initial Parameters    !
                           ! (Angstroms and Degrees)  !
 --------------------------                            --------------------------
 ! Name  Definition         TS        Reactant Product Derivative Info.         !
 --------------------------------------------------------------------------------
 ! R1    R(1,3)             1.3633    1.3632    1.3636 estimate D2E/DX2         !
 ! R2    R(1,9)             1.3426    1.3461    1.3417 estimate D2E/DX2         !
 ! R3    R(1,10)            1.5081    1.5045    1.5088 estimate D2E/DX2         !
 ! R4    R(2,4)             1.3633    1.3631    1.3636 estimate D2E/DX2         !
 ! R5    R(2,9)             1.3426    1.3461    1.3417 estimate D2E/DX2         !
 ! R6    R(2,13)            1.5081    1.5045    1.5088 estimate D2E/DX2         !
 ! R7    R(3,5)             1.4471    1.4449    1.4476 estimate D2E/DX2         !
 ! R8    R(3,6)             1.0819    1.0819    1.0819 estimate D2E/DX2         !
 ! R9    R(4,5)             1.4471    1.4448    1.4476 estimate D2E/DX2         !
 ! R10   R(4,7)             1.0819    1.0819    1.0819 estimate D2E/DX2         !
 ! R11   R(5,8)             1.2495    1.2499    1.2491 estimate D2E/DX2         !
 ! R12   R(9,39)            1.9887    1.9538    2.043  estimate D2E/DX2         !
 ! R13   R(10,11)           1.0905    1.0906    1.0904 estimate D2E/DX2         !
 ! R14   R(10,12)           1.0914    1.0917    1.0911 estimate D2E/DX2         !
 ! R15   R(10,16)           1.5077    1.4978    1.5047 estimate D2E/DX2         !
 ! R16   R(13,14)           1.0905    1.0906    1.0904 estimate D2E/DX2         !
 ! R17   R(13,15)           1.0914    1.0917    1.0911 estimate D2E/DX2         !
 ! R18   R(13,17)           1.5077    1.4978    1.5047 estimate D2E/DX2         !
 ! R19   R(16,22)           1.4734    1.4733    1.4734 estimate D2E/DX2         !
 ! R20   R(16,26)           1.4793    1.4789    1.4797 estimate D2E/DX2         !
 ! R21   R(16,39)           2.1407    2.1377    2.1454 estimate D2E/DX2         !
 ! R22   R(17,30)           1.4734    1.4733    1.4734 estimate D2E/DX2         !
 ! R23   R(17,34)           1.4793    1.4789    1.4797 estimate D2E/DX2         !
 ! R24   R(17,39)           2.1407    2.1377    2.1454 estimate D2E/DX2         !
 ! R25   R(18,19)           1.0965    1.0907    1.1024 estimate D2E/DX2         !
 ! R26   R(18,20)           1.0924    1.0874    1.0975 estimate D2E/DX2         !
 ! R27   R(18,21)           1.0924    1.0874    1.0975 estimate D2E/DX2         !
 ! R28   R(18,38)           1.9007    1.1672    2.5723 estimate D2E/DX2         !
 ! R29   R(18,39)           2.2441    2.4084    2.1064 estimate D2E/DX2         !
 ! R30   R(22,23)           1.0869    1.0874    1.0864 estimate D2E/DX2         !
 ! R31   R(22,24)           1.0941    1.0945    1.0937 estimate D2E/DX2         !
 ! R32   R(22,25)           1.0867    1.0868    1.0865 estimate D2E/DX2         !
 ! R33   R(26,27)           1.0935    1.0945    1.0926 estimate D2E/DX2         !
 ! R34   R(26,28)           1.0871    1.0871    1.0872 estimate D2E/DX2         !
 ! R35   R(26,29)           1.0884    1.0872    1.0896 estimate D2E/DX2         !
 ! R36   R(30,31)           1.0941    1.0945    1.0937 estimate D2E/DX2         !
 ! R37   R(30,32)           1.0869    1.0874    1.0864 estimate D2E/DX2         !
 ! R38   R(30,33)           1.0867    1.0868    1.0865 estimate D2E/DX2         !
 ! R39   R(34,35)           1.0871    1.0871    1.0872 estimate D2E/DX2         !
 ! R40   R(34,36)           1.0936    1.0945    1.0926 estimate D2E/DX2         !
 ! R41   R(34,37)           1.0884    1.0872    1.0896 estimate D2E/DX2         !
 ! R42   R(38,39)           1.6435    1.7921    1.5302 estimate D2E/DX2         !
 ! A1    A(3,1,9)         121.734   121.6501  121.5894 estimate D2E/DX2         !
 ! A2    A(3,1,10)        126.4056  126.2476  127.0197 estimate D2E/DX2         !
 ! A3    A(9,1,10)        111.3753  111.872   111.3205 estimate D2E/DX2         !
 ! A4    A(4,2,9)         121.7328  121.6502  121.5894 estimate D2E/DX2         !
 ! A5    A(4,2,13)        126.4043  126.2476  127.0198 estimate D2E/DX2         !
 ! A6    A(9,2,13)        111.3779  111.872   111.3205 estimate D2E/DX2         !
 ! A7    A(1,3,5)         119.8916  120.7176  120.3235 estimate D2E/DX2         !
 ! A8    A(1,3,6)         119.1928  120.5437  121.0331 estimate D2E/DX2         !
 ! A9    A(5,3,6)         117.2062  118.7345  118.6427 estimate D2E/DX2         !
 ! A10   A(2,4,5)         119.8923  120.7183  120.3235 estimate D2E/DX2         !
 ! A11   A(2,4,7)         119.1925  120.5435  121.0331 estimate D2E/DX2         !
 ! A12   A(5,4,7)         117.2058  118.734   118.6427 estimate D2E/DX2         !
 ! A13   A(3,5,4)         115.1301  114.6008  114.9822 estimate D2E/DX2         !
 ! A14   A(3,5,8)         121.0469  122.6969  122.5081 estimate D2E/DX2         !
 ! A15   A(4,5,8)         121.0473  122.6976  122.5081 estimate D2E/DX2         !
 ! A16   A(1,9,2)         120.9792  120.5653  121.1915 estimate D2E/DX2         !
 ! A17   A(1,9,39)        118.378   119.2163  117.3429 estimate D2E/DX2         !
 ! A18   A(2,9,39)        118.3718  119.2163  117.3429 estimate D2E/DX2         !
 ! A19   A(1,10,11)       108.1258  107.2131  107.4905 estimate D2E/DX2         !
 ! A20   A(1,10,12)       111.7911  112.2221  112.2395 estimate D2E/DX2         !
 ! A21   A(1,10,16)       111.7281  112.0681  112.4615 estimate D2E/DX2         !
 ! A22   A(11,10,12)      107.8355  107.8729  107.942  estimate D2E/DX2         !
 ! A23   A(11,10,16)      106.703   106.9697  106.7015 estimate D2E/DX2         !
 ! A24   A(12,10,16)      110.4194  110.2192  109.7266 estimate D2E/DX2         !
 ! A25   A(2,13,14)       108.1252  107.2126  107.4909 estimate D2E/DX2         !
 ! A26   A(2,13,15)       111.7909  112.2218  112.2391 estimate D2E/DX2         !
 ! A27   A(2,13,17)       111.7288  112.0679  112.4612 estimate D2E/DX2         !
 ! A28   A(14,13,15)      107.8361  107.8736  107.9425 estimate D2E/DX2         !
 ! A29   A(14,13,17)      106.7035  106.9697  106.7018 estimate D2E/DX2         !
 ! A30   A(15,13,17)      110.4185  110.2196  109.7261 estimate D2E/DX2         !
 ! A31   A(10,16,22)      108.9674  108.7797  108.7575 estimate D2E/DX2         !
 ! A32   A(10,16,26)      108.7805  108.5034  108.7471 estimate D2E/DX2         !
 ! A33   A(10,16,39)      105.6947  105.8166  106.4422 estimate D2E/DX2         !
 ! A34   A(22,16,26)      108.4537  108.5922  108.7054 estimate D2E/DX2         !
 ! A35   A(22,16,39)      115.8888  116.0874  116.4105 estimate D2E/DX2         !
 ! A36   A(26,16,39)      108.8619  108.8301  107.5614 estimate D2E/DX2         !
 ! A37   A(13,17,30)      108.9684  108.7794  108.7573 estimate D2E/DX2         !
 ! A38   A(13,17,34)      108.7816  108.5034  108.7474 estimate D2E/DX2         !
 ! A39   A(13,17,39)      105.6918  105.8167  106.4421 estimate D2E/DX2         !
 ! A40   A(30,17,34)      108.4528  108.5925  108.7054 estimate D2E/DX2         !
 ! A41   A(30,17,39)      115.8902  116.0877  116.4105 estimate D2E/DX2         !
 ! A42   A(34,17,39)      108.8624  108.8297  107.5614 estimate D2E/DX2         !
 ! A43   A(19,18,20)      107.8533  109.3197  105.7032 estimate D2E/DX2         !
 ! A44   A(19,18,21)      107.8529  109.3195  105.7033 estimate D2E/DX2         !
 ! A45   A(19,18,38)      135.5785  119.7528  146.1665 estimate D2E/DX2         !
 ! A46   A(19,18,39)       89.7804   74.4042  109.6764 estimate D2E/DX2         !
 ! A47   A(20,18,21)      108.1849  110.199   105.6869 estimate D2E/DX2         !
 ! A48   A(20,18,38)       97.5274  103.9507   94.3481 estimate D2E/DX2         !
 ! A49   A(20,18,39)      120.0746  122.5858  114.6641 estimate D2E/DX2         !
 ! A50   A(21,18,38)       97.5254  103.9507   94.3481 estimate D2E/DX2         !
 ! A51   A(21,18,39)      120.0762  122.5859  114.6642 estimate D2E/DX2         !
 ! A52   A(16,22,23)      108.9923  109.0146  108.9699 estimate D2E/DX2         !
 ! A53   A(16,22,24)      110.6776  110.7942  110.5609 estimate D2E/DX2         !
 ! A54   A(16,22,25)      109.2893  109.3209  109.2576 estimate D2E/DX2         !
 ! A55   A(23,22,24)      109.1425  108.9418  109.3433 estimate D2E/DX2         !
 ! A56   A(23,22,25)      109.0618  109.0721  109.0514 estimate D2E/DX2         !
 ! A57   A(24,22,25)      109.6511  109.6694  109.6326 estimate D2E/DX2         !
 ! A58   A(16,26,27)      110.3133  110.1615  110.4652 estimate D2E/DX2         !
 ! A59   A(16,26,28)      109.3248  109.5013  109.1484 estimate D2E/DX2         !
 ! A60   A(16,26,29)      109.6398  109.6407  109.6389 estimate D2E/DX2         !
 ! A61   A(27,26,28)      109.3838  109.2493  109.5185 estimate D2E/DX2         !
 ! A62   A(27,26,29)      109.0378  109.2924  108.7832 estimate D2E/DX2         !
 ! A63   A(28,26,29)      109.1216  108.9749  109.2684 estimate D2E/DX2         !
 ! A64   A(17,30,31)      110.6776  110.7941  110.5609 estimate D2E/DX2         !
 ! A65   A(17,30,32)      108.9919  109.0143  108.9696 estimate D2E/DX2         !
 ! A66   A(17,30,33)      109.2889  109.3202  109.2576 estimate D2E/DX2         !
 ! A67   A(31,30,32)      109.1428  108.9424  109.3432 estimate D2E/DX2         !
 ! A68   A(31,30,33)      109.6513  109.6697  109.6326 estimate D2E/DX2         !
 ! A69   A(32,30,33)      109.0621  109.0723  109.0519 estimate D2E/DX2         !
 ! A70   A(17,34,35)      109.3247  109.501   109.1486 estimate D2E/DX2         !
 ! A71   A(17,34,36)      110.3131  110.1612  110.4652 estimate D2E/DX2         !
 ! A72   A(17,34,37)      109.6402  109.6416  109.6389 estimate D2E/DX2         !
 ! A73   A(35,34,36)      109.3836  109.2488  109.5185 estimate D2E/DX2         !
 ! A74   A(35,34,37)      109.1217  108.9751  109.2682 estimate D2E/DX2         !
 ! A75   A(36,34,37)      109.0377  109.2923  108.7832 estimate D2E/DX2         !
 ! A76   A(9,39,16)        81.4996   81.7647   80.8877 estimate D2E/DX2         !
 ! A77   A(9,39,17)        81.5056   81.765    80.8877 estimate D2E/DX2         !
 ! A78   L(9,39,18,16,-1)  179.463  179.4573  179.3218 estimate D2E/DX2         !
 ! A79   L(9,39,18,16,-2)  187.1955  187.5924  187.9863 estimate D2E/DX2        !
 ! A80   A(9,39,38)       131.138   159.9363   99.3574 estimate D2E/DX2         !
 ! A81   A(16,39,17)      161.4757  162.0386  159.8698 estimate D2E/DX2         !
 ! A82   A(16,39,18)       97.9634   97.6926   98.4341 estimate D2E/DX2         !
 ! A83   A(16,39,38)       98.3516   98.9656   95.6629 estimate D2E/DX2         !
 ! A84   A(17,39,18)       97.9803   97.6923   98.4341 estimate D2E/DX2         !
 ! A85   A(17,39,38)       98.3535   98.9647   95.6629 estimate D2E/DX2         !
 ! A86   A(18,39,38)       56.0034   27.6023   88.5644 estimate D2E/DX2         !
 ! D1    D(9,1,3,5)        -5.0907    0.5358   -0.1489 estimate D2E/DX2         !
 ! D2    D(9,1,3,6)       152.6142  179.7818 -179.8561 estimate D2E/DX2         !
 ! D3    D(10,1,3,5)     -176.3936 -173.492  -176.8257 estimate D2E/DX2         !
 ! D4    D(10,1,3,6)      -18.6887    5.7541    3.4671 estimate D2E/DX2         !
 ! D5    D(3,1,9,2)         0.7079   -3.0876    0.0386 estimate D2E/DX2         !
 ! D6    D(3,1,9,39)      163.3141  165.3727  156.605  estimate D2E/DX2         !
 ! D7    D(10,1,9,2)      173.1984  171.7247  177.1907 estimate D2E/DX2         !
 ! D8    D(10,1,9,39)     -24.1953  -19.815   -26.2429 estimate D2E/DX2         !
 ! D9    D(3,1,10,11)      92.4738   90.8594   98.3071 estimate D2E/DX2         !
 ! D10   D(3,1,10,12)     -26.0777  -27.4117  -20.2344 estimate D2E/DX2         !
 ! D11   D(3,1,10,16)    -150.3968 -152.0562 -144.5425 estimate D2E/DX2         !
 ! D12   D(9,1,10,11)     -79.588   -83.6639  -78.6544 estimate D2E/DX2         !
 ! D13   D(9,1,10,12)     161.8604  158.065   162.8042 estimate D2E/DX2         !
 ! D14   D(9,1,10,16)      37.5414   33.4205   38.4961 estimate D2E/DX2         !
 ! D15   D(9,2,4,5)         5.0907   -0.5359    0.1489 estimate D2E/DX2         !
 ! D16   D(9,2,4,7)      -152.6141 -179.7819  179.8561 estimate D2E/DX2         !
 ! D17   D(13,2,4,5)      176.3944  173.4921  176.8252 estimate D2E/DX2         !
 ! D18   D(13,2,4,7)       18.6895   -5.7539   -3.4676 estimate D2E/DX2         !
 ! D19   D(4,2,9,1)        -0.7079    3.0877   -0.0386 estimate D2E/DX2         !
 ! D20   D(4,2,9,39)     -163.3152 -165.3726 -156.605  estimate D2E/DX2         !
 ! D21   D(13,2,9,1)     -173.1988 -171.7248 -177.1903 estimate D2E/DX2         !
 ! D22   D(13,2,9,39)      24.1939   19.8149   26.2433 estimate D2E/DX2         !
 ! D23   D(4,2,13,14)     -92.4745  -90.8598  -98.3068 estimate D2E/DX2         !
 ! D24   D(4,2,13,15)      26.0773   27.4116   20.2353 estimate D2E/DX2         !
 ! D25   D(4,2,13,17)     150.3955  152.0562  144.5422 estimate D2E/DX2         !
 ! D26   D(9,2,13,14)      79.5878   83.6636   78.6542 estimate D2E/DX2         !
 ! D27   D(9,2,13,15)    -161.8604 -158.0649 -162.8037 estimate D2E/DX2         !
 ! D28   D(9,2,13,17)     -37.5422  -33.4203  -38.4967 estimate D2E/DX2         !
 ! D29   D(1,3,5,4)         8.8594    1.8412    0.2417 estimate D2E/DX2         !
 ! D30   D(1,3,5,8)       170.1739 -178.9324 -179.3166 estimate D2E/DX2         !
 ! D31   D(6,3,5,4)      -149.2775 -177.4183  179.9558 estimate D2E/DX2         !
 ! D32   D(6,3,5,8)        12.0369    1.8081    0.3975 estimate D2E/DX2         !
 ! D33   D(2,4,5,3)        -8.8595   -1.8412   -0.2417 estimate D2E/DX2         !
 ! D34   D(2,4,5,8)      -170.1739  178.9325  179.3166 estimate D2E/DX2         !
 ! D35   D(7,4,5,3)       149.2775  177.4182 -179.9558 estimate D2E/DX2         !
 ! D36   D(7,4,5,8)       -12.0369   -1.8081   -0.3975 estimate D2E/DX2         !
 ! D37   D(1,9,39,16)       4.7692    2.0961    6.9666 estimate D2E/DX2         !
 ! D38   D(1,9,39,17)    -167.833  -170.7137 -164.4478 estimate D2E/DX2         !
 ! D39   D(1,9,39,38)      98.4642   95.6922  101.2594 estimate D2E/DX2         !
 ! D40   D(2,9,39,16)     167.8345  170.7137  164.4478 estimate D2E/DX2         !
 ! D41   D(2,9,39,17)      -4.7678   -2.0962   -6.9666 estimate D2E/DX2         !
 ! D42   D(2,9,39,38)     -98.4705  -95.6903 -101.2594 estimate D2E/DX2         !
 ! D43   D(1,10,16,22)   -156.9139 -155.1859 -157.2443 estimate D2E/DX2         !
 ! D44   D(1,10,16,26)     85.0254   86.8504   84.5313 estimate D2E/DX2         !
 ! D45   D(1,10,16,39)    -31.7338  -29.8006  -31.0873 estimate D2E/DX2         !
 ! D46   D(11,10,16,22)   -38.9294  -37.9556  -39.6253 estimate D2E/DX2         !
 ! D47   D(11,10,16,26)  -156.99   -155.9193 -157.8498 estimate D2E/DX2         !
 ! D48   D(11,10,16,39)    86.2507   87.4297   86.5316 estimate D2E/DX2         !
 ! D49   D(12,10,16,22)    78.0024   79.0669   77.0709 estimate D2E/DX2         !
 ! D50   D(12,10,16,26)   -40.0583  -38.8968  -41.1535 estimate D2E/DX2         !
 ! D51   D(12,10,16,39)  -156.8175 -155.5478 -156.7721 estimate D2E/DX2         !
 ! D52   D(2,13,17,30)    156.9141  155.1859  157.2447 estimate D2E/DX2         !
 ! D53   D(2,13,17,34)    -85.0252  -86.8503  -84.5308 estimate D2E/DX2         !
 ! D54   D(2,13,17,39)     31.7335   29.8004   31.0879 estimate D2E/DX2         !
 ! D55   D(14,13,17,30)    38.9295   37.9563   39.6252 estimate D2E/DX2         !
 ! D56   D(14,13,17,34)   156.9902  155.9202  157.8497 estimate D2E/DX2         !
 ! D57   D(14,13,17,39)   -86.251   -87.4292  -86.5315 estimate D2E/DX2         !
 ! D58   D(15,13,17,30)   -78.0029  -79.0672  -77.0716 estimate D2E/DX2         !
 ! D59   D(15,13,17,34)    40.0578   38.8967   41.1529 estimate D2E/DX2         !
 ! D60   D(15,13,17,39)   156.8166  155.5473  156.7717 estimate D2E/DX2         !
 ! D61   D(10,16,22,23)  -177.0158 -176.4823 -176.987  estimate D2E/DX2         !
 ! D62   D(10,16,22,24)   -56.9776  -56.6059  -56.7873 estimate D2E/DX2         !
 ! D63   D(10,16,22,25)    63.8807   64.3698   63.9539 estimate D2E/DX2         !
 ! D64   D(26,16,22,23)   -58.7494  -58.5748  -58.7362 estimate D2E/DX2         !
 ! D65   D(26,16,22,24)    61.2887   61.3016   61.4635 estimate D2E/DX2         !
 ! D66   D(26,16,22,25)  -177.8529 -177.7227 -177.7953 estimate D2E/DX2         !
 ! D67   D(39,16,22,23)    63.9877   64.3723   62.8531 estimate D2E/DX2         !
 ! D68   D(39,16,22,24)  -175.9742 -175.7513 -176.9472 estimate D2E/DX2         !
 ! D69   D(39,16,22,25)   -55.1158  -54.7756  -56.206  estimate D2E/DX2         !
 ! D70   D(10,16,26,27)    61.7223   62.448    60.8009 estimate D2E/DX2         !
 ! D71   D(10,16,26,28)  -177.9565 -177.3798 -178.7291 estimate D2E/DX2         !
 ! D72   D(10,16,26,29)   -58.371   -57.8656  -59.0722 estimate D2E/DX2         !
 ! D73   D(22,16,26,27)   -56.6625  -55.6348  -57.4564 estimate D2E/DX2         !
 ! D74   D(22,16,26,28)    63.6587   64.5374   63.0136 estimate D2E/DX2         !
 ! D75   D(22,16,26,29)  -176.7559 -175.9484 -177.3295 estimate D2E/DX2         !
 ! D76   D(39,16,26,27)   176.4377  177.1434  175.6941 estimate D2E/DX2         !
 ! D77   D(39,16,26,28)   -63.2411  -62.6844  -63.8358 estimate D2E/DX2         !
 ! D78   D(39,16,26,29)    56.3443   56.8298   55.821  estimate D2E/DX2         !
 ! D79   D(10,16,39,9)     15.3623   15.6468   13.7503 estimate D2E/DX2         !
 ! D80   D(10,16,39,17)    38.992    39.3309   39.1104 estimate D2E/DX2         !
 ! D81   D(10,16,39,18)  -171.8332 -171.9456 -174.2361 estimate D2E/DX2         !
 ! D82   D(10,16,39,38)  -115.2072 -144.0722  -84.852  estimate D2E/DX2         !
 ! D83   D(22,16,39,9)    136.1363  136.3943  135.1435 estimate D2E/DX2         !
 ! D84   D(22,16,39,17)   159.766   160.0783  160.5036 estimate D2E/DX2         !
 ! D85   D(22,16,39,18)   -51.0592  -51.1982  -52.8428 estimate D2E/DX2         !
 ! D86   D(22,16,39,38)     5.5668  -23.3248   36.5413 estimate D2E/DX2         !
 ! D87   D(26,16,39,9)   -101.3418 -100.7832 -102.665  estimate D2E/DX2         !
 ! D88   D(26,16,39,17)   -77.7121  -77.0992  -77.3048 estimate D2E/DX2         !
 ! D89   D(26,16,39,18)    71.4627   71.6243   69.3487 estimate D2E/DX2         !
 ! D90   D(26,16,39,38)   128.0886   99.4977  158.7328 estimate D2E/DX2         !
 ! D91   D(13,17,30,31)    56.9787   56.6055   56.7875 estimate D2E/DX2         !
 ! D92   D(13,17,30,32)   177.0168  176.4824  176.9869 estimate D2E/DX2         !
 ! D93   D(13,17,30,33)   -63.8797  -64.3701  -63.9537 estimate D2E/DX2         !
 ! D94   D(34,17,30,31)   -61.2889  -61.302   -61.4635 estimate D2E/DX2         !
 ! D95   D(34,17,30,32)    58.7493   58.5749   58.7359 estimate D2E/DX2         !
 ! D96   D(34,17,30,33)   177.8528  177.7224  177.7953 estimate D2E/DX2         !
 ! D97   D(39,17,30,31)   175.9731  175.751   176.9472 estimate D2E/DX2         !
 ! D98   D(39,17,30,32)   -63.9888  -64.3721  -62.8535 estimate D2E/DX2         !
 ! D99   D(39,17,30,33)    55.1147   54.7754   56.206  estimate D2E/DX2         !
 ! D100  D(13,17,34,35)   177.9554  177.3803  178.729  estimate D2E/DX2         !
 ! D101  D(13,17,34,36)   -61.7239  -62.4484  -60.8008 estimate D2E/DX2         !
 ! D102  D(13,17,34,37)    58.3696   57.8655   59.0723 estimate D2E/DX2         !
 ! D103  D(30,17,34,35)   -63.6585  -64.5371  -63.0138 estimate D2E/DX2         !
 ! D104  D(30,17,34,36)    56.6622   55.6342   57.4564 estimate D2E/DX2         !
 ! D105  D(30,17,34,37)   176.7557  175.9481  177.3295 estimate D2E/DX2         !
 ! D106  D(39,17,34,35)    63.2427   62.685    63.8357 estimate D2E/DX2         !
 ! D107  D(39,17,34,36)  -176.4365 -177.1437 -175.6941 estimate D2E/DX2         !
 ! D108  D(39,17,34,37)   -56.3431  -56.8298  -55.821  estimate D2E/DX2         !
 ! D109  D(13,17,39,9)    -15.363   -15.6469  -13.7506 estimate D2E/DX2         !
 ! D110  D(13,17,39,16)   -38.9923  -39.3309  -39.1108 estimate D2E/DX2         !
 ! D111  D(13,17,39,18)   171.8343  171.9456  174.2357 estimate D2E/DX2         !
 ! D112  D(13,17,39,38)   115.2068  144.0722   84.8516 estimate D2E/DX2         !
 ! D113  D(30,17,39,9)   -136.1369 -136.3942 -135.1435 estimate D2E/DX2         !
 ! D114  D(30,17,39,16)  -159.7662 -160.0782 -160.5036 estimate D2E/DX2         !
 ! D115  D(30,17,39,18)    51.0604   51.1982   52.8428 estimate D2E/DX2         !
 ! D116  D(30,17,39,38)    -5.5671   23.3249  -36.5413 estimate D2E/DX2         !
 ! D117  D(34,17,39,9)    101.3411  100.7831  102.665  estimate D2E/DX2         !
 ! D118  D(34,17,39,16)    77.7118   77.099    77.3048 estimate D2E/DX2         !
 ! D119  D(34,17,39,18)   -71.4616  -71.6245  -69.3487 estimate D2E/DX2         !
 ! D120  D(34,17,39,38)  -128.0891  -99.4979 -158.7328 estimate D2E/DX2         !
 ! D121  D(19,18,39,16)   -85.2673  -85.3509  -84.4871 estimate D2E/DX2         !
 ! D122  D(19,18,39,17)    85.2708   85.3521   84.4871 estimate D2E/DX2         !
 ! D123  D(19,18,39,38)   179.9973  179.9999  180.0    estimate D2E/DX2         !
 ! D124  D(20,18,39,16)    25.346    17.9017   34.2305 estimate D2E/DX2         !
 ! D125  D(20,18,39,17)  -164.1159 -171.3954 -156.7952 estimate D2E/DX2         !
 ! D126  D(20,18,39,38)   -69.3895  -76.7476  -61.2823 estimate D2E/DX2         !
 ! D127  D(21,18,39,16)   164.1195  171.3968  156.7949 estimate D2E/DX2         !
 ! D128  D(21,18,39,17)   -25.3424  -17.9003  -34.2308 estimate D2E/DX2         !
 ! D129  D(21,18,39,38)    69.3841   76.7475   61.2821 estimate D2E/DX2         !
 --------------------------------------------------------------------------------
 Trust Radius=3.00D-01 FncErr=1.00D-07 GrdErr=1.00D-06 EigMax=2.50D+02 EigMin=1.00D-04
 Number of steps in this run=    234 maximum allowed number of steps=    234.
 Search for a saddle point of order  1.
 GradGradGradGradGradGradGradGradGradGradGradGradGradGradGradGradGradGrad

                          Input orientation:                          
 ---------------------------------------------------------------------
 Center     Atomic      Atomic             Coordinates (Angstroms)
 Number     Number       Type             X           Y           Z
 ---------------------------------------------------------------------
      1          6           0       -1.700450   -1.168459   -0.143583
      2          6           0       -1.700461    1.168420   -0.143601
      3          6           0       -3.046453   -1.221396    0.066384
      4          6           0       -3.046463    1.221334    0.066364
      5          6           0       -3.790469   -0.000030    0.287400
      6          1           0       -3.601343   -2.082513   -0.281567
      7          1           0       -3.601367    2.082441   -0.281602
      8          8           0       -5.039911   -0.000038    0.300797
      9          7           0       -1.048115   -0.000033   -0.252391
     10          6           0       -0.797851   -2.333705   -0.462728
     11          1           0       -0.723336   -2.417983   -1.547401
     12          1           0       -1.199825   -3.273921   -0.081220
     13          6           0       -0.797881    2.333741   -0.462755
     14          1           0       -0.723369    2.418007   -1.547423
     15          1           0       -1.199898    3.273935   -0.081248
     16          7           0        0.601984   -2.112742    0.051931
     17          7           0        0.601979    2.112857    0.051927
     18          6           0        3.117714   -0.000249    0.449713
     19          1           0        2.868412   -0.000283    1.517539
     20          1           0        3.725597   -0.885144    0.247684
     21          1           0        3.725858    0.884495    0.247810
     22          6           0        1.535048   -2.947835   -0.724469
     23          1           0        2.536672   -2.829252   -0.319517
     24          1           0        1.247976   -4.002120   -0.668623
     25          1           0        1.530562   -2.622290   -1.761232
     26          6           0        0.661286   -2.536795    1.467911
     27          1           0        0.433846   -3.602898    1.554768
     28          1           0        1.657939   -2.347472    1.858720
     29          1           0       -0.063448   -1.970579    2.050020
     30          6           0        1.535024    2.947984   -0.724458
     31          1           0        1.247916    4.002253   -0.668613
     32          1           0        2.536647    2.829429   -0.319488
     33          1           0        1.530558    2.622436   -1.761222
     34          6           0        0.661268    2.536922    1.467903
     35          1           0        1.657922    2.347634    1.858709
     36          1           0        0.433801    3.603024    1.554749
     37          1           0       -0.063448    1.970695    2.050024
     38          1           0        2.130831    0.000052   -1.174687
     39         77           0        0.930451    0.000077   -0.052106
 ---------------------------------------------------------------------
                    Distance matrix (angstroms):
                    1          2          3          4          5
     1  C    0.000000
     2  C    2.336879   0.000000
     3  C    1.363310   2.750820   0.000000
     4  C    2.750806   1.363307   2.442729   0.000000
     5  C    2.432930   2.432934   1.447115   1.447111   0.000000
     6  H    2.113747   3.768415   1.081894   3.368138   2.167078
     7  H    3.768406   2.113746   3.368139   1.081899   2.167073
     8  O    3.565765   3.565770   2.349583   2.349584   1.249515
     9  N    1.342609   1.342637   2.363620   2.363628   2.794974
    10  C    1.508091   3.630624   2.563865   4.239634   3.868397
    11  H    2.118199   3.973376   3.071318   4.609315   4.315124
    12  H    2.165060   4.470897   2.764902   4.862013   4.191143
    13  C    3.630689   1.508139   4.239701   2.563891   3.868436
    14  H    3.973436   2.118228   4.609376   3.071336   4.315157
    15  H    4.470940   2.165097   4.862053   2.764917   4.191158
    16  N    2.496217   4.013167   3.755769   4.942411   4.879819
    17  N    4.013282   2.496282   4.942520   3.755815   4.879891
    18  C    4.993137   4.993257   6.295641   6.295736   6.910089
    19  H    4.999846   4.999985   6.211489   6.211602   6.771553
    20  H    5.447508   5.814838   6.782817   7.094429   7.568107
    21  H    5.814863   5.447821   7.094497   6.783120   7.568297
    22  C    3.737921   5.267778   4.959455   6.244808   6.170459
    23  H    4.554382   5.828004   5.822835   6.908513   6.957410
    24  H    4.122926   5.975233   5.168634   6.801976   6.505123
    25  H    3.894849   5.236957   5.123646   6.250016   6.275867
    26  C    3.169709   4.680111   4.176348   5.462166   5.258032
    27  H    3.655969   5.495926   4.472060   6.131974   5.694885
    28  H    4.083879   5.258292   5.158664   6.170924   6.137155
    29  H    2.852204   4.164745   3.659837   4.798080   4.569527
    30  C    5.267904   3.737995   6.244925   4.959511   6.170536
    31  H    5.975348   4.123005   6.802083   5.168694   6.505194
    32  H    5.828125   4.554446   6.908625   5.822884   6.957482
    33  H    5.237084   3.894912   6.250137   5.123697   6.275946
    34  C    4.680219   3.169781   5.462271   4.176404   5.258105
    35  H    5.258397   4.083935   6.171025   5.158710   6.137222
    36  H    5.496036   3.656059   6.132082   4.472133   5.694965
    37  H    4.164850   2.852271   4.798186   3.659894   4.569604
    38  H    4.136098   4.136063   5.462276   5.462244   6.099138
    39  Ir   2.880188   2.880121   4.161947   4.161892   4.733112
                    6          7          8          9         10
     6  H    0.000000
     7  H    4.164954   0.000000
     8  O    2.597177   2.597175   0.000000
     9  N    3.294928   3.294942   4.029945   0.000000
    10  C    2.820547   5.234010   4.901434   2.356460   0.000000
    11  H    3.161930   5.489911   5.281583   2.762067   1.090491
    12  H    2.688286   5.873514   5.060683   3.281868   1.091392
    13  C    5.234074   2.820550   4.901465   2.356559   4.667446
    14  H    5.489973   3.161927   5.281609   2.762152   4.874514
    15  H    5.873551   2.688281   5.060688   3.281950   5.634962
    16  N    4.216645   5.948021   6.029630   2.697958   1.507725
    17  N    5.948131   4.216667   6.029692   2.698096   4.690022
    18  C    7.072221   7.072373   8.158984   4.224580   4.648571
    19  H    7.030661   7.030838   8.001377   4.297887   4.775751
    20  H    7.442973   7.922822   8.810243   4.880761   4.802561
    21  H    7.922831   7.443358   8.810444   4.880923   5.596929
    22  C    5.227567   7.202955   7.278102   3.947800   2.426536
    23  H    6.183388   7.861405   8.111341   4.567241   3.374184
    24  H    5.229779   7.790236   7.516246   4.632708   2.647905
    25  H    5.368167   7.117618   7.368805   3.975224   2.681585
    26  C    4.630016   6.524442   6.348302   3.509509   2.428516
    27  H    4.686838   7.209596   6.671961   4.294493   2.682949
    28  H    5.684283   7.201764   7.266276   4.158123   3.379380
    29  H    4.238576   5.863472   5.630986   3.186490   2.642936
    30  C    7.203077   5.227600   7.278170   3.947944   5.779883
    31  H    7.790346   5.229819   7.516306   4.632849   6.661225
    32  H    7.861523   6.183417   8.111404   4.567371   6.147955
    33  H    7.117747   5.368195   7.368877   3.975357   5.627691
    34  C    6.524544   4.630052   6.348366   3.509636   5.438693
    35  H    7.201864   5.684310   7.266335   4.158235   5.773632
    36  H    7.209700   4.686890   6.672030   4.294630   6.389987
    37  H    5.863575   4.238613   5.631054   3.186605   5.037969
    38  H    6.163810   6.163768   7.320970   3.310034   3.811887
    39  Ir   4.992694   4.992623   5.980783   1.988677   2.932947
                   11         12         13         14         15
    11  H    0.000000
    12  H    1.763337   0.000000
    13  C    4.874514   5.634980   0.000000
    14  H    4.835990   5.897017   1.090485   0.000000
    15  H    5.897003   6.547856   1.091390   1.763339   0.000000
    16  N    2.099406   2.147692   4.689960   4.984193   5.681620
    17  N    4.984257   5.681690   1.507744   2.099425   2.147696
    18  C    4.958585   5.444259   4.648869   4.958874   5.444628
    19  H    5.304694   5.461070   4.776079   5.304999   5.461480
    20  H    5.036361   5.483996   5.597123   5.824647   6.454970
    21  H    5.824471   6.454691   4.803064   5.036878   5.484595
    22  C    2.461352   2.828361   5.779800   5.879623   6.826719
    23  H    3.507776   3.770401   6.147866   6.298361   7.160141
    24  H    2.677276   2.620504   6.661159   6.773221   7.699225
    25  H    2.273218   3.271402   5.627604   5.525442   6.711425
    26  C    3.320150   2.531184   5.438635   5.963185   6.295116
    27  H    3.516610   2.335287   6.389931   6.871247   7.255102
    28  H    4.156573   3.576099   5.773564   6.323150   6.597796
    29  H    3.684706   2.744492   5.037916   5.712861   5.773972
    30  C    5.879713   6.826804   2.426567   2.461399   2.828385
    31  H    6.773295   7.699297   2.647942   2.677332   2.620541
    32  H    6.298460   7.160229   3.374212   3.507820   3.770426
    33  H    5.525538   6.711514   2.681601   2.273255   3.271414
    34  C    5.963243   6.295184   2.428546   3.320174   2.531204
    35  H    6.323217   6.597872   3.379401   4.156589   3.576116
    36  H    6.871304   7.255171   2.682991   3.516643   2.335328
    37  H    5.712916   5.774041   2.642962   3.684726   2.744498
    38  H    3.759265   4.796648   3.811863   3.759241   4.796631
    39  Ir   3.289062   3.906147   2.932873   3.288994   3.906070
                   16         17         18         19         20
    16  N    0.000000
    17  N    4.225598   0.000000
    18  C    3.309041   3.309437   0.000000
    19  H    3.427416   3.427841   1.096542   0.000000
    20  H    3.361886   4.333973   1.092418   1.769259   0.000000
    21  H    4.333634   3.362420   1.092417   1.769254   1.769639
    22  C    1.473359   5.204230   3.545674   3.936054   3.162006
    23  H    2.096277   5.320287   2.988743   3.389380   2.348365
    24  H    2.122794   6.191077   4.556486   4.839402   4.085800
    25  H    2.099870   5.154748   3.779210   4.406257   3.445519
    26  C    1.479303   4.860842   3.674892   3.362701   3.688754
    27  H    2.123054   5.912415   4.626378   4.348256   4.464334
    28  H    2.105855   4.926873   3.102531   2.662882   3.001508
    29  H    2.110775   4.594520   4.069763   3.572310   4.333987
    30  C    5.204257   1.473359   3.546218   3.936592   4.520679
    31  H    6.191088   2.122789   4.557063   4.839997   5.555642
    32  H    5.320332   2.096275   2.989379   3.389987   3.941236
    33  H    5.154772   2.099866   3.779652   4.406675   4.599676
    34  C    4.860850   1.479302   3.675333   3.363236   4.752850
    35  H    4.926906   2.105848   3.103033   2.663531   4.161914
    36  H    5.912421   2.123053   4.626885   4.348855   5.717341
    37  H    4.594522   2.110780   4.070062   3.572687   5.075540
    38  H    2.881989   2.881998   1.900688   2.791435   2.313005
    39  Ir   2.140728   2.140690   2.244090   2.493888   2.947258
                   21         22         23         24         25
    21  H    0.000000
    22  C    4.520147   0.000000
    23  H    3.940551   1.086876   0.000000
    24  H    5.555065   1.094095   1.777141   0.000000
    25  H    4.599251   1.086681   1.770207   1.782576   0.000000
    26  C    4.752418   2.395609   2.607202   2.656343   3.345192
    27  H    5.716833   2.614703   2.921189   2.401178   3.627703
    28  H    4.161361   2.654883   2.397707   3.048506   3.632602
    29  H    5.075258   3.347836   3.621139   3.638408   4.182252
    30  C    3.162759   5.895819   5.877392   6.956253   5.665939
    31  H    4.086618   6.956242   6.960764   8.004373   6.719991
    32  H    2.349217   5.877414   5.658682   6.960792   5.728182
    33  H    3.446156   5.665933   5.728148   6.719997   5.244726
    34  C    3.689289   5.970976   5.958846   6.904204   6.148207
    35  H    3.002021   5.893208   5.684806   6.846519   6.149823
    36  H    4.464990   7.022915   7.022045   7.965204   7.138147
    37  H    4.334356   5.868981   5.951037   6.692189   6.177544
    38  H    2.312974   3.041002   2.983452   4.129517   2.753368
    39  Ir   2.947278   3.083471   3.264439   4.061834   3.187170
                   26         27         28         29         30
    26  C    0.000000
    27  H    1.093548   0.000000
    28  H    1.087149   1.779574   0.000000
    29  H    1.088435   1.776806   1.772517   0.000000
    30  C    5.970988   7.022928   5.893197   5.868995   0.000000
    31  H    6.904203   7.965203   6.846498   6.692187   1.094090
    32  H    5.958871   7.022068   5.684806   5.951062   1.086878
    33  H    6.148219   7.138161   6.149812   6.177556   1.086683
    34  C    5.073717   6.144644   5.000339   4.602351   2.395594
    35  H    5.000365   6.082727   4.695105   4.652599   2.654859
    36  H    6.144645   7.205922   6.082706   5.617615   2.614681
    37  H    4.602343   5.617608   4.652562   3.941274   3.347828
    38  H    3.946958   4.828140   3.864719   4.370009   3.041051
    39  Ir   2.969616   3.976190   3.113114   3.047992   3.083459
                   31         32         33         34         35
    31  H    0.000000
    32  H    1.777142   0.000000
    33  H    1.782576   1.770214   0.000000
    34  C    2.656323   2.607178   3.345179   0.000000
    35  H    3.048480   2.397672   3.632580   1.087142   0.000000
    36  H    2.401147   2.921160   3.627684   1.093552   1.779570
    37  H    3.638391   3.621120   4.182249   1.088435   1.772512
    38  H    4.129560   2.983526   2.753406   3.946974   3.864747
    39  Ir   4.061808   3.264444   3.187157   2.969591   3.113110
                   36         37         38         39
    36  H    0.000000
    37  H    1.776809   0.000000
    38  H    4.828161   4.370017   0.000000
    39  Ir   3.976163   3.047970   1.643502   0.000000
 Stoichiometry    C12H22IrN3O
 Framework group  C1[X(C12H22IrN3O)]
 Deg. of freedom   111
 Full point group                 C1      NOp   1
 Largest Abelian subgroup         C1      NOp   1
 Largest concise Abelian subgroup C1      NOp   1
                         Standard orientation:                         
 ---------------------------------------------------------------------
 Center     Atomic      Atomic             Coordinates (Angstroms)
 Number     Number       Type             X           Y           Z
 ---------------------------------------------------------------------
      1          6           0       -1.721374   -1.168461   -0.181973
      2          6           0       -1.721350    1.168417   -0.181981
      3          6           0       -3.067989   -1.221380    0.024037
      4          6           0       -3.067963    1.221350    0.024029
      5          6           0       -3.812633   -0.000004    0.242872
      6          1           0       -3.621866   -2.082487   -0.325546
      7          1           0       -3.621829    2.082466   -0.325563
      8          8           0       -5.062109    0.000006    0.252597
      9          7           0       -1.068704   -0.000045   -0.288858
     10          6           0       -0.817857   -2.333720   -0.498469
     11          1           0       -0.740156   -2.417994   -1.582919
     12          1           0       -1.220964   -3.273931   -0.118148
     13          6           0       -0.817819    2.333726   -0.498476
     14          1           0       -0.740119    2.417996   -1.582920
     15          1           0       -1.220942    3.273925   -0.118148
     16          7           0        0.580462   -2.112779    0.020302
     17          7           0        0.580519    2.112819    0.020317
     18          6           0        3.095043   -0.000325    0.425485
     19          1           0        2.842604   -0.000360    1.492573
     20          1           0        3.703505   -0.885228    0.225239
     21          1           0        3.703791    0.884411    0.225373
     22          6           0        1.515791   -2.947883   -0.753356
     23          1           0        2.516223   -2.829317   -0.345462
     24          1           0        1.228541   -4.002163   -0.698359
     25          1           0        1.514357   -2.622333   -1.790126
     26          6           0        0.635596   -2.536839    1.436448
     27          1           0        0.407887   -3.602939    1.522632
     28          1           0        1.631099   -2.347532    1.830185
     29          1           0       -0.090836   -1.970615    2.016428
     30          6           0        1.515854    2.947936   -0.753320
     31          1           0        1.228598    4.002210   -0.698314
     32          1           0        2.516281    2.829365   -0.345409
     33          1           0        1.514429    2.622393   -1.790093
     34          6           0        0.635653    2.536878    1.436462
     35          1           0        1.631152    2.347573    1.830195
     36          1           0        0.407947    3.602983    1.522644
     37          1           0       -0.090779    1.970659    2.016448
     38          1           0        2.112938   -0.000002   -1.201809
     39         77           0        0.909264    0.000035   -0.082760
 ---------------------------------------------------------------------
 Rotational constants (GHZ):           0.5314188           0.3436056           0.2300703
 Standard basis: def2TZVPP (5D, 7F)
 There are   977 symmetry adapted cartesian basis functions of A   symmetry.
 There are   860 symmetry adapted basis functions of A   symmetry.
   860 basis functions,  1290 primitive gaussians,   977 cartesian basis functions
    70 alpha electrons       70 beta electrons
       nuclear repulsion energy      1530.1558747060 Hartrees.
 NAtoms=   39 NActive=   39 NUniq=   39 SFac= 1.00D+00 NAtFMM=   60 NAOKFM=F Big=F
 Integral buffers will be    131072 words long.
 Raffenetti 2 integral format.
 Two-electron integral symmetry is turned on.
 Nuclear repulsion after empirical dispersion term =     1530.1120445209 Hartrees.
 ------------------------------------------------------------------------------
 Polarizable Continuum Model (PCM)
 =================================
 Model                : PCM.
 Atomic radii         : UFF (Universal Force Field).
 Polarization charges : Total charges.
 Charge compensation  : None.
 Solution method      : On-the-fly selection.
 Cavity type          : Scaled VdW (van der Waals Surface) (Alpha=1.100).
 Cavity algorithm     : GePol (No added spheres)
                        Default sphere list used, NSphG=   39.
                        Lebedev-Laikov grids with approx.  5.0 points / Ang**2.
                        Smoothing algorithm: York/Karplus (Gamma=1.0000).
                        Polarization charges: spherical gaussians, with
                                              point-specific exponents (IZeta= 3).
                        Self-potential: point-specific (ISelfS= 7).
                        Self-field    : sphere-specific E.n sum rule (ISelfD= 2).
 1st derivatives      : Analytical E(r).r(x)/FMM algorithm (CHGder, D1EAlg=3).
                        Cavity 1st derivative terms included.
 Solvent              : Dichloromethane, Eps=   8.930000 Eps(inf)=   2.028346
 ------------------------------------------------------------------------------
 One-electron integrals computed using PRISM.
   1 Symmetry operations used in ECPInt.
 ECPInt:  NShTT=   52650 NPrTT=  135893 LenC2=   47734 LenP2D=   93990.
 LDataN:  DoStor=T MaxTD1= 9 Len=  602
 Number of processors reduced to  40 by ecpmxn.
 NBasis=   860 RedAO= T EigKep=  3.07D-05  NBF=   860
 NBsUse=   860 1.00D-06 EigRej= -1.00D+00 NBFU=   860
 Defaulting to unpruned grid for atomic number  77.
 ExpMin= 5.00D-02 ExpMax= 2.70D+04 ExpMxC= 9.22D+02 IAcc=3 IRadAn=         5 AccDes= 0.00D+00
 Harris functional with IExCor= 4639 and IRadAn=       5 diagonalized for initial guess.
 HarFok:  IExCor= 4639 AccDes= 0.00D+00 IRadAn=         5 IDoV= 1 UseB2=F ITyADJ=14
 ICtDFT=  3500011 ScaDFX=  1.000000  1.000000  1.000000  1.000000
 Defaulting to unpruned grid for atomic number  77.
 FoFCou: FMM=F IPFlag=           0 FMFlag=      100000 FMFlg1=           0
         NFxFlg=           0 DoJE=T BraDBF=F KetDBF=T FulRan=T
         wScrn=  0.000000 ICntrl=       500 IOpCl=  0 I1Cent=   200000004 NGrid=           0
         NMat0=    1 NMatS0=      1 NMatT0=    0 NMatD0=    1 NMtDS0=    0 NMtDT0=    0
 Petite list used in FoFCou.
 Requested convergence on RMS density matrix=1.00D-08 within 128 cycles.
 Requested convergence on MAX density matrix=1.00D-06.
 Requested convergence on             energy=1.00D-06.
 No special actions if energy rises.
 Defaulting to unpruned grid for atomic number  77.
 Defaulting to unpruned grid for atomic number  77.
 Defaulting to unpruned grid for atomic number  77.
 Defaulting to unpruned grid for atomic number  77.
 Defaulting to unpruned grid for atomic number  77.
 Defaulting to unpruned grid for atomic number  77.
 Defaulting to unpruned grid for atomic number  77.
 Defaulting to unpruned grid for atomic number  77.
 Defaulting to unpruned grid for atomic number  77.
 Defaulting to unpruned grid for atomic number  77.
 Defaulting to unpruned grid for atomic number  77.
 Defaulting to unpruned grid for atomic number  77.
 Defaulting to unpruned grid for atomic number  77.
 Defaulting to unpruned grid for atomic number  77.
 Defaulting to unpruned grid for atomic number  77.
 Defaulting to unpruned grid for atomic number  77.
 Defaulting to unpruned grid for atomic number  77.
 Defaulting to unpruned grid for atomic number  77.
 Defaulting to unpruned grid for atomic number  77.
 Defaulting to unpruned grid for atomic number  77.
 Defaulting to unpruned grid for atomic number  77.
 Defaulting to unpruned grid for atomic number  77.
 Defaulting to unpruned grid for atomic number  77.
 Defaulting to unpruned grid for atomic number  77.
 Defaulting to unpruned grid for atomic number  77.
 Defaulting to unpruned grid for atomic number  77.
 Defaulting to unpruned grid for atomic number  77.
 Defaulting to unpruned grid for atomic number  77.
 Defaulting to unpruned grid for atomic number  77.
 Defaulting to unpruned grid for atomic number  77.
 Defaulting to unpruned grid for atomic number  77.
 Defaulting to unpruned grid for atomic number  77.
 Defaulting to unpruned grid for atomic number  77.
 Defaulting to unpruned grid for atomic number  77.
 Defaulting to unpruned grid for atomic number  77.
 Defaulting to unpruned grid for atomic number  77.
 Defaulting to unpruned grid for atomic number  77.
 Defaulting to unpruned grid for atomic number  77.
 Defaulting to unpruned grid for atomic number  77.
 Defaulting to unpruned grid for atomic number  77.
 Defaulting to unpruned grid for atomic number  77.
 Defaulting to unpruned grid for atomic number  77.
 Defaulting to unpruned grid for atomic number  77.
 Defaulting to unpruned grid for atomic number  77.
 Defaulting to unpruned grid for atomic number  77.
 Defaulting to unpruned grid for atomic number  77.
 Defaulting to unpruned grid for atomic number  77.
 Defaulting to unpruned grid for atomic number  77.
 Inv3:  Mode=1 IEnd=    19126875.
 Iteration    1 A*A^-1 deviation from unit magnitude is 3.11D-15 for   1659.
 Iteration    1 A*A^-1 deviation from orthogonality  is 1.77D-15 for   1832     51.
 Iteration    1 A^-1*A deviation from unit magnitude is 3.33D-15 for   1659.
 Iteration    1 A^-1*A deviation from orthogonality  is 2.28D-15 for   2092   1267.
 Error on total polarization charges =  0.01780
 SCF Done:  E(RwB97XD) =  -814.467491879     A.U. after   17 cycles
            NFock= 17  Conv=0.55D-08     -V/T= 2.0979

 **********************************************************************

            Population analysis using the SCF Density.

 **********************************************************************

 Orbital symmetries:
       Occupied  (A) (A) (A) (A) (A) (A) (A) (A) (A) (A) (A) (A)
                 (A) (A) (A) (A) (A) (A) (A) (A) (A) (A) (A) (A)
                 (A) (A) (A) (A) (A) (A) (A) (A) (A) (A) (A) (A)
                 (A) (A) (A) (A) (A) (A) (A) (A) (A) (A) (A) (A)
                 (A) (A) (A) (A) (A) (A) (A) (A) (A) (A) (A) (A)
                 (A) (A) (A) (A) (A) (A) (A) (A) (A) (A)
       Virtual   (A) (A) (A) (A) (A) (A) (A) (A) (A) (A) (A) (A)
                 (A) (A) (A) (A) (A) (A) (A) (A) (A) (A) (A) (A)
                 (A) (A) (A) (A) (A) (A) (A) (A) (A) (A) (A) (A)
                 (A) (A) (A) (A) (A) (A) (A) (A) (A) (A) (A) (A)
                 (A) (A) (A) (A) (A) (A) (A) (A) (A) (A) (A) (A)
                 (A) (A) (A) (A) (A) (A) (A) (A) (A) (A) (A) (A)
                 (A) (A) (A) (A) (A) (A) (A) (A) (A) (A) (A) (A)
                 (A) (A) (A) (A) (A) (A) (A) (A) (A) (A) (A) (A)
                 (A) (A) (A) (A) (A) (A) (A) (A) (A) (A) (A) (A)
                 (A) (A) (A) (A) (A) (A) (A) (A) (A) (A) (A) (A)
                 (A) (A) (A) (A) (A) (A) (A) (A) (A) (A) (A) (A)
                 (A) (A) (A) (A) (A) (A) (A) (A) (A) (A) (A) (A)
                 (A) (A) (A) (A) (A) (A) (A) (A) (A) (A) (A) (A)
                 (A) (A) (A) (A) (A) (A) (A) (A) (A) (A) (A) (A)
                 (A) (A) (A) (A) (A) (A) (A) (A) (A) (A) (A) (A)
                 (A) (A) (A) (A) (A) (A) (A) (A) (A) (A) (A) (A)
                 (A) (A) (A) (A) (A) (A) (A) (A) (A) (A) (A) (A)
                 (A) (A) (A) (A) (A) (A) (A) (A) (A) (A) (A) (A)
                 (A) (A) (A) (A) (A) (A) (A) (A) (A) (A) (A) (A)
                 (A) (A) (A) (A) (A) (A) (A) (A) (A) (A) (A) (A)
                 (A) (A) (A) (A) (A) (A) (A) (A) (A) (A) (A) (A)
                 (A) (A) (A) (A) (A) (A) (A) (A) (A) (A) (A) (A)
                 (A) (A) (A) (A) (A) (A) (A) (A) (A) (A) (A) (A)
                 (A) (A) (A) (A) (A) (A) (A) (A) (A) (A) (A) (A)
                 (A) (A) (A) (A) (A) (A) (A) (A) (A) (A) (A) (A)
                 (A) (A) (A) (A) (A) (A) (A) (A) (A) (A) (A) (A)
                 (A) (A) (A) (A) (A) (A) (A) (A) (A) (A) (A) (A)
                 (A) (A) (A) (A) (A) (A) (A) (A) (A) (A) (A) (A)
                 (A) (A) (A) (A) (A) (A) (A) (A) (A) (A) (A) (A)
                 (A) (A) (A) (A) (A) (A) (A) (A) (A) (A) (A) (A)
                 (A) (A) (A) (A) (A) (A) (A) (A) (A) (A) (A) (A)
                 (A) (A) (A) (A) (A) (A) (A) (A) (A) (A) (A) (A)
                 (A) (A) (A) (A) (A) (A) (A) (A) (A) (A) (A) (A)
                 (A) (A) (A) (A) (A) (A) (A) (A) (A) (A) (A) (A)
                 (A) (A) (A) (A) (A) (A) (A) (A) (A) (A) (A) (A)
                 (A) (A) (A) (A) (A) (A) (A) (A) (A) (A) (A) (A)
                 (A) (A) (A) (A) (A) (A) (A) (A) (A) (A) (A) (A)
                 (A) (A) (A) (A) (A) (A) (A) (A) (A) (A) (A) (A)
                 (A) (A) (A) (A) (A) (A) (A) (A) (A) (A) (A) (A)
                 (A) (A) (A) (A) (A) (A) (A) (A) (A) (A) (A) (A)
                 (A) (A) (A) (A) (A) (A) (A) (A) (A) (A) (A) (A)
                 (A) (A) (A) (A) (A) (A) (A) (A) (A) (A) (A) (A)
                 (A) (A) (A) (A) (A) (A) (A) (A) (A) (A) (A) (A)
                 (A) (A) (A) (A) (A) (A) (A) (A) (A) (A) (A) (A)
                 (A) (A) (A) (A) (A) (A) (A) (A) (A) (A) (A) (A)
                 (A) (A) (A) (A) (A) (A) (A) (A) (A) (A) (A) (A)
                 (A) (A) (A) (A) (A) (A) (A) (A) (A) (A) (A) (A)
                 (A) (A) (A) (A) (A) (A) (A) (A) (A) (A) (A) (A)
                 (A) (A) (A) (A) (A) (A) (A) (A) (A) (A) (A) (A)
                 (A) (A) (A) (A) (A) (A) (A) (A) (A) (A) (A) (A)
                 (A) (A) (A) (A) (A) (A) (A) (A) (A) (A) (A) (A)
                 (A) (A) (A) (A) (A) (A) (A) (A) (A) (A) (A) (A)
                 (A) (A) (A) (A) (A) (A) (A) (A) (A) (A) (A) (A)
                 (A) (A) (A) (A) (A) (A) (A) (A) (A) (A) (A) (A)
                 (A) (A) (A) (A) (A) (A) (A) (A) (A) (A) (A) (A)
                 (A) (A) (A) (A) (A) (A) (A) (A) (A) (A) (A) (A)
                 (A) (A) (A) (A) (A) (A) (A) (A) (A) (A) (A) (A)
                 (A) (A) (A) (A) (A) (A) (A) (A) (A) (A) (A) (A)
                 (A) (A) (A) (A) (A) (A) (A) (A) (A) (A) (A) (A)
                 (A) (A) (A) (A) (A) (A) (A) (A) (A) (A) (A) (A)
                 (A) (A) (A) (A) (A) (A) (A) (A) (A) (A) (A) (A)
                 (A) (A) (A) (A) (A) (A) (A) (A) (A) (A) (A) (A)
                 (A) (A) (A) (A) (A) (A) (A) (A) (A) (A) (A) (A)
                 (A) (A) (A) (A) (A) (A) (A) (A) (A) (A) (A) (A)
                 (A) (A) (A) (A) (A) (A) (A) (A) (A) (A) (A) (A)
                 (A) (A) (A) (A) (A) (A) (A) (A) (A) (A)
 The electronic state is 1-A.
 Alpha  occ. eigenvalues --  -19.18253 -14.50754 -14.50754 -14.45588 -10.34131
 Alpha  occ. eigenvalues --  -10.33389 -10.33386 -10.33315 -10.33314 -10.31813
 Alpha  occ. eigenvalues --  -10.31813 -10.31513 -10.31513 -10.27185 -10.27184
 Alpha  occ. eigenvalues --  -10.25580  -3.76082  -2.09827  -2.09451  -2.07574
 Alpha  occ. eigenvalues --   -1.09255  -1.08081  -1.06467  -1.04973  -0.90884
 Alpha  occ. eigenvalues --   -0.86516  -0.83880  -0.82646  -0.82590  -0.80400
 Alpha  occ. eigenvalues --   -0.75222  -0.73457  -0.72787  -0.70926  -0.66588
 Alpha  occ. eigenvalues --   -0.61954  -0.60659  -0.59302  -0.58770  -0.58265
 Alpha  occ. eigenvalues --   -0.57431  -0.57033  -0.56358  -0.53002  -0.52457
 Alpha  occ. eigenvalues --   -0.50948  -0.50324  -0.50030  -0.49228  -0.48025
 Alpha  occ. eigenvalues --   -0.47882  -0.47714  -0.47483  -0.46891  -0.46734
 Alpha  occ. eigenvalues --   -0.45988  -0.45684  -0.44664  -0.44618  -0.43634
 Alpha  occ. eigenvalues --   -0.43378  -0.40264  -0.38184  -0.33580  -0.30809
 Alpha  occ. eigenvalues --   -0.30736  -0.30361  -0.29281  -0.28769  -0.25434
 Alpha virt. eigenvalues --    0.02969   0.04749   0.06929   0.09030   0.10170
 Alpha virt. eigenvalues --    0.11536   0.11630   0.13642   0.14909   0.15166
 Alpha virt. eigenvalues --    0.15296   0.15753   0.16273   0.16374   0.16748
 Alpha virt. eigenvalues --    0.16873   0.17805   0.17869   0.18180   0.19480
 Alpha virt. eigenvalues --    0.19582   0.20718   0.21035   0.21052   0.21268
 Alpha virt. eigenvalues --    0.21811   0.22486   0.22684   0.23386   0.23422
 Alpha virt. eigenvalues --    0.24420   0.25149   0.25606   0.25872   0.26759
 Alpha virt. eigenvalues --    0.27196   0.27269   0.28528   0.29312   0.30130
 Alpha virt. eigenvalues --    0.30286   0.30921   0.31217   0.32396   0.32790
 Alpha virt. eigenvalues --    0.33326   0.33520   0.34565   0.34774   0.35570
 Alpha virt. eigenvalues --    0.36070   0.36580   0.36921   0.37473   0.38194
 Alpha virt. eigenvalues --    0.38823   0.39144   0.39916   0.40850   0.40951
 Alpha virt. eigenvalues --    0.41470   0.42325   0.42779   0.43154   0.43817
 Alpha virt. eigenvalues --    0.44636   0.44646   0.45961   0.46309   0.46515
 Alpha virt. eigenvalues --    0.46863   0.47118   0.47844   0.47891   0.48455
 Alpha virt. eigenvalues --    0.49328   0.49813   0.50115   0.50145   0.50294
 Alpha virt. eigenvalues --    0.50400   0.50775   0.51066   0.51298   0.51581
 Alpha virt. eigenvalues --    0.51701   0.52574   0.53094   0.53318   0.53397
 Alpha virt. eigenvalues --    0.54717   0.54853   0.55243   0.55554   0.56209
[...]
 7008,-0.00002627,-0.00005586,0.00006830,0.00000361,0.00000384,-0.00000
 078,-0.00000196,0.00000395,-0.00000037,-0.00000154,0.00004811,-0.00002
 164,-0.00000596,0.00015427,-0.00000735,-0.00001141,-0.00004475,0.00000
 965,-0.00002520,0.00000054,-0.00000691,0.00000311,0.00001577,0.0000063
 0,-0.00000241,0.00084234,-0.00006113,-0.00187290,-0.00066279,0.0004237
 3,-0.00020578,-0.00035799,0.00036181,0.00003239,0.00009045,-0.00003165
 ,0.00007068,-0.01139442,0.00038675,-0.00533284,0.00008051,-0.00028026,
 -0.00026569,0.00028206,-0.00071495,0.00034041,-0.00001218,0.00006954,0
 .00020406,0.00014846,0.00006250,-0.00007642,0.00001389,-0.00000671,-0.
 00001437,-0.00000056,-0.00001507,-0.00000281,0.00000191,0.00001574,-0.
 00000496,0.00000188,-0.00000315,-0.00000375,-0.00001140,0.00000281,0.0
 0000882,0.00000772,0.00001588,0.00000012,0.00000503,-0.00001539,0.0000
 0732,-0.00000713,-0.00000474,-0.00000013,0.00021566,-0.00019199,0.0005
 6022,0.00018377,-0.00003789,-0.00011757,-0.00004039,0.00020878,0.00028
 392,-0.00010680,-0.00012745,-0.00004598,0.05221845,-0.05910681,0.01986
 554,-0.05365091,0.05998328,-0.00000373,-0.00000478,-0.00003273,0.00017
 983,0.00052525,-0.00024394,0.00000190,-0.00006155,0.00000154,-0.000083
 40,-0.00025933,0.00012825,0.00003624,0.00009272,0.00000529,0.00000041,
 -0.00000584,0.00000277,0.00000332,0.00000919,-0.00001980,-0.00006385,-
 0.00003529,0.00001294,-0.00007563,-0.00020471,0.00007262,-0.00001713,-
 0.00002193,-0.00000420,-0.00000034,-0.00000614,0.00000146,0.00000139,-
 0.00000556,-0.00000267,0.00143312,-0.00112027,-0.00590144,-0.00190006,
 0.00001063,-0.00066474,0.00017979,0.00004746,0.00003251,-0.00003292,-0
 .00022216,-0.00006073,-0.03263655,0.00377943,-0.01647826,-0.00024206,-
 0.00006940,0.00026586,0.00014310,-0.00014022,0.00020386,0.00004950,0.0
 0016052,0.00003574,0.00032880,-0.00003302,-0.00004440,-0.00002178,-0.0
 0000813,0.00000602,0.00000707,-0.00000932,-0.00000127,0.00001087,-0.00
 000520,-0.00000594,0.00000197,-0.00000436,-0.00000370,-0.00000692,0.00
 002478,-0.00001995,0.00000303,0.00000310,-0.00000279,-0.00000226,-0.00
 000732,0.00001196,0.00000498,-0.00000105,0.00000412,-0.00224052,-0.000
 19263,0.00111333,0.00021065,0.00003850,-0.00008148,0.00074389,0.000144
 94,-0.00053392,0.00015702,-0.00021273,0.00031252,-0.07795742,0.0170517
 2,-0.07814591,0.09444063,-0.01604962,0.09169591,0.00002131,0.00007086,
 0.00002029,-0.00026881,-0.00021146,0.00003071,-0.00001904,0.00000180,0
 .00000768,0.00013309,0.00008549,0.00000316,-0.00006802,-0.00009967,0.0
 0001974,0.00000280,0.00000654,-0.00000004,-0.00001529,0.00000086,-0.00
 001139,0.00007118,0.00002799,-0.00001460,-0.00020989,0.00014224,-0.000
 10196,-0.00002616,-0.00001248,-0.00000893,-0.00000167,-0.00000004,0.00
 000096,0.00000813,0.00001083,0.00000126,0.00106594,-0.00228641,-0.0005
 7961,0.00004203,0.00005122,0.00011173,-0.00017094,0.00010133,-0.000297
 19,-0.00010020,0.00010530,-0.00003178,-0.00045206,-0.00158443,-0.00016
 052,-0.00004315,0.00015502,-0.00002509,0.00008570,-0.00018385,0.000191
 80,-0.00000778,0.00002269,0.00006334,0.00009295,-0.00009741,-0.0000591
 0,0.00002064,0.00000279,-0.00003314,0.00000203,-0.00000180,-0.00000290
 ,-0.00000178,0.00001811,0.00001255,0.00000238,-0.00000193,0.00000783,-
 0.00001440,0.00000158,0.00004864,0.00001126,0.00001320,-0.00001146,-0.
 00000079,-0.00000773,0.00000303,0.00000554,-0.00000061,-0.00000615,0.0
 0006095,0.00105521,0.00024372,0.00001980,-0.00012490,0.00034867,-0.000
 08531,0.00014757,-0.00014110,-0.00008185,-0.00021869,-0.00005600,-0.06
 177328,0.04922394,0.00200384,-0.00331491,0.02828111,0.00188939,0.05850
 236,0.00013015,0.00018472,-0.00010829,0.00017136,-0.00024634,-0.000001
 55,-0.00016660,0.00008277,0.00004153,-0.00015768,-0.00011302,0.0000684
 1,0.00030597,-0.00000710,-0.00004542,-0.00001685,-0.00001021,0.0000128
 7,-0.00003454,0.00001349,-0.00001361,-0.00030939,0.00000689,0.00006250
 ,-0.00015270,0.00020145,-0.00003028,0.00019262,0.00003498,0.00007898,-
 0.00000020,0.00001728,-0.00000776,-0.00004630,-0.00003469,0.00000199,0
 .00103104,0.00057707,0.00107816,-0.00022110,0.00036639,0.00011417,-0.0
 0110033,0.00042647,-0.00053487,0.00008073,-0.00040791,0.00047657,0.001
 94534,-0.01250621,-0.00661057,-0.00036630,0.00010975,0.00009034,-0.000
 03546,0.00005527,0.00007172,0.00002855,-0.00003782,0.00002834,0.000042
 58,0.00005973,0.00001852,-0.00014877,0.00005888,0.00012329,0.00001185,
 0.00001208,0.00000265,0.00001119,-0.00008031,-0.00001357,-0.00000242,0
 .00002805,0.00000495,-0.00005685,-0.00016408,-0.00019032,-0.00001320,-
 0.00007281,0.00009025,0.00000830,0.00001589,-0.00000309,0.00000013,0.0
 0001658,0.00000147,-0.00081019,0.00160584,0.00129148,0.00060176,0.0004
 9323,-0.00072522,0.00006292,-0.00015916,-0.00004550,-0.00004520,0.0003
 9073,0.00003885,0.04869906,-0.29355952,-0.01090199,-0.00006452,-0.0039
 8491,0.00033578,-0.05416675,0.31969604,-0.00000410,-0.00000717,0.00000
 225,-0.00018417,0.00016098,0.00002589,-0.00002022,0.00004107,0.0000007
 8,-0.00010859,-0.00007148,0.00003650,0.00005131,0.00002679,0.00000566,
 -0.00000566,-0.00000368,-0.00000265,-0.00000803,-0.00000041,0.00000555
 ,-0.00007423,-0.00000537,0.00000968,0.00021810,0.00005501,0.00001019,0
 .00018808,0.00002269,0.00008239,-0.00001254,0.00000378,-0.00001279,-0.
 00003764,-0.00001868,-0.00000547,0.00305587,-0.00193223,0.00073646,0.0
 0012272,0.00020303,0.00021137,-0.00067797,0.00051994,0.00029223,-0.000
 00160,-0.00071557,0.00086967,0.00583796,-0.03695403,-0.01405441,-0.000
 14437,0.00020421,0.00002654,0.00011356,-0.00010821,0.00012050,0.000021
 77,-0.00001591,0.00006299,0.00010665,-0.00000606,-0.00000985,-0.000127
 50,0.00008886,0.00013222,0.00001333,-0.00000093,0.00000033,0.00001436,
 -0.00005173,-0.00002688,0.00000410,0.00001538,-0.00002328,-0.00006925,
 -0.00024784,-0.00018769,-0.00001146,-0.00009026,0.00011511,0.00000832,
 -0.00000012,-0.00000279,-0.00000960,-0.00000635,0.00000013,-0.00094409
 ,-0.00337557,0.00174440,-0.00009363,0.00090687,0.00000702,0.00007570,0
 .00025278,-0.00010281,-0.00017359,0.00039304,0.00023385,0.00090734,-0.
 00541085,-0.05076113,-0.00063070,0.01045102,0.00128520,-0.00196168,0.0
 1878513,0.05986098,0.00008578,0.00011687,-0.00006540,0.00011772,-0.000
 54842,-0.00030373,-0.00009284,0.00004869,0.00003187,0.00010907,0.00026
 843,0.00013216,-0.00015389,-0.00028603,-0.00001224,-0.00000103,0.00001
 327,0.00001070,-0.00000528,0.00000833,-0.00000517,0.00013458,0.0000766
 6,-0.00001971,-0.00028946,0.00006141,-0.00016049,0.00003002,0.00000039
 ,0.00001050,-0.00000818,0.00001142,0.00000330,-0.00000272,0.00000345,0
 .00000600,0.00041770,0.00062240,-0.00067395,0.00007704,0.00003106,0.00
 015988,0.00007000,0.00008426,-0.00003469,-0.00000451,0.00010243,-0.000
 06574,0.00182401,0.00225647,-0.00274868,-0.00023068,-0.00002829,0.0001
 4158,-0.00001213,-0.00004083,0.00002366,0.00001827,0.00007925,-0.00000
 300,0.00014269,0.00002421,-0.00002608,-0.00000669,-0.00000499,-0.00002
 555,-0.00000286,0.00000068,0.00000053,-0.00000099,-0.00000599,0.000013
 69,-0.00000097,0.00000347,0.00001302,-0.00001454,0.00000155,0.00003195
 ,0.00000554,-0.00000012,-0.00000960,-0.00001119,0.00000713,0.00000498,
 0.00002191,0.00002299,0.00000242,0.00038670,0.00036947,-0.00042986,-0.
 00005680,-0.00014410,0.00000887,0.00046833,0.00002656,-0.00010040,0.00
 045739,-0.00023873,0.00000884,-0.17510397,-0.09669632,0.09971307,-0.01
 656700,-0.01543333,0.01570051,0.00544362,0.00448102,-0.00488752,0.1822
 2061,-0.00002794,-0.00005237,0.00001263,-0.00024348,0.00021674,-0.0002
 8649,0.00002625,-0.00003625,0.00000448,0.00007757,-0.00003431,-0.00000
 314,-0.00005149,0.00002673,-0.00000879,0.00000384,-0.00000211,-0.00000
 017,0.00003054,-0.00001094,0.00002994,0.00005323,-0.00001567,-0.000014
 51,-0.00018330,-0.00002682,-0.00004948,-0.00003016,-0.00000741,-0.0000
 1042,0.00000245,-0.00000073,0.00000403,0.00000516,0.00000299,-0.000002
 59,-0.00005779,0.00040276,0.00033621,0.00013907,-0.00012852,-0.0000312
 0,-0.00010420,-0.00038289,0.00001312,-0.00004166,0.00013107,0.00003808
 ,0.00942544,0.00568630,-0.00733387,-0.00002036,0.00000547,-0.00007550,
 0.00001883,-0.00001756,0.00002624,-0.00000483,-0.00000988,0.00002731,-
 0.00004913,-0.00000109,-0.00001373,0.00002353,0.00001540,-0.00001133,-
 0.00000005,-0.00000159,-0.00000166,-0.00000754,0.00001710,0.00000426,-
 0.00000032,0.00000648,0.00000450,0.00001666,-0.00001453,0.00000373,0.0
 0000062,0.00001659,0.00000635,0.00000281,-0.00000474,0.00000106,-0.000
 02300,-0.00001811,0.00000589,-0.00034351,-0.00004748,-0.00112440,0.000
 06741,0.00047076,-0.00038128,-0.00009753,-0.00017861,-0.00005617,0.000
 07477,0.00051739,-0.00044075,-0.09892791,-0.12432142,0.07828208,0.0050
 8317,0.00338501,-0.00435050,-0.02073426,-0.01359902,0.01573119,0.10486
 532,0.12896729,-0.00007624,-0.00013202,-0.00001588,-0.00074739,-0.0001
 9931,-0.00030406,0.00005074,0.00003571,-0.00002689,-0.00001359,0.00005
 423,0.00005286,-0.00025912,-0.00010286,0.00003373,0.00000569,0.0000124
 1,0.00000170,0.00001077,-0.00000646,0.00000796,0.00020516,0.00002961,-
 0.00004221,0.00019051,-0.00014461,0.00012126,0.00005155,-0.00003382,0.
 00002807,-0.00001667,0.00000128,-0.00000101,-0.00001704,0.00000610,-0.
 00000662,0.00155526,0.00056116,0.00077540,0.00012536,0.00000881,0.0001
 9489,-0.00023080,0.00014024,-0.00009270,-0.00004154,-0.00028114,-0.000
 03327,0.02376080,0.01648345,-0.02262425,0.00004326,-0.00004139,-0.0001
 0268,-0.00000879,-0.00004357,-0.00005665,-0.00000222,0.00002006,0.0000
 0102,-0.00000910,0.00002802,-0.00000689,-0.00002237,-0.00000707,0.0000
 1316,0.00000045,-0.00000334,0.00000289,0.00001151,-0.00000373,-0.00001
 820,0.00000381,-0.00000338,-0.00001827,0.00000425,0.00003344,-0.000037
 28,-0.00000615,-0.00000146,0.00000013,-0.00000412,0.00000013,0.0000041
 2,0.00000242,-0.00000589,0.00001548,-0.00211086,-0.00325024,-0.0055540
 3,-0.00014300,0.00005932,0.00006919,0.00005756,-0.00014617,0.00023978,
 0.00125892,0.00109412,-0.00111354,0.09175929,0.07171802,-0.12366906,-0
 .00719538,-0.00654448,0.00744295,-0.00183287,-0.00079480,0.00211995,-0
 .10630560,-0.07905277,0.14271592,-0.00212992,-0.00082275,0.00013466,-0
 .00213002,0.00082272,0.00013452,0.00160069,-0.00132852,0.00007616,0.00
 160064,0.00132859,0.00007617,-0.00250538,-0.00000012,0.00019602,0.0000
 3130,0.00006136,0.00017683,0.00003134,-0.00006139,0.00017689,0.0026136
 6,0.00000012,-0.00048933,-0.01177073,0.00000016,-0.00865884,-0.0005031
 4,-0.00050773,-0.00045375,-0.00007039,-0.00006497,0.00003868,0.0001095
 0,0.00012921,-0.00004883,-0.00050302,0.00050772,-0.00045378,-0.0000704
 0,0.00006492,0.00003876,0.00010953,-0.00012923,-0.00004883,-0.00008885
 ,-0.00033036,0.00014472,-0.00008902,0.00033069,0.00014500,-0.04154690,
 0.00000018,0.03092648,0.01487380,-0.00000033,0.00727707,-0.00975222,-0
 .00135294,-0.01141982,-0.00975275,0.00135297,-0.01142057,0.00080548,-0
 .00025942,-0.00027306,-0.00031442,0.00030026,-0.00007577,-0.00025744,0
 .00029152,0.00003022,0.00005487,-0.00011286,0.00004829,0.00037769,-0.0
 0017328,0.00053360,-0.00008566,0.00028207,-0.00014232,-0.00000116,0.00
 023521,-0.00021548,-0.00013282,-0.00003221,0.00014452,0.00080547,0.000
 25908,-0.00027310,-0.00025750,-0.00029129,0.00003028,-0.00031439,-0.00
 030019,-0.00007578,0.00005486,0.00011287,0.00004833,0.00037773,0.00017
 320,0.00053353,-0.00000119,-0.00023520,-0.00021549,-0.00008567,-0.0002
 8199,-0.00014231,-0.00013281,0.00003223,0.00014451,0.15310163,-0.00025
 961,-0.00080091,0.00085059,0.00025966,-0.00080095,-0.00085057,0.000647
 45,-0.00007994,-0.00030258,-0.00064744,-0.00007992,0.00030251,-0.00000
 004,0.00078628,0.00000004,-0.00000033,-0.00000532,-0.00015541,0.000000
 33,-0.00000531,0.00015543,0.00000003,-0.00016927,0.,0.00000011,0.00459
 065,-0.00000003,-0.00028638,0.00021526,0.00003835,0.00002186,0.0000394
 1,-0.00001528,0.00002073,0.00001410,-0.00003528,0.00028637,0.00021528,
 -0.00003833,-0.00002187,0.00003941,0.00001527,-0.00002073,0.00001410,0
 .00003529,-0.00154244,0.00260965,0.00133100,0.00154252,0.00260970,-0.0
 0133099,0.00000044,-0.00598485,0.00000001,-0.00000022,-0.00330609,-0.0
 0000007,0.00622262,-0.00015184,0.00783933,-0.00622259,-0.00015171,-0.0
 0783911,-0.00034342,-0.00036457,-0.00023871,0.00015383,-0.00028581,0.0
 0006699,0.00013322,0.00020994,0.00009300,0.00002776,-0.00014944,0.0001
 2690,-0.00015907,0.00013581,0.00001014,0.00010751,-0.00006197,-0.00001
 698,0.00002141,-0.00001965,0.00004957,0.00008307,0.00001739,-0.0001982
 2,0.00034341,-0.00036458,0.00023874,-0.00013322,0.00020995,-0.00009301
 ,-0.00015382,-0.00028584,-0.00006699,-0.00002776,-0.00014945,-0.000126
 91,0.00015906,0.00013579,-0.00001014,-0.00002140,-0.00001964,-0.000049
 56,-0.00010751,-0.00006195,0.00001699,-0.00008306,0.00001739,0.0001982
 2,0.00000158,0.01699968,-0.00346226,-0.00322208,0.00122023,-0.00346222
 ,0.00322212,0.00122046,0.00193669,-0.00124238,-0.00057093,0.00193677,0
 .00124226,-0.00057107,-0.00280206,0.00000012,0.00054003,0.00001032,0.0
 0007122,-0.00004503,0.00001030,-0.00007123,-0.00004504,0.00280474,-0.0
 0000004,-0.00054496,0.00038255,-0.00000003,0.00643848,-0.00030685,-0.0
 0039013,0.00001608,-0.00007314,0.00010023,-0.00002673,0.00000306,0.000
 13043,-0.00008206,-0.00030687,0.00039012,0.00001613,-0.00007314,-0.000
 10024,-0.00002677,0.00000303,-0.00013042,-0.00008208,0.00023051,-0.000
 37184,-0.00047861,0.00023057,0.00037216,-0.00047871,-0.02604390,0.0000
 0029,-0.01482306,0.00522118,-0.00000010,0.00709460,-0.00278751,-0.0005
 4484,-0.00293883,-0.00278779,0.00054469,-0.00293903,0.00083909,-0.0003
 0327,-0.00009200,-0.00033624,0.00039495,-0.00002545,-0.00032571,0.0002
 5406,-0.00000636,-0.00001163,-0.00003843,0.00006434,0.00076075,-0.0001
 3663,0.00029900,-0.00023058,0.00040799,-0.00003304,0.00004353,0.000256
 68,-0.00025920,-0.00034111,0.00000649,0.00032083,0.00083900,0.00030344
 ,-0.00009193,-0.00032569,-0.00025417,-0.00000639,-0.00033625,-0.000394
 92,-0.00002549,-0.00001162,0.00003841,0.00006430,0.00076070,0.00013664
 ,0.00029905,0.00004357,-0.00025671,-0.00025919,-0.00023057,-0.00040804
 ,-0.00003305,-0.00034109,-0.00000648,0.00032082,-0.08278311,-0.0000004
 6,0.05280243,-0.01620701,-0.01651808,-0.00145888,-0.01620722,0.0165179
 8,-0.00145962,-0.00008632,0.00221855,-0.00041765,-0.00008648,-0.002218
 17,-0.00041703,0.00106088,-0.00000039,-0.00000908,0.00045793,0.0001810
 8,-0.00002388,0.00045814,-0.00018118,-0.00002392,-0.00157785,0.0000000
 6,0.00019752,-0.15322020,0.00000069,-0.01047539,-0.00450430,-0.0139428
 1,0.00219619,0.00014622,0.00010597,-0.00009603,-0.00342869,-0.00007342
 ,-0.00096661,-0.00450406,0.01394311,0.00219599,0.00014630,-0.00010610,
 -0.00009571,-0.00342848,0.00007323,-0.00096663,-0.04576202,0.00820634,
 -0.00102258,-0.04576250,-0.00820605,-0.00102161,-0.02615532,0.00000058
 ,-0.07093119,-0.01844267,0.00000029,-0.01682777,-0.00226795,0.00219824
 ,0.00124613,-0.00226738,-0.00219796,0.00124667,0.00235386,0.00917370,-
 0.00105630,0.00021087,0.00068201,-0.00003982,-0.00057659,0.00209223,0.
 00126239,0.00001603,0.00029832,-0.00014938,0.00000840,-0.00054637,0.00
 023480,0.00114939,-0.00039227,-0.00040877,0.00016389,0.00081709,-0.000
 02734,0.00066751,-0.00099940,-0.00019900,0.00235374,-0.00917485,-0.001
 05644,-0.00057673,-0.00209161,0.00126255,0.00021107,-0.00068194,-0.000
 03974,0.00001600,-0.00029828,-0.00014931,0.00000863,0.00054579,0.00023
 438,0.00016371,-0.00081697,-0.00002735,0.00114930,0.00039278,-0.000408
 71,0.00066755,0.00099956,-0.00019899,-0.09405241,-0.00000207,0.1113229
 9,0.42770477,-0.01666420,0.00202170,-0.00023570,0.01666467,0.00202156,
 0.00023524,-0.00152973,-0.00435183,0.00060776,0.00152896,-0.00435235,-
 0.00060769,0.00000056,-0.00060178,-0.00000018,-0.00078889,0.00019667,0
 .00066287,0.00078901,0.00019674,-0.00066272,-0.00000028,0.00006921,0.0
 0000016,0.00000060,-0.05572229,0.00000017,-0.01595056,-0.01040030,-0.0
 0414204,0.00052374,-0.00018271,0.00047751,0.00103132,0.00059222,-0.000
 22552,0.01595053,-0.01040021,0.00414181,-0.00052376,-0.00018270,-0.000
 47741,-0.00103130,0.00059212,0.00022553,0.00012502,-0.05277942,-0.0007
 1288,-0.00012505,-0.05277933,0.00071320,0.00000023,-0.05009511,0.00000
 074,-0.00000006,0.00200012,0.00000004,0.01119769,0.00423399,0.01011145
 ,-0.01119715,0.00423417,-0.01011145,0.00412621,-0.01248964,-0.00460042
 ,-0.00123865,0.00035383,0.00055495,-0.00077088,0.00063387,0.00058305,-
 0.00073264,-0.00011813,0.00125877,-0.00023612,-0.01082148,0.01099368,-
 0.00031421,0.00059143,-0.00114361,-0.00068962,-0.00052711,-0.00085658,
 0.00007712,-0.00097355,-0.00031426,-0.00412633,-0.01248936,0.00460008,
 0.00077097,0.00063365,-0.00058310,0.00123883,0.00035374,-0.00055487,0.
 00073265,-0.00011808,-0.00125873,0.00023590,-0.01082146,-0.01099355,0.
 00068975,-0.00052716,0.00085659,0.00031425,0.00059149,0.00114368,-0.00
 007697,-0.00097343,0.00031416,-0.00000189,-0.01556078,0.00000015,0.000
 00032,0.28795170,0.00035623,-0.00245677,0.00079048,0.00035638,0.002456
 67,0.00079028,0.00186816,0.00017682,0.00203648,0.00186807,-0.00017691,
 0.00203674,-0.00222997,-0.00000006,-0.00050621,0.00043781,0.00007707,0
 .00055574,0.00043780,-0.00007706,0.00055571,0.00209210,0.00000013,-0.0
 0038055,-0.01662985,0.00000014,-0.03254948,-0.00116725,-0.00542877,0.0
 0021546,0.00027304,-0.00045471,0.00035140,-0.00155488,-0.00017185,0.00
 021452,-0.00116711,0.00542859,0.00021556,0.00027300,0.00045471,0.00035
 142,-0.00155491,0.00017187,0.00021454,-0.00226971,-0.00101125,-0.04438
 834,-0.00226976,0.00101172,-0.04438831,-0.03564752,0.00000037,-0.02263
 697,-0.00894852,-0.00000002,-0.00950507,-0.00192476,0.00108394,-0.0017
 4081,-0.00192459,-0.00108395,-0.00174082,-0.00198183,-0.00896662,-0.00
 041722,-0.00008382,0.00017424,0.00000544,0.00120439,-0.00205175,-0.000
 08036,-0.00014122,-0.00078073,0.00055362,0.00224103,0.01668047,-0.0012
 1235,0.00055775,0.00238308,-0.00277505,0.00031078,0.00115457,-0.000127
 79,0.00020100,0.00127583,-0.00043781,-0.00198173,0.00896642,-0.0004172
 0,0.00120434,0.00205192,-0.00008032,-0.00008380,-0.00017424,0.00000542
 ,-0.00014119,0.00078072,0.00055362,0.00224105,-0.01668054,-0.00121249,
 0.00031080,-0.00115459,-0.00012780,0.00055774,-0.00238304,-0.00277505,
 0.00020096,-0.00127588,-0.00043779,0.07613488,0.00000031,-0.04623175,-
 0.01142490,-0.00000087,0.20472310\\-0.00000207,-0.00001062,0.00001165,
 -0.00000203,0.00001061,0.00001162,-0.00000257,0.00000070,-0.00000954,-
 0.00000259,-0.00000070,-0.00000955,-0.00000136,0.00000001,0.00000631,0
 .00000247,-0.00000014,0.00002319,0.00000247,0.00000014,0.00002320,0.00
 000288,0.,0.00001793,0.00000367,0.00000004,0.00000562,-0.00000553,0.00
 000128,0.00000262,-0.00000577,-0.00000344,0.00000218,0.00000094,0.0000
 0144,0.00000673,-0.00000554,-0.00000129,0.00000262,-0.00000577,0.00000
 345,0.00000218,0.00000094,-0.00000145,0.00000672,0.00000174,0.00000402
 ,0.00000555,0.00000171,-0.00000402,0.00000555,0.00004657,-0.00000003,0
 .00000239,-0.00002823,0.,-0.00002233,-0.00000418,0.00000557,-0.0000228
 7,-0.00000414,-0.00000558,-0.00002290,-0.00000712,-0.00000133,-0.00001
 403,-0.00000213,-0.00000439,-0.00000269,-0.00000554,0.00000076,-0.0000
 0716,-0.00000078,0.00000398,-0.00000289,0.00000919,-0.00000143,-0.0000
 0494,0.00000753,-0.00000081,-0.00000142,0.00000312,0.00000391,-0.00000
 321,0.00000189,-0.00000291,0.00000028,-0.00000711,0.00000131,-0.000014
 04,-0.00000554,-0.00000076,-0.00000716,-0.00000213,0.00000438,-0.00000
 269,-0.00000078,-0.00000399,-0.00000289,0.00000919,0.00000143,-0.00000
 496,0.00000312,-0.00000391,-0.00000321,0.00000754,0.00000082,-0.000001
 42,0.00000188,0.00000291,0.00000027,-0.00001659,0.00000008,0.00002575,
 0.00001066,-0.00000007,-0.00000246\\\@
 The archive entry for this job was punched.


 I HAVE NOT FAILED, I HAVE ONLY DISCOVERED 10,000
 WAYS THAT DIDN'T WORK.  -- THOMAS A. EDISON
 Job cpu time:       2 days 11 hours 49 minutes 45.4 seconds.
 Elapsed time:       0 days  1 hours 15 minutes 20.6 seconds.
 File lengths (MBytes):  RWF=   1938 Int=      0 D2E=      0 Chk=     70 Scr=      1
 Normal termination of Gaussian 16 at Fri Mar  8 15:19:40 2024.
