 Entering Gaussian System, Link 0=/cm/shared/apps//g16/g16
 Input=QST2_ZRhMeH_sigma_ZRhMeH.gjf
 Output=QST2_ZRhMeH_sigma_ZRhMeH.log
 Initial command:
 /cm/shared/apps//g16/l1.exe "/local/mvanvleet/pbs.14071.josephine/Gau-404383.inp" -scrdir="/local/mvanvleet/pbs.14071.josephine/"
 Entering Link 1 = /cm/shared/apps//g16/l1.exe PID=    404386.
  
 Copyright (c) 1988-2019, Gaussian, Inc.  All Rights Reserved.
  
 This is part of the Gaussian(R) 16 program.  It is based on
 the Gaussian(R) 09 system (copyright 2009, Gaussian, Inc.),
 the Gaussian(R) 03 system (copyright 2003, Gaussian, Inc.),
 the Gaussian(R) 98 system (copyright 1998, Gaussian, Inc.),
 the Gaussian(R) 94 system (copyright 1995, Gaussian, Inc.),
 the Gaussian 92(TM) system (copyright 1992, Gaussian, Inc.),
 the Gaussian 90(TM) system (copyright 1990, Gaussian, Inc.),
 the Gaussian 88(TM) system (copyright 1988, Gaussian, Inc.),
 the Gaussian 86(TM) system (copyright 1986, Carnegie Mellon
 University), and the Gaussian 82(TM) system (copyright 1983,
 Carnegie Mellon University). Gaussian is a federally registered
 trademark of Gaussian, Inc.
  
 This software contains proprietary and confidential information,
 including trade secrets, belonging to Gaussian, Inc.
  
 This software is provided under written license and may be
 used, copied, transmitted, or stored only in accord with that
 written license.
  
 The following legend is applicable only to US Government
 contracts under FAR:
  
                    RESTRICTED RIGHTS LEGEND
  
 Use, reproduction and disclosure by the US Government is
 subject to restrictions as set forth in subparagraphs (a)
 and (c) of the Commercial Computer Software - Restricted
 Rights clause in FAR 52.227-19.
  
 Gaussian, Inc.
 340 Quinnipiac St., Bldg. 40, Wallingford CT 06492
  
  
 ---------------------------------------------------------------
 Warning -- This program may not be used in any manner that
 competes with the business of Gaussian, Inc. or will provide
 assistance to any competitor of Gaussian, Inc.  The licensee
 of this program is prohibited from giving any competitor of
 Gaussian, Inc. access to this program.  By using this program,
 the user acknowledges that Gaussian, Inc. is engaged in the
 business of creating and licensing software in the field of
 computational chemistry and represents and warrants to the
 licensee that it is not a competitor of Gaussian, Inc. and that
 it will not use this program in any manner prohibited above.
 ---------------------------------------------------------------
  

 Cite this work as:
 Gaussian 16, Revision C.01,
 M. J. Frisch, G. W. Trucks, H. B. Schlegel, G. E. Scuseria, 
 M. A. Robb, J. R. Cheeseman, G. Scalmani, V. Barone, 
 G. A. Petersson, H. Nakatsuji, X. Li, M. Caricato, A. V. Marenich, 
 J. Bloino, B. G. Janesko, R. Gomperts, B. Mennucci, H. P. Hratchian, 
 J. V. Ortiz, A. F. Izmaylov, J. L. Sonnenberg, D. Williams-Young, 
 F. Ding, F. Lipparini, F. Egidi, J. Goings, B. Peng, A. Petrone, 
 T. Henderson, D. Ranasinghe, V. G. Zakrzewski, J. Gao, N. Rega, 
 G. Zheng, W. Liang, M. Hada, M. Ehara, K. Toyota, R. Fukuda, 
 J. Hasegawa, M. Ishida, T. Nakajima, Y. Honda, O. Kitao, H. Nakai, 
 T. Vreven, K. Throssell, J. A. Montgomery, Jr., J. E. Peralta, 
 F. Ogliaro, M. J. Bearpark, J. J. Heyd, E. N. Brothers, K. N. Kudin, 
 V. N. Staroverov, T. A. Keith, R. Kobayashi, J. Normand, 
 K. Raghavachari, A. P. Rendell, J. C. Burant, S. S. Iyengar, 
 J. Tomasi, M. Cossi, J. M. Millam, M. Klene, C. Adamo, R. Cammi, 
 J. W. Ochterski, R. L. Martin, K. Morokuma, O. Farkas, 
 J. B. Foresman, and D. J. Fox, Gaussian, Inc., Wallingford CT, 2019.
 
 ******************************************
 Gaussian 16:  ES64L-G16RevC.01  3-Jul-2019
                 8-Mar-2024 
 ******************************************
 %nprocshared=48
 Will use up to   48 processors via shared memory.
 %chk=QST2_ZRhMeH_sigma_ZRhMeH.chk
 %mem=16GB
 ---------------------------------------------------------------
 # wb97xd def2TZVPP SCRF=(solvent=dichloromethane) opt=qst2 freq
 ---------------------------------------------------------------
 1/5=1,18=20,26=3,27=202,38=1/1,3;
 2/9=110,12=2,17=6,18=5,40=1/2;
 3/5=44,7=202,11=2,25=1,30=1,70=2201,71=1,72=9,74=-58/1,2,3;
 4//1;
 5/5=2,38=5,53=9/2;
 6/7=2,8=2,9=2,10=2,28=1/1;
 7//1,2,3,16;
 1/5=1,18=20,26=3,27=202/3(2);
 2/9=110/2;
 99//99;
 2/9=110/2;
 3/5=44,7=202,11=2,25=1,30=1,70=2205,71=1,72=9,74=-58/1,2,3;
 4/5=5,16=3,69=1/1;
 5/5=2,38=5,53=9/2;
 7//1,2,3,16;
 1/5=1,18=20,26=3,27=202/3(-5);
 2/9=110/2;
 6/7=2,8=2,9=2,10=2,19=2,28=1/1;
 99/9=1/99;
 -----------------------
 ts_xyz/ZRhMeH_sigma.xyz
 -----------------------
 Symbolic Z-matrix:
 Charge =  0 Multiplicity = 1
 C                     1.54481   1.16606  -0.23112 
 C                     1.54483  -1.16603  -0.23114 
 C                     2.89209   1.21498  -0.02306 
 C                     2.89211  -1.21493  -0.02307 
 C                     3.66147   0.00003   0.11241 
 H                     3.40594   2.16547   0.03524 
 H                     3.40599  -2.1654    0.03521 
 O                     4.89445   0.00005   0.32049 
 N                     0.88106   0.00001  -0.31108 
 C                     0.64724   2.34185  -0.50578 
 H                     0.57344   2.44829  -1.5889 
 H                     1.0542    3.27421  -0.10625 
 C                     0.64729  -2.34183  -0.5058 
 H                     0.57347  -2.44827  -1.58892 
 H                     1.05428  -3.2742   -0.10628 
 N                    -0.73413   2.11422   0.00805 
 N                    -0.73408  -2.11424   0.00805 
 C                    -3.45377   0.00001   0.30915 
 H                    -2.81246   0.00058   1.20165 
 H                    -4.07043   0.894     0.31994 
 H                    -4.0696   -0.89455   0.32048 
 C                    -1.6756    2.96163  -0.73649 
 H                    -2.6746    2.83011  -0.32684 
 H                    -1.39926   4.01877  -0.65904 
 H                    -1.68094   2.66457  -1.78231 
 C                    -0.77948   2.48265   1.43519 
 H                    -0.56499   3.54951   1.5619 
 H                    -1.76775   2.26905   1.83559 
 H                    -0.04325   1.90271   1.98677 
 C                    -1.67554  -2.96167  -0.73647 
 H                    -1.39919  -4.0188   -0.65901 
 H                    -2.67454  -2.83016  -0.32681 
 H                    -1.6809   -2.66462  -1.78229 
 C                    -0.7794   -2.48266   1.4352 
 H                    -1.76767  -2.26909   1.8356 
 H                    -0.56488  -3.54953   1.56191 
 H                    -0.04318  -1.90271   1.98676 
 H                    -2.89802  -0.00005  -0.66947 
 Rh                   -1.06217  -0.00002  -0.11951 
 
 Add virtual bond connecting atoms Rh39       and H38        Dist= 3.62D+00.
 -----------------
 ts_xyz/ZRhMeH.xyz
 -----------------
 Symbolic Z-matrix:
 Charge =  0 Multiplicity = 1
 C                    -1.53761  -1.1667   -0.31252 
 C                    -1.53761   1.1667   -0.31252 
 C                    -2.86725  -1.22066  -0.01544 
 C                    -2.86725   1.22066  -0.01544 
 C                    -3.62816   0.        0.15003 
 H                    -3.37404  -2.16862   0.10784 
 H                    -3.37404   2.16862   0.10784 
 O                    -4.84551   0.        0.42795 
 N                    -0.89467   0.       -0.46519 
 C                    -0.61747  -2.33493  -0.56405 
 H                    -0.50251  -2.44084  -1.64318 
 H                    -1.02318  -3.27132  -0.17532 
 C                    -0.61747   2.33493  -0.56405 
 H                    -0.50251   2.44084  -1.64318 
 H                    -1.02318   3.27132  -0.17532 
 N                     0.75211  -2.10234  -0.00155 
 N                     0.75211   2.10234  -0.00155 
 C                     3.08997   0.        0.51191 
 H                     3.07465   0.        1.61221 
 H                     3.66536  -0.87815   0.20157 
 H                     3.66537   0.87815   0.20156 
 C                     1.7083   -2.99288  -0.67531 
 H                     2.69156  -2.85925  -0.23303 
 H                     1.40461  -4.03852  -0.56701 
 H                     1.75696  -2.73585  -1.73011 
 C                     0.73808  -2.40434   1.44287 
 H                     0.46083  -3.44793   1.61508 
 H                     1.72609  -2.22011   1.85758 
 H                     0.01356  -1.76374   1.94575 
 C                     1.7083    2.99288  -0.67531 
 H                     1.40461   4.03852  -0.56701 
 H                     2.69156   2.85925  -0.23303 
 H                     1.75696   2.73585  -1.73011 
 C                     0.73808   2.40434   1.44287 
 H                     1.72609   2.22011   1.85758 
 H                     0.46083   3.44793   1.61508 
 H                     0.01356   1.76374   1.94575 
 H                     1.70328   0.       -1.50468 
 Rh                    1.11603   0.       -0.12199 
 
 Iteration  1 RMS(Cart)=  0.05577607 RMS(Int)=  0.46542745
 Iteration  2 RMS(Cart)=  0.03847436 RMS(Int)=  0.45216473
 Iteration  3 RMS(Cart)=  0.02383252 RMS(Int)=  0.44509091
 Iteration  4 RMS(Cart)=  0.02000473 RMS(Int)=  0.44164541
 Iteration  5 RMS(Cart)=  0.00369938 RMS(Int)=  0.43922535
 Iteration  6 RMS(Cart)=  0.00312669 RMS(Int)=  0.43717836
 Iteration  7 RMS(Cart)=  0.00271170 RMS(Int)=  0.43542439
 Iteration  8 RMS(Cart)=  0.00235363 RMS(Int)=  0.43391800
 Iteration  9 RMS(Cart)=  0.00204149 RMS(Int)=  0.43262370
 Iteration 10 RMS(Cart)=  0.00176916 RMS(Int)=  0.43151149
 Iteration 11 RMS(Cart)=  0.00153185 RMS(Int)=  0.43055568
 Iteration 12 RMS(Cart)=  0.00132534 RMS(Int)=  0.42973417
 Iteration 13 RMS(Cart)=  0.00114588 RMS(Int)=  0.42902803
 Iteration 14 RMS(Cart)=  0.00099011 RMS(Int)=  0.42842098
 Iteration 15 RMS(Cart)=  0.00085506 RMS(Int)=  0.42789906
 Iteration 16 RMS(Cart)=  0.00073809 RMS(Int)=  0.42745029
 Iteration 17 RMS(Cart)=  0.00063686 RMS(Int)=  0.42706439
 Iteration 18 RMS(Cart)=  0.00054931 RMS(Int)=  0.42673251
 Iteration 19 RMS(Cart)=  0.00047365 RMS(Int)=  0.42644707
 Iteration 20 RMS(Cart)=  0.00040830 RMS(Int)=  0.42620155
 Iteration 21 RMS(Cart)=  0.00035189 RMS(Int)=  0.42599037
 Iteration 22 RMS(Cart)=  0.00030320 RMS(Int)=  0.42580870
 Iteration 23 RMS(Cart)=  0.00026121 RMS(Int)=  0.42565242
 Iteration 24 RMS(Cart)=  0.00022500 RMS(Int)=  0.42551797
 Iteration 25 RMS(Cart)=  0.00019378 RMS(Int)=  0.42540230
 Iteration 26 RMS(Cart)=  0.00016688 RMS(Int)=  0.42530278
 Iteration 27 RMS(Cart)=  0.00014369 RMS(Int)=  0.42521716
 Iteration 28 RMS(Cart)=  0.00012372 RMS(Int)=  0.42514348
 Iteration 29 RMS(Cart)=  0.00010651 RMS(Int)=  0.42508009
 Iteration 30 RMS(Cart)=  0.00009170 RMS(Int)=  0.42502555
 Iteration 31 RMS(Cart)=  0.00007894 RMS(Int)=  0.42497862
 Iteration 32 RMS(Cart)=  0.00006795 RMS(Int)=  0.42493824
 Iteration 33 RMS(Cart)=  0.00005849 RMS(Int)=  0.42490349
 Iteration 34 RMS(Cart)=  0.00005034 RMS(Int)=  0.42487359
 Iteration 35 RMS(Cart)=  0.00004333 RMS(Int)=  0.42484786
 Iteration 36 RMS(Cart)=  0.00003729 RMS(Int)=  0.42482572
 Iteration 37 RMS(Cart)=  0.00003210 RMS(Int)=  0.42480666
 Iteration 38 RMS(Cart)=  0.00002762 RMS(Int)=  0.42479027
 Iteration 39 RMS(Cart)=  0.00002377 RMS(Int)=  0.42477616
 Iteration 40 RMS(Cart)=  0.00002046 RMS(Int)=  0.42476402
 Iteration 41 RMS(Cart)=  0.00001761 RMS(Int)=  0.42475357
 Iteration 42 RMS(Cart)=  0.00001515 RMS(Int)=  0.42474458
 Iteration 43 RMS(Cart)=  0.00001304 RMS(Int)=  0.42473685
 Iteration 44 RMS(Cart)=  0.00001122 RMS(Int)=  0.42473019
 Iteration 45 RMS(Cart)=  0.00000966 RMS(Int)=  0.42472446
 Iteration 46 RMS(Cart)=  0.00000831 RMS(Int)=  0.42471953
 Iteration 47 RMS(Cart)=  0.00000715 RMS(Int)=  0.42471529
 Iteration 48 RMS(Cart)=  0.00000616 RMS(Int)=  0.42471164
 Iteration 49 RMS(Cart)=  0.00000530 RMS(Int)=  0.42470850
 Iteration 50 RMS(Cart)=  0.00000456 RMS(Int)=  0.42470580
 Iteration 51 RMS(Cart)=  0.00000392 RMS(Int)=  0.42470347
 Iteration 52 RMS(Cart)=  0.00000338 RMS(Int)=  0.42470147
 Iteration 53 RMS(Cart)=  0.00000291 RMS(Int)=  0.42469975
 Iteration 54 RMS(Cart)=  0.00000250 RMS(Int)=  0.42469826
 Iteration 55 RMS(Cart)=  0.00000215 RMS(Int)=  0.42469699
 Iteration 56 RMS(Cart)=  0.00000185 RMS(Int)=  0.42469589
 Iteration 57 RMS(Cart)=  0.00000159 RMS(Int)=  0.42469494
 Iteration 58 RMS(Cart)=  0.00000137 RMS(Int)=  0.42469413
 Iteration 59 RMS(Cart)=  0.00000118 RMS(Int)=  0.42469343
 Iteration 60 RMS(Cart)=  0.00000102 RMS(Int)=  0.42469283
 Iteration 61 RMS(Cart)=  0.00000087 RMS(Int)=  0.42469231
 Iteration  1 RMS(Cart)=  0.00000075 RMS(Int)=  0.42469187
 Iteration  1 RMS(Cart)=  0.00000065 RMS(Int)=  0.42469148
 Iteration  1 RMS(Cart)=  0.00000056 RMS(Int)=  0.42469115
 Iteration  1 RMS(Cart)=  0.00000048 RMS(Int)=  0.42469087
 Iteration  1 RMS(Cart)=  0.00000041 RMS(Int)=  0.42469062
 Iteration  1 RMS(Cart)=  0.00000035 RMS(Int)=  0.42469041
 Iteration  1 RMS(Cart)=  0.00000031 RMS(Int)=  0.42469023
 Iteration  1 RMS(Cart)=  0.00000026 RMS(Int)=  0.42469008
 Iteration  1 RMS(Cart)=  0.00000023 RMS(Int)=  0.42468994
   Var     Old X     New X   DQ Goal   DQ Act.  Rel. Err.   Overall
     1    2.5778    2.5761   -0.0006   -0.0017
     2    2.5400    2.5257   -0.0031   -0.0143
     3    2.8431    2.8403    0.0035   -0.0028
     4    2.5778    2.5782   -0.0006    0.0003
     5    2.5400    2.5419   -0.0031    0.0019
     6    2.8431    2.8582    0.0035    0.0151
     7    2.7296    2.7339    0.0033    0.0043
     8    2.0448    2.0447   -0.0001   -0.0001
     9    2.7296    2.7353    0.0033    0.0057
    10    2.0448    2.0447   -0.0001   -0.0001
    11    2.3629    2.3613   -0.0016   -0.0016
    12    3.6900    3.7528    0.0823    0.0628    0.7634
    13    2.0614    2.0610   -0.0004   -0.0004
    14    2.0654    2.0645   -0.0009   -0.0009
    15    2.8182    2.8322    0.0070    0.0140
    16    2.0614    2.0610   -0.0004   -0.0004
    17    2.0654    2.0645   -0.0009   -0.0009
    18    2.8182    2.8434    0.0070    0.0252
    19    2.7766    2.7774    0.0008    0.0008
    20    2.7866    2.7877    0.0010    0.0010
    21    4.0503    4.0534   -0.0060    0.0031
    22    2.7765    2.7774    0.0008    0.0008
    23    2.7867    2.7877    0.0010    0.0010
    24    4.0503    4.0334   -0.0060   -0.0169
    25    2.0768    2.0782    0.0013    0.0013
    26    2.0524    2.0606    0.0082    0.0082
    27    2.0524    2.0606    0.0082    0.0082
    28    2.1267    3.4424    1.2491    1.3157    1.0533
    29    4.5915    4.2273   -0.3368   -0.3642    1.0813
    30    2.0555    2.0542   -0.0012   -0.0012
    31    2.0700    2.0689   -0.0011   -0.0011
    32    2.0545    2.0541   -0.0004   -0.0004
    33    2.0703    2.0683   -0.0020   -0.0020
    34    2.0550    2.0548   -0.0002   -0.0002
    35    2.0550    2.0575    0.0024    0.0024
    36    2.0700    2.0689   -0.0011   -0.0011
    37    2.0555    2.0542   -0.0012   -0.0012
    38    2.0545    2.0541   -0.0004   -0.0004
    39    2.0550    2.0548   -0.0002   -0.0002
    40    2.0703    2.0683   -0.0020   -0.0020
    41    2.0550    2.0574    0.0024    0.0024
    42    3.6216    3.1946   -0.3914   -0.4270    1.0909
    43    2.1269    2.1325   -0.0006    0.0056
    44    2.2007    2.2081    0.0072    0.0075
    45    1.9525    1.9350   -0.0054   -0.0175
    46    2.1269    2.1246   -0.0006   -0.0023
    47    2.2007    2.1997    0.0072   -0.0009
    48    1.9525    1.9522   -0.0054   -0.0003
    49    2.1062    2.0905   -0.0036   -0.0157
    50    2.1045    2.0819    0.0044   -0.0226
    51    2.0724    2.0466   -0.0008   -0.0258
    52    2.1062    2.0933   -0.0036   -0.0129
    53    2.1045    2.0807    0.0044   -0.0238
    54    2.0724    2.0454   -0.0008   -0.0270
    55    1.9987    2.0082    0.0036    0.0094
    56    2.1422    2.1139   -0.0018   -0.0283
    57    2.1422    2.1140   -0.0018   -0.0283
    58    2.1004    2.1071    0.0053    0.0067
    59    2.0779    2.0782   -0.0182    0.0003   -0.0158
    60    2.0779    2.0449   -0.0182   -0.0330    1.8133
    61    1.8733    1.8919    0.0035    0.0186
    62    1.9582    1.9509    0.0002   -0.0073
    63    1.9503    1.9403    0.0023   -0.0100
    64    1.8806    1.8808    0.0017    0.0001
    65    1.8696    1.8642   -0.0022   -0.0054
    66    1.9275    1.9323   -0.0054    0.0048
    67    1.8733    1.8894    0.0035    0.0161
    68    1.9582    1.9514    0.0002   -0.0069
    69    1.9503    1.9438    0.0023   -0.0064
    70    1.8806    1.8812    0.0017    0.0005
    71    1.8696    1.8664   -0.0022   -0.0032
    72    1.9275    1.9282   -0.0054    0.0007
    73    1.9081    1.9085   -0.0014    0.0005
    74    1.9005    1.9012    0.0016    0.0007
    75    1.8461    1.8542    0.0080    0.0081
    76    1.9035    1.9049    0.0022    0.0014
    77    2.0272    2.0282    0.0104    0.0010    0.0992
    78    1.8748    1.8631   -0.0215   -0.0117    0.5467
    79    1.9081    1.9128   -0.0014    0.0048
    80    1.9005    1.9077    0.0016    0.0072
    81    1.8461    1.8389    0.0080   -0.0072
    82    1.9035    1.8993    0.0022   -0.0042
    83    2.0272    2.0349    0.0104    0.0077    0.7368
    84    1.8748    1.8667   -0.0215   -0.0081    0.3786
    85    1.8995    1.8541   -0.0168   -0.0454    2.6941
    86    1.8995    1.9119   -0.0168    0.0124   -0.7370
    87    2.0020    2.2959    0.2616    0.2939    1.1234
    88    1.1251    1.4610    0.3713    0.3360    0.9049
    89    1.9347    1.9208   -0.0365   -0.0139    0.3795
    90    1.8640    1.7220   -0.1145   -0.1421    1.2410
    91    2.1659    2.1107   -0.0843   -0.0552    0.6553
    92    1.8640    1.7367   -0.1145   -0.1273    1.1124
    93    2.1651    2.1120   -0.0839   -0.0531    0.6327
    94    1.9049    1.9047   -0.0002   -0.0002
    95    1.9381    1.9348   -0.0033   -0.0033
    96    1.9103    1.9091   -0.0012   -0.0012
    97    1.8984    1.9019    0.0035    0.0035
    98    1.9015    1.9019    0.0004    0.0004
    99    1.9102    1.9110    0.0008    0.0008
   100    1.9275    1.9290    0.0014    0.0014
   101    1.9126    1.9099   -0.0027   -0.0027
   102    1.9143    1.9148    0.0004    0.0004
   103    1.9035    1.9064    0.0029    0.0029
   104    1.9051    1.9007   -0.0044   -0.0044
   105    1.9005    1.9030    0.0025    0.0025
   106    1.9381    1.9348   -0.0033   -0.0033
   107    1.9049    1.9047   -0.0002   -0.0002
   108    1.9103    1.9091   -0.0012   -0.0012
   109    1.8984    1.9019    0.0035    0.0035
   110    1.9102    1.9111    0.0008    0.0008
   111    1.9015    1.9019    0.0004    0.0004
   112    1.9126    1.9099   -0.0027   -0.0027
   113    1.9275    1.9289    0.0014    0.0014
   114    1.9143    1.9148    0.0004    0.0004
   115    1.9035    1.9064    0.0029    0.0029
   116    1.9005    1.9030    0.0025    0.0025
   117    1.9051    1.9007   -0.0044   -0.0044
   118    1.7962    1.3793   -0.3961   -0.4169    1.0525
   119    1.4238    1.4055   -0.0060   -0.0183
   120    1.4238    1.4357   -0.0060    0.0119
   121    3.1352    3.0816   -0.0036   -0.0535
   122    3.2212    3.2332    0.0315    0.0120    0.3798
   123    2.7523    2.3091   -0.4744   -0.4432    0.9341
   124    2.8116    2.8054   -0.0154   -0.0062    0.4054
   125    1.7114    1.6762    0.0024   -0.0352
   126    1.7352    1.6991   -0.0229   -0.0361    1.5791
   127    1.7114    1.7501    0.0024    0.0386
   128    1.7352    1.7559   -0.0229    0.0207   -0.9054
   129    0.4684    0.9264    0.5057    0.4580    0.9055
   130    0.0063   -0.0908   -0.0052   -0.0971
   131    3.1388    2.6635   -3.1388   -0.4752    0.1514
   132   -3.0440   -3.0881   -0.0284   -0.0441    1.5519
   133    0.0885   -0.3338   -0.0204   -0.4223   20.7497
   134   -0.0392    0.0265    0.0274    0.0658    2.3965
   135    2.8522    2.8144   -0.0748   -0.0378    0.5055
   136    3.0229    3.0442    0.0479    0.0213    0.4443
   137   -0.3689   -0.4512   -0.0544   -0.0823    1.5145
   138    1.6218    1.6435    0.0614    0.0218    0.3549
   139   -0.4410   -0.4268    0.0569    0.0142    0.2490
   140   -2.6167   -2.5958    0.0622    0.0209    0.3361
   141   -1.4363   -1.3675    0.0401    0.0688    1.7166
   142    2.7842    2.8454    0.0357    0.0612    1.7174
   143    0.6084    0.6764    0.0409    0.0680    1.6610
   144   -0.0063    0.0917    0.0052    0.0979
   145   -3.1388   -2.6638    3.1387    0.4750    0.1513
   146    3.0440    3.0991    0.0284    0.0551    1.9392
   147   -0.0884    0.3437    0.0203    0.4322   21.2518
   148    0.0393   -0.0269   -0.0275   -0.0661    2.4091
   149   -2.8522   -2.8212    0.0748    0.0310    0.4139
   150   -3.0229   -3.0517   -0.0479   -0.0288    0.6015
   151    0.3689    0.4371    0.0544    0.0683    1.2562
   152   -1.6218   -1.6492   -0.0614   -0.0274    0.4463
   153    0.4409    0.4203   -0.0569   -0.0206    0.3618
   154    2.6167    2.5869   -0.0622   -0.0297    0.4780
   155    1.4363    1.3696   -0.0401   -0.0667    1.6640
   156   -2.7842   -2.8441   -0.0357   -0.0599    1.6810
   157   -0.6084   -0.6775   -0.0409   -0.0691    1.6880
   158    0.0245    0.1452   -0.0155    0.1207   -7.7679
   159   -3.1256    2.9650   -0.0052    6.0906
   160   -3.1082   -2.6168    3.1182    0.4914    0.1576
   161    0.0250    0.2030   -0.0131    0.1781  -13.6087
   162   -0.0245   -0.1459    0.0155   -0.1214   -7.8159
   163    3.1256   -2.9657    0.0052   -6.0913
   164    3.1082    2.6171   -3.1181   -0.4910    0.1575
   165   -0.0250   -0.2027    0.0131   -0.1777  -13.5730
   166    0.0483    0.1017    0.0422    0.0534    1.2647
   167   -2.9430   -2.8884    0.0525    0.0546    1.0403
   168    1.6943    1.6962    0.0474    0.0019    0.0402
   169    2.9430    2.9020   -0.0525   -0.0410    0.7808
   170   -0.0483   -0.0881   -0.0422   -0.0398    0.9421
   171   -1.6942   -1.7867   -0.0474   -0.0925    1.9526
   172   -2.7289   -2.7675   -0.0260   -0.0386    1.4835
   173    1.4762    1.4352   -0.0289   -0.0410    1.4188
   174   -0.5341   -0.5659   -0.0088   -0.0319
   175   -0.6819   -0.7069   -0.0218   -0.0249    1.1429
   176   -2.7600   -2.7873   -0.0247   -0.0273    1.1066
   177    1.5129    1.4947   -0.0046   -0.0182
   178    1.3615    1.3362   -0.0239   -0.0253    1.0603
   179   -0.7166   -0.7443   -0.0268   -0.0277    1.0357
   180   -2.7268   -2.7454   -0.0067   -0.0186
   181    2.7289    2.7668    0.0260    0.0379    1.4566
   182   -1.4762   -1.4362    0.0289    0.0399    1.3827
   183    0.5341    0.5643    0.0088    0.0302
   184    0.6819    0.7059    0.0218    0.0240    1.0979
   185    2.7600    2.7860    0.0247    0.0260    1.0530
   186   -1.5129   -1.4966    0.0046    0.0163
   187   -1.3615   -1.3367    0.0239    0.0248    1.0371
   188    0.7166    0.7434    0.0267    0.0268    1.0021
   189    2.7269    2.7440    0.0067    0.0171
   190   -3.0932   -3.0945    0.0002   -0.0013
   191   -1.0005   -0.9996    0.0024    0.0009
   192    1.1104    1.1094    0.0005   -0.0010
   193   -1.0170   -1.0163    0.0027    0.0006
   194    1.0757    1.0785    0.0049    0.0028
   195   -3.0966   -3.0956    0.0030    0.0009
   196    1.1036    1.0906   -0.0166   -0.0130    0.7840
   197   -3.0869   -3.0977   -0.0144   -0.0108    0.7508
   198   -0.9760   -0.9887   -0.0163   -0.0127    0.7796
   199    1.0986    1.0760   -0.0214   -0.0226    1.0542
   200   -3.0872   -3.1071   -0.0187   -0.0199    1.0620
   201   -1.0018   -1.0200   -0.0171   -0.0183    1.0680
   202   -0.9823   -1.0067   -0.0221   -0.0244    1.1046
   203    1.1150    1.0934   -0.0194   -0.0217    1.1193
   204   -3.0827   -3.1028   -0.0177   -0.0200    1.1302
   205    3.0902    3.0714   -0.0223   -0.0188    0.8444
   206   -1.0956   -1.1117   -0.0196   -0.0161    0.8228
   207    0.9898    0.9753   -0.0180   -0.0145    0.8068
   208    0.2765    0.2678   -0.0178   -0.0088    0.4955
   209    0.7512    0.7381   -0.0073   -0.0131
   210   -2.9447   -2.9655   -0.0493   -0.0208    0.4215
   211   -2.4713   -2.0325    0.4619    0.4388    0.9499
   212    2.3962    2.3948   -0.0064   -0.0014
   213    2.8708    2.8651    0.0040   -0.0057
   214   -0.8250   -0.8384   -0.0379   -0.0134    0.3522
   215   -0.3516    0.0946    0.4733    0.4462    0.9428
   216   -1.7513   -1.7592   -0.0133   -0.0080    0.5960
   217   -1.2766   -1.2889   -0.0029   -0.0123
   218    1.3107    1.2908   -0.0449   -0.0199    0.4441
   219    1.7841    2.2237    0.4663    0.4396    0.9427
   220    1.0006    1.0061   -0.0024    0.0055
   221    3.0932    3.1009   -0.0002    0.0077
   222   -1.1104   -1.1030   -0.0005    0.0074
   223   -1.0757   -1.0793   -0.0049   -0.0035
   224    1.0170    1.0156   -0.0027   -0.0013
   225    3.0966    3.0949   -0.0030   -0.0017
   226    3.0869    3.0920    0.0144    0.0051    0.3536
   227   -1.1036   -1.0963    0.0166    0.0073    0.4398
   228    0.9760    0.9830    0.0163    0.0070    0.4283
   229    3.0872    3.1009    0.0187    0.0137    0.7320
   230   -1.0987   -1.0822    0.0215    0.0164    0.7660
   231    1.0018    1.0138    0.0171    0.0121    0.7067
   232   -1.1150   -1.0938    0.0194    0.0213    1.0979
   233    0.9823    1.0063    0.0221    0.0240    1.0858
   234    3.0827    3.1023    0.0177    0.0196    1.1068
   235    1.0956    1.1183    0.0196    0.0227    1.1595
   236   -3.0902   -3.0648    0.0223    0.0254    1.1400
   237   -0.9898   -0.9687    0.0180    0.0211    1.1738
   238   -0.2766   -0.2732    0.0178    0.0033    0.1871
   239   -0.7512   -0.7412    0.0073    0.0100
   240    2.9447    2.9690    0.0493    0.0243    0.4937
   241    2.4713    2.0258   -0.4619   -0.4455    0.9644
   242   -2.3962   -2.3985    0.0064   -0.0023
   243   -2.8709   -2.8665   -0.0040    0.0044
   244    0.8250    0.8437    0.0379    0.0187    0.4934
   245    0.3516   -0.0995   -0.4732   -0.4511    0.9531
   246    1.7512    1.7556    0.0134    0.0043    0.3251
   247    1.2766    1.2876    0.0029    0.0110
   248   -1.3107   -1.2854    0.0449    0.0253    0.5649
   249   -1.7841   -2.2286   -0.4663   -0.4444    0.9531
   250    0.0005    0.0598   -0.0003    0.0593
   251    2.1067    2.1691    0.0506    0.0624    1.2321
   252   -2.1056   -2.1565   -0.0512   -0.0509    0.9948
   253   -1.4837   -1.4442    0.0100    0.0395
   254    1.4848    1.5178   -0.0105    0.0330   -3.1261
   255   -3.1411   -3.0966    3.1413    0.0445    0.0142
   256    0.1959    0.3915    0.2019    0.1956    0.9689
   257   -3.1188   -2.9297    0.1814    0.1891    1.0426
   258   -1.4615   -1.2609    0.1917    0.2006    1.0466
   259    3.1196    2.9356   -0.1818   -0.1839    1.0118
   260   -0.1951   -0.3856   -0.2023   -0.1904    0.9413
   261    1.4622    1.2832   -0.1920   -0.1789    0.9319
   262   -3.1415   -3.0702    3.1416    0.0714    0.0227
   263   -1.5575   -1.6065   -0.0747   -0.0490    0.6562
   264    1.5576    1.6571    0.0746    0.0995    1.3330

 GradGradGradGradGradGradGradGradGradGradGradGradGradGradGradGradGradGrad
 Berny optimization.
 Initialization pass.
                           ----------------------------
                           !    Initial Parameters    !
                           ! (Angstroms and Degrees)  !
 --------------------------                            --------------------------
 ! Name  Definition         TS        Reactant Product Derivative Info.         !
 --------------------------------------------------------------------------------
 ! R1    R(1,3)             1.3632    1.3641    1.3635 estimate D2E/DX2         !
 ! R2    R(1,9)             1.3365    1.3441    1.3408 estimate D2E/DX2         !
 ! R3    R(1,10)            1.503     1.5045    1.5082 estimate D2E/DX2         !
 ! R4    R(2,4)             1.3643    1.3641    1.3635 estimate D2E/DX2         !
 ! R5    R(2,9)             1.3451    1.3441    1.3408 estimate D2E/DX2         !
 ! R6    R(2,13)            1.5125    1.5045    1.5082 estimate D2E/DX2         !
 ! R7    R(3,5)             1.4467    1.4444    1.4479 estimate D2E/DX2         !
 ! R8    R(3,6)             1.082     1.0821    1.082  estimate D2E/DX2         !
 ! R9    R(4,5)             1.4475    1.4444    1.4479 estimate D2E/DX2         !
 ! R10   R(4,7)             1.082     1.0821    1.082  estimate D2E/DX2         !
 ! R11   R(5,8)             1.2495    1.2504    1.2487 estimate D2E/DX2         !
 ! R12   R(9,39)            1.9859    1.9526    2.0398 estimate D2E/DX2         !
 ! R13   R(10,11)           1.0906    1.0908    1.0904 estimate D2E/DX2         !
 ! R14   R(10,12)           1.0925    1.0929    1.092  estimate D2E/DX2         !
 ! R15   R(10,16)           1.4987    1.4913    1.4988 estimate D2E/DX2         !
 ! R16   R(13,14)           1.0906    1.0908    1.0904 estimate D2E/DX2         !
 ! R17   R(13,15)           1.0925    1.093     1.092  estimate D2E/DX2         !
 ! R18   R(13,17)           1.5047    1.4913    1.4988 estimate D2E/DX2         !
 ! R19   R(16,22)           1.4697    1.4693    1.4701 estimate D2E/DX2         !
 ! R20   R(16,26)           1.4752    1.4746    1.4757 estimate D2E/DX2         !
 ! R21   R(16,39)           2.145     2.1433    2.137  estimate D2E/DX2         !
 ! R22   R(17,30)           1.4697    1.4693    1.4701 estimate D2E/DX2         !
 ! R23   R(17,34)           1.4752    1.4746    1.4757 estimate D2E/DX2         !
 ! R24   R(17,39)           2.1344    2.1433    2.137  estimate D2E/DX2         !
 ! R25   R(18,19)           1.0997    1.099     1.1004 estimate D2E/DX2         !
 ! R26   R(18,20)           1.0904    1.0861    1.0948 estimate D2E/DX2         !
 ! R27   R(18,21)           1.0904    1.0861    1.0948 estimate D2E/DX2         !
 ! R28   R(18,38)           1.8216    1.1254    2.4474 estimate D2E/DX2         !
 ! R29   R(18,39)           2.237     2.4297    2.0732 estimate D2E/DX2         !
 ! R30   R(22,23)           1.0871    1.0877    1.0864 estimate D2E/DX2         !
 ! R31   R(22,24)           1.0948    1.0954    1.0942 estimate D2E/DX2         !
 ! R32   R(22,25)           1.087     1.0872    1.0868 estimate D2E/DX2         !
 ! R33   R(26,27)           1.0945    1.0956    1.0934 estimate D2E/DX2         !
 ! R34   R(26,28)           1.0874    1.0875    1.0872 estimate D2E/DX2         !
 ! R35   R(26,29)           1.0888    1.0875    1.09   estimate D2E/DX2         !
 ! R36   R(30,31)           1.0948    1.0954    1.0942 estimate D2E/DX2         !
 ! R37   R(30,32)           1.0871    1.0877    1.0864 estimate D2E/DX2         !
 ! R38   R(30,33)           1.087     1.0872    1.0868 estimate D2E/DX2         !
 ! R39   R(34,35)           1.0874    1.0875    1.0872 estimate D2E/DX2         !
 ! R40   R(34,36)           1.0945    1.0956    1.0934 estimate D2E/DX2         !
 ! R41   R(34,37)           1.0888    1.0875    1.09   estimate D2E/DX2         !
 ! R42   R(38,39)           1.6905    1.9165    1.5022 estimate D2E/DX2         !
 ! A1    A(3,1,9)         122.1832  121.8641  121.7923 estimate D2E/DX2         !
 ! A2    A(3,1,10)        126.5171  126.0886  126.9147 estimate D2E/DX2         !
 ! A3    A(9,1,10)        110.8659  111.8707  111.2509 estimate D2E/DX2         !
 ! A4    A(4,2,9)         121.7302  121.8641  121.7923 estimate D2E/DX2         !
 ! A5    A(4,2,13)        126.0346  126.0883  126.9147 estimate D2E/DX2         !
 ! A6    A(9,2,13)        111.8534  111.8711  111.2509 estimate D2E/DX2         !
 ! A7    A(1,3,5)         119.7774  120.6779  120.2663 estimate D2E/DX2         !
 ! A8    A(1,3,6)         119.286   120.5793  121.082  estimate D2E/DX2         !
 ! A9    A(5,3,6)         117.2598  118.7407  118.6505 estimate D2E/DX2         !
 ! A10   A(2,4,5)         119.9394  120.678   120.2663 estimate D2E/DX2         !
 ! A11   A(2,4,7)         119.2169  120.5802  121.082  estimate D2E/DX2         !
 ! A12   A(5,4,7)         117.1936  118.7398  118.6505 estimate D2E/DX2         !
 ! A13   A(3,5,4)         115.0599  114.5186  114.9301 estimate D2E/DX2         !
 ! A14   A(3,5,8)         121.1162  122.7393  122.533  estimate D2E/DX2         !
 ! A15   A(4,5,8)         121.1206  122.7403  122.533  estimate D2E/DX2         !
 ! A16   A(1,9,2)         120.7281  120.344   120.9457 estimate D2E/DX2         !
 ! A17   A(1,9,39)        119.0693  119.0528  116.9691 estimate D2E/DX2         !
 ! A18   A(2,9,39)        117.1636  119.0522  116.9691 estimate D2E/DX2         !
 ! A19   A(1,10,11)       108.3951  107.3306  107.7346 estimate D2E/DX2         !
 ! A20   A(1,10,12)       111.7778  112.198   112.2197 estimate D2E/DX2         !
 ! A21   A(1,10,16)       111.1703  111.7413  112.0063 estimate D2E/DX2         !
 ! A22   A(11,10,12)      107.7594  107.7532  107.9493 estimate D2E/DX2         !
 ! A23   A(11,10,16)      106.8091  107.1178  106.8679 estimate D2E/DX2         !
 ! A24   A(12,10,16)      110.7132  110.4359  109.8141 estimate D2E/DX2         !
 ! A25   A(2,13,14)       108.252   107.3313  107.7346 estimate D2E/DX2         !
 ! A26   A(2,13,15)       111.8045  112.1981  112.2197 estimate D2E/DX2         !
 ! A27   A(2,13,17)       111.3737  111.7414  112.0063 estimate D2E/DX2         !
 ! A28   A(14,13,15)      107.7827  107.7529  107.9493 estimate D2E/DX2         !
 ! A29   A(14,13,17)      106.9364  107.1174  106.8679 estimate D2E/DX2         !
 ! A30   A(15,13,17)      110.4765  110.4357  109.8141 estimate D2E/DX2         !
 ! A31   A(10,16,22)      109.3503  109.3233  109.1681 estimate D2E/DX2         !
 ! A32   A(10,16,26)      108.9306  108.8931  109.0811 estimate D2E/DX2         !
 ! A33   A(10,16,39)      106.2389  105.773   106.6867 estimate D2E/DX2         !
 ! A34   A(22,16,26)      109.144   109.0633  109.317  estimate D2E/DX2         !
 ! A35   A(22,16,39)      116.2073  116.148   117.3443 estimate D2E/DX2         !
 ! A36   A(26,16,39)      106.7457  107.4183  104.9579 estimate D2E/DX2         !
 ! A37   A(13,17,30)      109.5975  109.3237  109.1681 estimate D2E/DX2         !
 ! A38   A(13,17,34)      109.3052  108.8933  109.0811 estimate D2E/DX2         !
 ! A39   A(13,17,39)      105.3626  105.7727  106.6867 estimate D2E/DX2         !
 ! A40   A(30,17,34)      108.8227  109.0635  109.317  estimate D2E/DX2         !
 ! A41   A(30,17,39)      116.5886  116.1479  117.3443 estimate D2E/DX2         !
 ! A42   A(34,17,39)      106.9523  107.418   104.9579 estimate D2E/DX2         !
 ! A43   A(19,18,20)      106.2339  108.8336  106.9037 estimate D2E/DX2         !
 ! A44   A(19,18,21)      109.5449  108.8338  106.9041 estimate D2E/DX2         !
 ! A45   A(19,18,38)      131.548   114.7088  144.6883 estimate D2E/DX2         !
 ! A46   A(19,18,39)       83.7114   64.4622  107.0059 estimate D2E/DX2         !
 ! A47   A(20,18,21)      110.0563  110.8499  106.6671 estimate D2E/DX2         !
 ! A48   A(20,18,38)       98.661   106.8018   93.6819 estimate D2E/DX2         !
 ! A49   A(20,18,39)      120.9343  124.0996  114.4397 estimate D2E/DX2         !
 ! A50   A(21,18,38)       99.5037  106.7997   93.6818 estimate D2E/DX2         !
 ! A51   A(21,18,39)      121.0113  124.0521  114.4399 estimate D2E/DX2         !
 ! A52   A(16,22,23)      109.1322  109.1429  109.1216 estimate D2E/DX2         !
 ! A53   A(16,22,24)      110.8584  111.0466  110.6699 estimate D2E/DX2         !
 ! A54   A(16,22,25)      109.3807  109.4514  109.3098 estimate D2E/DX2         !
 ! A55   A(23,22,24)      108.9717  108.7694  109.174  estimate D2E/DX2         !
 ! A56   A(23,22,25)      108.9732  108.9494  108.997  estimate D2E/DX2         !
 ! A57   A(24,22,25)      109.4951  109.4474  109.5423 estimate D2E/DX2         !
 ! A58   A(16,26,27)      110.5208  110.4392  110.6024 estimate D2E/DX2         !
 ! A59   A(16,26,28)      109.4277  109.5851  109.2704 estimate D2E/DX2         !
 ! A60   A(16,26,29)      109.7071  109.683   109.7312 estimate D2E/DX2         !
 ! A61   A(27,26,28)      109.2285  109.0629  109.3942 estimate D2E/DX2         !
 ! A62   A(27,26,29)      108.8995  109.1542  108.6449 estimate D2E/DX2         !
 ! A63   A(28,26,29)      109.0324  108.8896  109.1752 estimate D2E/DX2         !
 ! A64   A(17,30,31)      110.8585  111.0468  110.6699 estimate D2E/DX2         !
 ! A65   A(17,30,32)      109.1322  109.1428  109.1216 estimate D2E/DX2         !
 ! A66   A(17,30,33)      109.3808  109.4515  109.3098 estimate D2E/DX2         !
 ! A67   A(31,30,32)      108.9716  108.7692  109.174  estimate D2E/DX2         !
 ! A68   A(31,30,33)      109.4952  109.4477  109.5423 estimate D2E/DX2         !
 ! A69   A(32,30,33)      108.9731  108.9491  108.997  estimate D2E/DX2         !
 ! A70   A(17,34,35)      109.4275  109.5846  109.2704 estimate D2E/DX2         !
 ! A71   A(17,34,36)      110.5206  110.4388  110.6024 estimate D2E/DX2         !
 ! A72   A(17,34,37)      109.7072  109.6832  109.7312 estimate D2E/DX2         !
 ! A73   A(35,34,36)      109.2284  109.0628  109.3942 estimate D2E/DX2         !
 ! A74   A(35,34,37)      109.0329  108.8906  109.1752 estimate D2E/DX2         !
 ! A75   A(36,34,37)      108.8995  109.154   108.6449 estimate D2E/DX2         !
 ! A76   A(18,38,39)       79.0292  102.9154   57.5257 estimate D2E/DX2         !
 ! A77   A(9,39,16)        80.5275   81.5765   80.8869 estimate D2E/DX2         !
 ! A78   A(9,39,17)        82.259    81.5768   80.8869 estimate D2E/DX2         !
 ! A79   L(9,39,18,16,-1)  176.5653  179.6323  179.2188 estimate D2E/DX2        !
 ! A80   L(9,39,18,16,-2)  185.2492  184.5635  188.1744 estimate D2E/DX2        !
 ! A81   A(9,39,38)       132.301   157.6933  103.3254 estimate D2E/DX2         !
 ! A82   A(16,39,17)      160.7382  161.0954  159.3329 estimate D2E/DX2         !
 ! A83   A(16,39,18)       96.0378   98.0559   98.3319 estimate D2E/DX2         !
 ! A84   A(16,39,38)       97.3537   99.4222   96.8024 estimate D2E/DX2         !
 ! A85   A(17,39,18)      100.2714   98.0586   98.3319 estimate D2E/DX2         !
 ! A86   A(17,39,38)      100.6075   99.4217   96.8024 estimate D2E/DX2         !
 ! A87   A(18,39,38)       53.077    26.838    84.7919 estimate D2E/DX2         !
 ! D1    D(9,1,3,5)        -5.2022    0.3591   -0.2395 estimate D2E/DX2         !
 ! D2    D(9,1,3,6)       152.6087  179.8384 -179.8361 estimate D2E/DX2         !
 ! D3    D(10,1,3,5)     -176.9365 -174.4099 -177.6661 estimate D2E/DX2         !
 ! D4    D(10,1,3,6)      -19.1257    5.0695    2.7374 estimate D2E/DX2         !
 ! D5    D(3,1,9,2)         1.5207   -2.2483    0.8972 estimate D2E/DX2         !
 ! D6    D(3,1,9,39)      161.2513  163.4183  154.8442 estimate D2E/DX2         !
 ! D7    D(10,1,9,2)      174.418   173.1981  178.6897 estimate D2E/DX2         !
 ! D8    D(10,1,9,39)     -25.8514  -21.1352  -27.3633 estimate D2E/DX2         !
 ! D9    D(3,1,10,11)      94.1684   92.9201   99.9545 estimate D2E/DX2         !
 ! D10   D(3,1,10,12)     -24.4527  -25.265   -18.7402 estimate D2E/DX2         !
 ! D11   D(3,1,10,16)    -148.7277 -149.9256 -142.798  estimate D2E/DX2         !
 ! D12   D(9,1,10,11)     -78.3497  -82.2938  -77.6986 estimate D2E/DX2         !
 ! D13   D(9,1,10,12)     163.0293  159.5211  163.6066 estimate D2E/DX2         !
 ! D14   D(9,1,10,16)      38.7542   34.8606   39.5488 estimate D2E/DX2         !
 ! D15   D(9,2,4,5)         5.2515   -0.3601    0.2395 estimate D2E/DX2         !
 ! D16   D(9,2,4,7)      -152.622  -179.8381  179.8361 estimate D2E/DX2         !
 ! D17   D(13,2,4,5)      177.5671  174.4103  177.6661 estimate D2E/DX2         !
 ! D18   D(13,2,4,7)       19.6936   -5.0676   -2.7374 estimate D2E/DX2         !
 ! D19   D(4,2,9,1)        -1.5407    2.2489   -0.8972 estimate D2E/DX2         !
 ! D20   D(4,2,9,39)     -161.6436 -163.4179 -154.8442 estimate D2E/DX2         !
 ! D21   D(13,2,9,1)     -174.8504 -173.1989 -178.6897 estimate D2E/DX2         !
 ! D22   D(13,2,9,39)      25.0467   21.1344   27.3633 estimate D2E/DX2         !
 ! D23   D(4,2,13,14)     -94.491   -92.9216  -99.9545 estimate D2E/DX2         !
 ! D24   D(4,2,13,15)      24.0836   25.2636   18.7402 estimate D2E/DX2         !
 ! D25   D(4,2,13,17)     148.2209  149.924   142.798  estimate D2E/DX2         !
 ! D26   D(9,2,13,14)      78.4705   82.2936   77.6986 estimate D2E/DX2         !
 ! D27   D(9,2,13,15)    -162.9549 -159.5213 -163.6066 estimate D2E/DX2         !
 ! D28   D(9,2,13,17)     -38.8176  -34.8608  -39.5488 estimate D2E/DX2         !
 ! D29   D(1,3,5,4)         8.319     1.4034   -0.3771 estimate D2E/DX2         !
 ! D30   D(1,3,5,8)       169.8835 -179.081  -179.6756 estimate D2E/DX2         !
 ! D31   D(6,3,5,4)      -149.9314 -178.0853  179.2292 estimate D2E/DX2         !
 ! D32   D(6,3,5,8)        11.633     1.4302   -0.0692 estimate D2E/DX2         !
 ! D33   D(2,4,5,3)        -8.3593   -1.4029    0.3771 estimate D2E/DX2         !
 ! D34   D(2,4,5,8)      -169.9229  179.0815  179.6756 estimate D2E/DX2         !
 ! D35   D(7,4,5,3)       149.9506  178.0845 -179.2292 estimate D2E/DX2         !
 ! D36   D(7,4,5,8)       -11.6129   -1.4311    0.0692 estimate D2E/DX2         !
 ! D37   D(1,9,39,16)       5.8294    2.7694    7.6085 estimate D2E/DX2         !
 ! D38   D(1,9,39,17)    -165.4932 -168.622  -162.6067 estimate D2E/DX2         !
 ! D39   D(1,9,39,38)      97.1829   97.0739  102.5009 estimate D2E/DX2         !
 ! D40   D(2,9,39,16)     166.2743  168.623   162.6067 estimate D2E/DX2         !
 ! D41   D(2,9,39,17)      -5.0483   -2.7683   -7.6085 estimate D2E/DX2         !
 ! D42   D(2,9,39,38)    -102.3722  -97.0725 -102.5009 estimate D2E/DX2         !
 ! D43   D(1,10,16,22)   -158.5671 -156.3538 -159.3377 estimate D2E/DX2         !
 ! D44   D(1,10,16,26)     82.2304   84.5796   81.2682 estimate D2E/DX2         !
 ! D45   D(1,10,16,39)    -32.4246  -30.599   -31.6125 estimate D2E/DX2         !
 ! D46   D(11,10,16,22)   -40.5001  -39.0712  -41.5718 estimate D2E/DX2         !
 ! D47   D(11,10,16,26)  -159.7026 -158.1378 -160.9659 estimate D2E/DX2         !
 ! D48   D(11,10,16,39)    85.6424   86.6836   86.1535 estimate D2E/DX2         !
 ! D49   D(12,10,16,22)    76.5574   78.0091   75.2709 estimate D2E/DX2         !
 ! D50   D(12,10,16,26)   -42.6451  -41.0576  -44.1232 estimate D2E/DX2         !
 ! D51   D(12,10,16,39)  -157.3001 -156.2362 -157.0039 estimate D2E/DX2         !
 ! D52   D(2,13,17,30)    158.5272  156.3545  159.3377 estimate D2E/DX2         !
 ! D53   D(2,13,17,34)    -82.2898  -84.5783  -81.2682 estimate D2E/DX2         !
 ! D54   D(2,13,17,39)     32.3327   30.5998   31.6125 estimate D2E/DX2         !
 ! D55   D(14,13,17,30)    40.4439   39.0712   41.5718 estimate D2E/DX2         !
 ! D56   D(14,13,17,34)   159.627   158.1384  160.9659 estimate D2E/DX2         !
 ! D57   D(14,13,17,39)   -85.7505  -86.6835  -86.1535 estimate D2E/DX2         !
 ! D58   D(15,13,17,30)   -76.5887  -78.0083  -75.2709 estimate D2E/DX2         !
 ! D59   D(15,13,17,34)    42.5944   41.059    44.1232 estimate D2E/DX2         !
 ! D60   D(15,13,17,39)   157.2168  156.2371  157.0039 estimate D2E/DX2         !
 ! D61   D(10,16,22,23)  -177.3024 -177.2281 -177.2054 estimate D2E/DX2         !
 ! D62   D(10,16,22,24)   -57.2743  -57.3266  -57.0508 estimate D2E/DX2         !
 ! D63   D(10,16,22,25)    63.5644   63.6194   63.6808 estimate D2E/DX2         !
 ! D64   D(26,16,22,23)   -58.232   -58.267   -57.9576 estimate D2E/DX2         !
 ! D65   D(26,16,22,24)    61.7961   61.6345   62.197  estimate D2E/DX2         !
 ! D66   D(26,16,22,25)  -177.3653 -177.4195 -177.0714 estimate D2E/DX2         !
 ! D67   D(39,16,22,23)    62.4855   63.2312   61.3289 estimate D2E/DX2         !
 ! D68   D(39,16,22,24)  -177.4864 -176.8673 -178.5164 estimate D2E/DX2         !
 ! D69   D(39,16,22,25)   -56.6477  -55.9213  -57.7848 estimate D2E/DX2         !
 ! D70   D(10,16,26,27)    61.6521   62.9475   60.4898 estimate D2E/DX2         !
 ! D71   D(10,16,26,28)  -178.0235 -176.8837 -179.03   estimate D2E/DX2         !
 ! D72   D(10,16,26,29)   -58.4435  -57.3969  -59.3569 estimate D2E/DX2         !
 ! D73   D(22,16,26,27)   -57.679   -56.2814  -58.8118 estimate D2E/DX2         !
 ! D74   D(22,16,26,28)    62.6455   63.8873   61.6683 estimate D2E/DX2         !
 ! D75   D(22,16,26,29)  -177.7745 -176.6259 -178.6585 estimate D2E/DX2         !
 ! D76   D(39,16,26,27)   175.9776  177.0573  174.5002 estimate D2E/DX2         !
 ! D77   D(39,16,26,28)   -63.6979  -62.774   -65.0197 estimate D2E/DX2         !
 ! D78   D(39,16,26,29)    55.8821   56.7128   54.6535 estimate D2E/DX2         !
 ! D79   D(10,16,39,9)     15.341    15.845    13.8104 estimate D2E/DX2         !
 ! D80   D(10,16,39,17)    42.2887   43.0397   42.1989 estimate D2E/DX2         !
 ! D81   D(10,16,39,18)  -169.9083 -168.7185 -174.364  estimate D2E/DX2         !
 ! D82   D(10,16,39,38)  -116.4531 -141.5938  -88.6608 estimate D2E/DX2         !
 ! D83   D(22,16,39,9)    137.2126  137.2925  136.5557 estimate D2E/DX2         !
 ! D84   D(22,16,39,17)   164.1603  164.4872  164.9442 estimate D2E/DX2         !
 ! D85   D(22,16,39,18)   -48.0367  -47.271   -51.6187 estimate D2E/DX2         !
 ! D86   D(22,16,39,38)     5.4186  -20.1463   34.0846 estimate D2E/DX2         !
 ! D87   D(26,16,39,9)   -100.7951 -100.3394 -101.8688 estimate D2E/DX2         !
 ! D88   D(26,16,39,17)   -73.8473  -73.1447  -73.4803 estimate D2E/DX2         !
 ! D89   D(26,16,39,18)    73.9557   75.0971   69.9568 estimate D2E/DX2         !
 ! D90   D(26,16,39,38)   127.4109  102.2218  155.6601 estimate D2E/DX2         !
 ! D91   D(13,17,30,31)    57.6431   57.3278   57.0508 estimate D2E/DX2         !
 ! D92   D(13,17,30,32)   177.6711  177.229   177.2054 estimate D2E/DX2         !
 ! D93   D(13,17,30,33)   -63.1959  -63.6187  -63.6808 estimate D2E/DX2         !
 ! D94   D(34,17,30,31)   -61.8368  -61.6338  -62.197  estimate D2E/DX2         !
 ! D95   D(34,17,30,32)    58.1912   58.2674   57.9576 estimate D2E/DX2         !
 ! D96   D(34,17,30,33)   177.3243  177.4196  177.0714 estimate D2E/DX2         !
 ! D97   D(39,17,30,31)   177.1597  176.8683  178.5164 estimate D2E/DX2         !
 ! D98   D(39,17,30,32)   -62.8123  -63.2305  -61.3289 estimate D2E/DX2         !
 ! D99   D(39,17,30,33)    56.3208   55.9218   57.7848 estimate D2E/DX2         !
 ! D100  D(13,17,34,35)   177.6694  176.884   179.03   estimate D2E/DX2         !
 ! D101  D(13,17,34,36)   -62.0065  -62.9481  -60.4898 estimate D2E/DX2         !
 ! D102  D(13,17,34,37)    58.0889   57.3961   59.3569 estimate D2E/DX2         !
 ! D103  D(30,17,34,35)   -62.6688  -63.8864  -61.6683 estimate D2E/DX2         !
 ! D104  D(30,17,34,36)    57.6553   56.2816   58.8118 estimate D2E/DX2         !
 ! D105  D(30,17,34,37)   177.7507  176.6257  178.6585 estimate D2E/DX2         !
 ! D106  D(39,17,34,35)    64.0762   62.7747   65.0197 estimate D2E/DX2         !
 ! D107  D(39,17,34,36)  -175.5997 -177.0573 -174.5002 estimate D2E/DX2         !
 ! D108  D(39,17,34,37)   -55.5043  -56.7131  -54.6535 estimate D2E/DX2         !
 ! D109  D(13,17,39,9)    -15.6554  -15.8458  -13.8104 estimate D2E/DX2         !
 ! D110  D(13,17,39,16)   -42.4703  -43.0405  -42.1989 estimate D2E/DX2         !
 ! D111  D(13,17,39,18)   170.1117  168.718   174.364  estimate D2E/DX2         !
 ! D112  D(13,17,39,38)   116.0703  141.593    88.6608 estimate D2E/DX2         !
 ! D113  D(30,17,39,9)   -137.424  -137.2935 -136.5557 estimate D2E/DX2         !
 ! D114  D(30,17,39,16)  -164.2389 -164.4882 -164.9442 estimate D2E/DX2         !
 ! D115  D(30,17,39,18)    48.343    47.2703   51.6187 estimate D2E/DX2         !
 ! D116  D(30,17,39,38)    -5.6983   20.1453  -34.0846 estimate D2E/DX2         !
 ! D117  D(34,17,39,9)    100.5872  100.3384  101.8688 estimate D2E/DX2         !
 ! D118  D(34,17,39,16)    73.7723   73.1437   73.4803 estimate D2E/DX2         !
 ! D119  D(34,17,39,18)   -73.6458  -75.0978  -69.9568 estimate D2E/DX2         !
 ! D120  D(34,17,39,38)  -127.6871 -102.2228 -155.6601 estimate D2E/DX2         !
 ! D121  D(19,18,38,39)     3.4247    0.0297    0.0    estimate D2E/DX2         !
 ! D122  D(20,18,38,39)   124.2783  120.7029  126.5067 estimate D2E/DX2         !
 ! D123  D(21,18,38,39)  -123.5597 -120.6423 -126.5073 estimate D2E/DX2         !
 ! D124  D(19,18,39,16)   -82.7464  -85.0081  -83.8659 estimate D2E/DX2         !
 ! D125  D(19,18,39,17)    86.9633   85.0744   83.8659 estimate D2E/DX2         !
 ! D126  D(19,18,39,38)  -177.4221 -179.9701  180.0    estimate D2E/DX2         !
 ! D127  D(20,18,39,16)    22.4335   11.2255   34.3618 estimate D2E/DX2         !
 ! D128  D(20,18,39,17)  -167.8568 -178.6921 -157.9065 estimate D2E/DX2         !
 ! D129  D(20,18,39,38)   -72.2422  -83.7365  -61.7723 estimate D2E/DX2         !
 ! D130  D(21,18,39,16)   168.1997  178.7387  157.9058 estimate D2E/DX2         !
 ! D131  D(21,18,39,17)   -22.0906  -11.1788  -34.3625 estimate D2E/DX2         !
 ! D132  D(21,18,39,38)    73.524    83.7767   61.7717 estimate D2E/DX2         !
 ! D133  D(18,38,39,9)   -175.9071 -179.9965  180.0    estimate D2E/DX2         !
 ! D134  D(18,38,39,16)   -92.045   -89.2363  -97.7972 estimate D2E/DX2         !
 ! D135  D(18,38,39,17)    94.9445   89.2434   97.7972 estimate D2E/DX2         !
 --------------------------------------------------------------------------------
 Trust Radius=3.00D-01 FncErr=1.00D-07 GrdErr=1.00D-06 EigMax=2.50D+02 EigMin=1.00D-04
 Number of steps in this run=    234 maximum allowed number of steps=    234.
 Search for a saddle point of order  1.
 GradGradGradGradGradGradGradGradGradGradGradGradGradGradGradGradGradGrad

                          Input orientation:                          
 ---------------------------------------------------------------------
 Center     Atomic      Atomic             Coordinates (Angstroms)
 Number     Number       Type             X           Y           Z
 ---------------------------------------------------------------------
      1          6           0        1.520157    1.171137   -0.177199
      2          6           0        1.522395   -1.159724   -0.187850
      3          6           0        2.861668    1.229656    0.058013
      4          6           0        2.865390   -1.212054    0.046538
      5          6           0        3.605853    0.009298    0.281407
      6          1           0        3.419161    2.097133   -0.269786
      7          1           0        3.426890   -2.073977   -0.288972
      8          8           0        4.854997    0.011299    0.312933
      9          7           0        0.870924    0.010613   -0.311528
     10          6           0        0.615651    2.329948   -0.490408
     11          1           0        0.532278    2.418321   -1.574234
     12          1           0        1.016849    3.271870   -0.109148
     13          6           0        0.627010   -2.338170   -0.499557
     14          1           0        0.542014   -2.425315   -1.583357
     15          1           0        1.042682   -3.274933   -0.121079
     16          7           0       -0.768601    2.092928    0.032868
     17          7           0       -0.763962   -2.126127    0.033554
     18          6           0       -3.290105    0.057478    0.369626
     19          1           0       -2.946217    0.094554    1.413528
     20          1           0       -3.864499    0.969684    0.205307
     21          1           0       -3.926602   -0.816200    0.226029
     22          6           0       -1.718044    2.943425   -0.698756
     23          1           0       -2.713405    2.804274   -0.284529
     24          1           0       -1.441422    3.999271   -0.613417
     25          1           0       -1.727760    2.654522   -1.746594
     26          6           0       -0.806117    2.446610    1.464524
     27          1           0       -0.571084    3.506410    1.604201
     28          1           0       -1.798200    2.244523    1.861120
     29          1           0       -0.077340    1.848948    2.009572
     30          6           0       -1.707059   -2.987918   -0.693039
     31          1           0       -1.418330   -4.040525   -0.607837
     32          1           0       -2.702090   -2.859413   -0.274600
     33          1           0       -1.724569   -2.700258   -1.741117
     34          6           0       -0.797682   -2.483828    1.464309
     35          1           0       -1.791533   -2.292244    1.861683
     36          1           0       -0.552504   -3.541701    1.601194
     37          1           0       -0.074484   -1.880647    2.010695
     38          1           0       -2.373142    0.023487   -1.204027
     39         45           0       -1.102328   -0.022358   -0.090118
 ---------------------------------------------------------------------
                    Distance matrix (angstroms):
                    1          2          3          4          5
     1  C    0.000000
     2  C    2.330887   0.000000
     3  C    1.363232   2.750135   0.000000
     4  C    2.745780   1.364299   2.441740   0.000000
     5  C    2.431115   2.434669   1.446718   1.447463   0.000000
     6  H    2.114771   3.769822   1.082020   3.370080   2.167424
     7  H    3.765487   2.114991   3.369551   1.082018   2.167348
     8  O    3.564633   3.567677   2.350051   2.350764   1.249543
     9  N    1.336549   1.345139   2.363406   2.366647   2.798466
    10  C    1.503022   3.618223   2.560469   4.230297   3.862956
    11  H    2.117329   3.962928   3.082728   4.609765   4.323617
    12  H    2.161256   4.461031   2.757161   4.852516   4.183283
    13  C    3.635500   1.512485   4.246642   2.564508   3.872211
    14  H    3.983530   2.123749   4.629655   3.086525   4.334951
    15  H    4.471987   2.169952   4.861287   2.757867   4.185452
    16  N    2.476336   3.984611   3.731584   4.912126   4.851714
    17  N    4.016661   2.492063   4.940351   3.742712   4.869985
    18  C    4.967683   4.995249   6.270200   6.293346   6.896690
    19  H    4.861886   4.909798   6.071030   6.111519   6.649706
    20  H    5.401983   5.805822   6.732801   7.076482   7.532217
    21  H    5.811995   5.475479   7.091852   6.805885   7.577757
    22  C    3.728133   5.253313   4.948077   6.231479   6.157410
    23  H    4.538910   5.802123   5.803291   6.882110   6.932907
    24  H    4.118201   5.964944   5.161218   6.792796   6.495813
    25  H    3.900307   5.248015   5.133195   6.266000   6.289469
    26  C    3.119878   4.599777   4.112408   5.373683   5.177426
    27  H    3.605576   5.419124   4.399783   6.041487   5.605924
    28  H    4.039603   5.178178   5.098580   6.081916   6.057682
    29  H    2.791665   4.054617   3.581881   4.677915   4.465062
    30  C    5.289494   3.745247   6.263008   4.960640   6.177368
    31  H    5.998465   4.138026   6.821770   5.174815   6.514156
    32  H    5.837996   4.554420   6.912780   5.814959   6.951891
    33  H    5.287890   3.915182   6.301957   5.145695   6.312344
    34  C    4.628790   3.140961   5.399859   4.128630   5.196735
    35  H    5.207622   4.057745   6.108132   5.113559   6.076688
    36  H    5.446966   3.630384   6.066615   4.418847   5.625243
    37  H    4.079601   2.811290   4.701908   3.598304   4.484106
    38  H    4.186795   4.196166   5.518226   5.525639   6.160771
    39  Rh   2.882610   2.862223   4.159657   4.144495   4.722923
                    6          7          8          9         10
     6  H    0.000000
     7  H    4.171162   0.000000
     8  O    2.598440   2.598106   0.000000
     9  N    3.293755   3.298331   4.032715   0.000000
    10  C    2.821799   5.228595   4.898321   2.340188   0.000000
    11  H    3.184155   5.496492   5.295380   2.739739   1.090614
    12  H    2.678976   5.866747   5.053796   3.270788   1.092491
    13  C    5.246029   2.820190   4.904693   2.368888   4.668141
    14  H    5.518694   3.181412   5.304227   2.767576   4.879804
    15  H    5.876126   2.674870   5.051874   3.295540   5.633245
    16  N    4.198686   5.921894   6.003038   2.672581   1.498715
    17  N    5.952013   4.203568   6.018250   2.712488   4.694089
    18  C    7.041540   7.077773   8.145430   4.216672   4.599859
    19  H    6.881999   6.943885   7.878907   4.189681   4.616152
    20  H    7.385700   7.916599   8.772667   4.859132   4.733506
    21  H    7.917928   7.478040   8.820929   4.897841   5.571677
    22  C    5.224088   7.198097   7.268132   3.931169   2.421961
    23  H    6.173219   7.842231   8.089399   4.544522   3.368973
    24  H    5.230820   7.790384   7.510455   4.620333   2.652041
    25  H    5.383534   7.145193   7.386539   3.975277   2.678605
    26  C    4.580714   6.436522   6.269379   3.449769   2.420081
    27  H    4.628169   7.120999   6.582213   4.239104   2.679513
    28  H    5.637671   7.111534   7.186738   4.103045   3.371002
    29  H    4.181219   5.740408   5.530234   3.109049   2.638465
    30  C    7.232912   5.230295   7.284768   3.972749   5.806525
    31  H    7.822177   5.238811   7.524608   4.662639   6.688333
    32  H    7.876363   6.179119   8.105291   4.583104   6.163071
    33  H    7.185940   5.388736   7.406912   4.016108   5.687167
    34  C    6.463286   4.592274   6.285229   3.487131   5.384317
    35  H    7.138706   5.648442   7.202867   4.136988   5.717650
    36  H    7.146407   4.643545   6.597309   4.278268   6.341580
    37  H    5.764450   4.193503   5.546318   3.140602   4.945797
    38  H    6.222828   6.235146   7.385614   3.364622   3.842121
    39  Rh   4.996838   4.976194   5.971039   1.985909   2.940242
                   11         12         13         14         15
    11  H    0.000000
    12  H    1.763471   0.000000
    13  C    4.877306   5.637104   0.000000
    14  H    4.843655   5.903955   1.090615   0.000000
    15  H    5.897907   6.546865   1.092499   1.763740   0.000000
    16  N    2.093070   2.144272   4.676092   4.974376   5.667308
    17  N    4.991716   5.685950   1.504650   2.099878   2.146539
    18  C    4.895179   5.395498   4.673157   4.966239   5.488059
    19  H    5.140675   5.302808   4.727155   5.243931   5.442405
    20  H    4.959533   5.406154   5.622489   5.843175   6.496439
    21  H    5.795230   6.423580   4.855744   5.082485   5.555145
    22  C    2.471061   2.816941   5.782231   5.891837   6.828125
    23  H    3.513794   3.763535   6.135906   6.295499   7.147843
    24  H    2.705192   2.612757   6.667423   6.793387   7.702416
    25  H    2.278874   3.255031   5.659241   5.566261   6.743596
    26  C    3.320565   2.545723   5.367084   5.902770   6.218380
    27  H    3.536070   2.347788   6.326163   6.825312   7.181048
    28  H    4.154875   3.586349   5.696974   6.256869   6.516449
    29  H    3.679604   2.776857   4.931916   5.618012   5.661119
    30  C    5.917647   6.851682   2.430531   2.483448   2.823223
    31  H    6.815827   7.723336   2.663297   2.720936   2.622907
    32  H    6.324924   7.172902   3.377159   3.524982   3.770881
    33  H    5.596522   6.770894   2.683747   2.288641   3.257676
    34  C    5.918835   6.236694   2.430583   3.329637   2.554651
    35  H    6.276547   6.536861   3.380372   4.163106   3.595802
    36  H    6.839733   7.198117   2.693120   3.547626   2.362627
    37  H    5.630364   5.677427   2.646279   3.686997   2.781466
    38  H    3.783351   4.821078   3.882603   3.826049   4.870338
    39  Rh   3.291117   3.917041   2.919116   3.272282   3.896315
                   16         17         18         19         20
    16  N    0.000000
    17  N    4.219058   0.000000
    18  C    3.257982   3.355961   0.000000
    19  H    3.262167   3.405582   1.099711   0.000000
    20  H    3.297878   4.384846   1.090435   1.751825   0.000000
    21  H    4.298059   3.428593   1.090441   1.789073   1.787084
    22  C    1.469715   5.210269   3.455648   3.753161   3.052909
    23  H    2.094998   5.311342   2.881908   3.206272   2.220514
    24  H    2.122384   6.196614   4.463377   4.649701   3.964847
    25  H    2.098061   5.191574   3.696478   4.245520   3.348769
    26  C    1.475174   4.791594   3.616206   3.180376   3.622242
    27  H    2.122742   5.850607   4.562059   4.161535   4.386168
    28  H    2.103702   4.848940   3.038668   2.478033   2.938796
    29  H    2.108252   4.491916   4.027486   3.415204   4.286146
    30  C    5.217532   1.469712   3.593011   3.933799   4.596106
    31  H    6.200960   2.122381   4.610055   4.849663   5.634460
    32  H    5.325280   2.094996   3.044510   3.411055   4.030322
    33  H    5.199570   2.098058   3.809362   4.388073   4.672937
    34  C    4.795474   1.475177   3.724076   3.356611   4.787191
    35  H    4.860112   2.103699   3.161194   2.689042   4.204871
    36  H    5.852810   2.122748   4.686716   4.357457   5.768050
    37  H    4.492538   2.108252   4.097518   3.536224   5.074251
    38  H    2.896041   2.956671   1.821637   2.680496   2.259571
    39  Rh   2.144979   2.134392   2.236986   2.382130   2.949748
                   21         22         23         24         25
    21  H    0.000000
    22  C    4.457324   0.000000
    23  H    3.852318   1.087056   0.000000
    24  H    5.483571   1.094812   1.775985   0.000000
    25  H    4.557638   1.086979   1.769620   1.781693   0.000000
    26  C    4.681584   2.399629   2.612443   2.670619   3.347228
    27  H    5.643033   2.633644   2.941060   2.432741   3.645743
    28  H    4.070828   2.654780   2.398902   3.054466   3.631620
    29  H    5.010076   3.350348   3.622760   3.655774   4.181103
    30  C    3.238428   5.931356   5.893140   6.992690   5.739994
    31  H    4.169297   6.990970   6.973738   8.039831   6.798248
    32  H    2.434087   5.900948   5.663708   6.981807   5.789609
    33  H    3.502611   5.739139   5.779214   6.799674   5.354784
    34  C    3.755591   5.914473   5.890030   6.838269   6.130056
    35  H    3.067995   5.828677   5.606297   6.769923   6.123253
    36  H    4.550162   6.978905   6.963967   7.909547   7.140174
    37  H    4.376859   5.771835   5.846404   6.582394   6.117050
    38  H    2.272306   3.034879   2.948565   4.125989   2.762833
    39  Rh   2.950705   3.089566   3.259327   4.069684   3.209481
                   26         27         28         29         30
    26  C    0.000000
    27  H    1.094498   0.000000
    28  H    1.087362   1.778814   0.000000
    29  H    1.088758   1.776314   1.771970   0.000000
    30  C    5.916153   6.981694   5.823270   5.775410   0.000000
    31  H    6.837573   7.909941   6.763274   6.582930   1.094809
    32  H    5.896876   6.970996   5.606111   5.854521   1.087057
    33  H    6.132694   7.144537   6.118201   6.121789   1.086978
    34  C    4.930446   5.996155   4.849309   4.425963   2.394833
    35  H    4.856492   5.931288   4.536772   4.484394   2.649095
    36  H    5.995237   7.048136   5.924500   5.426937   2.627390
    37  H    4.422526   5.425148   4.473320   3.729595   3.346869
    38  H    3.930427   4.823310   3.828666   4.350889   3.126233
    39  Rh   2.932653   3.950334   3.070882   2.993507   3.086059
                   31         32         33         34         35
    31  H    0.000000
    32  H    1.775982   0.000000
    33  H    1.781691   1.769619   0.000000
    34  C    2.665013   2.606077   3.343758   0.000000
    35  H    3.048655   2.390502   3.626448   1.087359   0.000000
    36  H    2.424520   2.933401   3.640440   1.094506   1.778817
    37  H    3.650713   3.617301   4.179789   1.088752   1.771968
    38  H    4.217025   3.046827   2.850946   3.986065   3.885802
    39  Rh   4.063688   3.262232   3.206888   2.927096   3.071955
                   36         37         38         39
    36  H    0.000000
    37  H    1.776315   0.000000
    38  H    4.888205   4.386797   0.000000
    39  Rh   3.943173   2.987158   1.690521   0.000000
 Stoichiometry    C12H22N3ORh
 Framework group  C1[X(C12H22N3ORh)]
 Deg. of freedom   111
 Full point group                 C1      NOp   1
 Largest Abelian subgroup         C1      NOp   1
 Largest concise Abelian subgroup C1      NOp   1
                         Standard orientation:                         
 ---------------------------------------------------------------------
 Center     Atomic      Atomic             Coordinates (Angstroms)
 Number     Number       Type             X           Y           Z
 ---------------------------------------------------------------------
      1          6           0       -1.542474   -1.172785   -0.211326
      2          6           0       -1.538370    1.158083   -0.219783
      3          6           0       -2.884872   -1.227890    0.019608
      4          6           0       -2.881950    1.213831    0.010426
      5          6           0       -3.626452   -0.005729    0.241811
      6          1           0       -3.443676   -2.093546   -0.310762
      7          1           0       -3.440056    2.077586   -0.326036
      8          8           0       -4.875689   -0.004376    0.269403
      9          7           0       -0.889682   -0.013899   -0.342515
     10          6           0       -0.640124   -2.333749   -0.522781
     11          1           0       -0.553578   -2.421334   -1.606422
     12          1           0       -1.045069   -3.274937   -0.143675
     13          6           0       -0.638822    2.334389   -0.527559
     14          1           0       -0.550177    2.422317   -1.611004
     15          1           0       -1.053147    3.271920   -0.149506
     16          7           0        0.743108   -2.100970    0.005072
     17          7           0        0.749885    2.118080    0.009727
     18          6           0        3.269038   -0.072674    0.351684
     19          1           0        2.921766   -0.109795    1.394463
     20          1           0        3.841477   -0.986279    0.188313
     21          1           0        3.908347    0.799410    0.210916
     22          6           0        1.692546   -2.953351   -0.724363
     23          1           0        2.686970   -2.817285   -0.306875
     24          1           0        1.412801   -4.008523   -0.640891
     25          1           0        1.706344   -2.663495   -1.771892
     26          6           0        0.775158   -2.456091    1.436505
     27          1           0        0.536819   -3.515381    1.574441
     28          1           0        1.766531   -2.257064    1.836411
     29          1           0        0.046288   -1.856967    1.979821
     30          6           0        1.697594    2.977992   -0.713082
     31          1           0        1.411448    4.031298   -0.627794
     32          1           0        2.690951    2.846401   -0.291634
     33          1           0        1.717627    2.691266   -1.761370
     34          6           0        0.780067    2.474350    1.440918
     35          1           0        1.772139    2.279702    1.841236
     36          1           0        0.537322    3.532754    1.578029
     37          1           0        0.053522    1.872619    1.984456
     38          1           0        2.357131   -0.034726   -1.224813
     39         45           0        1.082945    0.013519   -0.114866
 ---------------------------------------------------------------------
 Rotational constants (GHZ):           0.5363059           0.3667186           0.2410935
 Standard basis: def2TZVPP (5D, 7F)
 There are   977 symmetry adapted cartesian basis functions of A   symmetry.
 There are   860 symmetry adapted basis functions of A   symmetry.
   860 basis functions,  1289 primitive gaussians,   977 cartesian basis functions
    70 alpha electrons       70 beta electrons
       nuclear repulsion energy      1534.2653510649 Hartrees.
 NAtoms=   39 NActive=   39 NUniq=   39 SFac= 1.00D+00 NAtFMM=   60 NAOKFM=F Big=F
 Integral buffers will be    131072 words long.
 Raffenetti 2 integral format.
 Two-electron integral symmetry is turned on.
 Nuclear repulsion after empirical dispersion term =     1534.2250628260 Hartrees.
 ------------------------------------------------------------------------------
 Polarizable Continuum Model (PCM)
 =================================
 Model                : PCM.
 Atomic radii         : UFF (Universal Force Field).
 Polarization charges : Total charges.
 Charge compensation  : None.
 Solution method      : On-the-fly selection.
 Cavity type          : Scaled VdW (van der Waals Surface) (Alpha=1.100).
 Cavity algorithm     : GePol (No added spheres)
                        Default sphere list used, NSphG=   39.
                        Lebedev-Laikov grids with approx.  5.0 points / Ang**2.
                        Smoothing algorithm: York/Karplus (Gamma=1.0000).
                        Polarization charges: spherical gaussians, with
                                              point-specific exponents (IZeta= 3).
                        Self-potential: point-specific (ISelfS= 7).
                        Self-field    : sphere-specific E.n sum rule (ISelfD= 2).
 1st derivatives      : Analytical E(r).r(x)/FMM algorithm (CHGder, D1EAlg=3).
                        Cavity 1st derivative terms included.
 Solvent              : Dichloromethane, Eps=   8.930000 Eps(inf)=   2.028346
 ------------------------------------------------------------------------------
 One-electron integrals computed using PRISM.
   1 Symmetry operations used in ECPInt.
 ECPInt:  NShTT=   52650 NPrTT=  135371 LenC2=   47759 LenP2D=   93776.
 LDataN:  DoStor=T MaxTD1= 8 Len=  415
 Number of processors reduced to  41 by ecpmxn.
 NBasis=   860 RedAO= T EigKep=  2.98D-05  NBF=   860
 NBsUse=   860 1.00D-06 EigRej= -1.00D+00 NBFU=   860
 Defaulting to unpruned grid for atomic number  45.
 ExpMin= 3.70D-02 ExpMax= 2.70D+04 ExpMxC= 9.22D+02 IAcc=3 IRadAn=         5 AccDes= 0.00D+00
 Harris functional with IExCor= 4639 and IRadAn=       5 diagonalized for initial guess.
 HarFok:  IExCor= 4639 AccDes= 0.00D+00 IRadAn=         5 IDoV= 1 UseB2=F ITyADJ=14
 ICtDFT=  3500011 ScaDFX=  1.000000  1.000000  1.000000  1.000000
 Defaulting to unpruned grid for atomic number  45.
 FoFCou: FMM=F IPFlag=           0 FMFlag=      100000 FMFlg1=           0
         NFxFlg=           0 DoJE=T BraDBF=F KetDBF=T FulRan=T
         wScrn=  0.000000 ICntrl=       500 IOpCl=  0 I1Cent=   200000004 NGrid=           0
         NMat0=    1 NMatS0=      1 NMatT0=    0 NMatD0=    1 NMtDS0=    0 NMtDT0=    0
 Petite list used in FoFCou.
 Requested convergence on RMS density matrix=1.00D-08 within 128 cycles.
 Requested convergence on MAX density matrix=1.00D-06.
 Requested convergence on             energy=1.00D-06.
 No special actions if energy rises.
 Defaulting to unpruned grid for atomic number  45.
 Defaulting to unpruned grid for atomic number  45.
 Defaulting to unpruned grid for atomic number  45.
 Defaulting to unpruned grid for atomic number  45.
 Defaulting to unpruned grid for atomic number  45.
 Defaulting to unpruned grid for atomic number  45.
 Defaulting to unpruned grid for atomic number  45.
 Defaulting to unpruned grid for atomic number  45.
 Defaulting to unpruned grid for atomic number  45.
 Defaulting to unpruned grid for atomic number  45.
 Defaulting to unpruned grid for atomic number  45.
 Defaulting to unpruned grid for atomic number  45.
 Defaulting to unpruned grid for atomic number  45.
 Defaulting to unpruned grid for atomic number  45.
 Defaulting to unpruned grid for atomic number  45.
 Defaulting to unpruned grid for atomic number  45.
 Defaulting to unpruned grid for atomic number  45.
 Defaulting to unpruned grid for atomic number  45.
 Defaulting to unpruned grid for atomic number  45.
 Defaulting to unpruned grid for atomic number  45.
 Defaulting to unpruned grid for atomic number  45.
 Defaulting to unpruned grid for atomic number  45.
 Defaulting to unpruned grid for atomic number  45.
 Defaulting to unpruned grid for atomic number  45.
 Defaulting to unpruned grid for atomic number  45.
 Defaulting to unpruned grid for atomic number  45.
 Defaulting to unpruned grid for atomic number  45.
 Defaulting to unpruned grid for atomic number  45.
 Defaulting to unpruned grid for atomic number  45.
 Defaulting to unpruned grid for atomic number  45.
 Defaulting to unpruned grid for atomic number  45.
 Defaulting to unpruned grid for atomic number  45.
 Defaulting to unpruned grid for atomic number  45.
 Defaulting to unpruned grid for atomic number  45.
 Defaulting to unpruned grid for atomic number  45.
 Defaulting to unpruned grid for atomic number  45.
 Defaulting to unpruned grid for atomic number  45.
 Defaulting to unpruned grid for atomic number  45.
 Defaulting to unpruned grid for atomic number  45.
 Defaulting to unpruned grid for atomic number  45.
 Defaulting to unpruned grid for atomic number  45.
 Defaulting to unpruned grid for atomic number  45.
 Defaulting to unpruned grid for atomic number  45.
 Defaulting to unpruned grid for atomic number  45.
 Defaulting to unpruned grid for atomic number  45.
 Defaulting to unpruned grid for atomic number  45.
 Defaulting to unpruned grid for atomic number  45.
 Defaulting to unpruned grid for atomic number  45.
 Inv3:  Mode=1 IEnd=    19415808.
 Iteration    1 A*A^-1 deviation from unit magnitude is 3.11D-15 for   2044.
 Iteration    1 A*A^-1 deviation from orthogonality  is 2.04D-15 for   2270   1277.
 Iteration    1 A^-1*A deviation from unit magnitude is 3.00D-15 for    752.
 Iteration    1 A^-1*A deviation from orthogonality  is 2.64D-15 for   1747    319.
 Error on total polarization charges =  0.01762
 SCF Done:  E(RwB97XD) =  -820.642726690     A.U. after   18 cycles
            NFock= 18  Conv=0.75D-08     -V/T= 2.0985

 **********************************************************************

            Population analysis using the SCF Density.

 **********************************************************************

 Orbital symmetries:
       Occupied  (A) (A) (A) (A) (A) (A) (A) (A) (A) (A) (A) (A)
                 (A) (A) (A) (A) (A) (A) (A) (A) (A) (A) (A) (A)
                 (A) (A) (A) (A) (A) (A) (A) (A) (A) (A) (A) (A)
                 (A) (A) (A) (A) (A) (A) (A) (A) (A) (A) (A) (A)
                 (A) (A) (A) (A) (A) (A) (A) (A) (A) (A) (A) (A)
                 (A) (A) (A) (A) (A) (A) (A) (A) (A) (A)
       Virtual   (A) (A) (A) (A) (A) (A) (A) (A) (A) (A) (A) (A)
                 (A) (A) (A) (A) (A) (A) (A) (A) (A) (A) (A) (A)
                 (A) (A) (A) (A) (A) (A) (A) (A) (A) (A) (A) (A)
                 (A) (A) (A) (A) (A) (A) (A) (A) (A) (A) (A) (A)
                 (A) (A) (A) (A) (A) (A) (A) (A) (A) (A) (A) (A)
                 (A) (A) (A) (A) (A) (A) (A) (A) (A) (A) (A) (A)
                 (A) (A) (A) (A) (A) (A) (A) (A) (A) (A) (A) (A)
                 (A) (A) (A) (A) (A) (A) (A) (A) (A) (A) (A) (A)
                 (A) (A) (A) (A) (A) (A) (A) (A) (A) (A) (A) (A)
                 (A) (A) (A) (A) (A) (A) (A) (A) (A) (A) (A) (A)
                 (A) (A) (A) (A) (A) (A) (A) (A) (A) (A) (A) (A)
                 (A) (A) (A) (A) (A) (A) (A) (A) (A) (A) (A) (A)
                 (A) (A) (A) (A) (A) (A) (A) (A) (A) (A) (A) (A)
                 (A) (A) (A) (A) (A) (A) (A) (A) (A) (A) (A) (A)
                 (A) (A) (A) (A) (A) (A) (A) (A) (A) (A) (A) (A)
                 (A) (A) (A) (A) (A) (A) (A) (A) (A) (A) (A) (A)
                 (A) (A) (A) (A) (A) (A) (A) (A) (A) (A) (A) (A)
                 (A) (A) (A) (A) (A) (A) (A) (A) (A) (A) (A) (A)
                 (A) (A) (A) (A) (A) (A) (A) (A) (A) (A) (A) (A)
                 (A) (A) (A) (A) (A) (A) (A) (A) (A) (A) (A) (A)
                 (A) (A) (A) (A) (A) (A) (A) (A) (A) (A) (A) (A)
                 (A) (A) (A) (A) (A) (A) (A) (A) (A) (A) (A) (A)
                 (A) (A) (A) (A) (A) (A) (A) (A) (A) (A) (A) (A)
                 (A) (A) (A) (A) (A) (A) (A) (A) (A) (A) (A) (A)
                 (A) (A) (A) (A) (A) (A) (A) (A) (A) (A) (A) (A)
                 (A) (A) (A) (A) (A) (A) (A) (A) (A) (A) (A) (A)
                 (A) (A) (A) (A) (A) (A) (A) (A) (A) (A) (A) (A)
                 (A) (A) (A) (A) (A) (A) (A) (A) (A) (A) (A) (A)
                 (A) (A) (A) (A) (A) (A) (A) (A) (A) (A) (A) (A)
                 (A) (A) (A) (A) (A) (A) (A) (A) (A) (A) (A) (A)
                 (A) (A) (A) (A) (A) (A) (A) (A) (A) (A) (A) (A)
                 (A) (A) (A) (A) (A) (A) (A) (A) (A) (A) (A) (A)
                 (A) (A) (A) (A) (A) (A) (A) (A) (A) (A) (A) (A)
                 (A) (A) (A) (A) (A) (A) (A) (A) (A) (A) (A) (A)
                 (A) (A) (A) (A) (A) (A) (A) (A) (A) (A) (A) (A)
                 (A) (A) (A) (A) (A) (A) (A) (A) (A) (A) (A) (A)
                 (A) (A) (A) (A) (A) (A) (A) (A) (A) (A) (A) (A)
                 (A) (A) (A) (A) (A) (A) (A) (A) (A) (A) (A) (A)
                 (A) (A) (A) (A) (A) (A) (A) (A) (A) (A) (A) (A)
                 (A) (A) (A) (A) (A) (A) (A) (A) (A) (A) (A) (A)
                 (A) (A) (A) (A) (A) (A) (A) (A) (A) (A) (A) (A)
                 (A) (A) (A) (A) (A) (A) (A) (A) (A) (A) (A) (A)
                 (A) (A) (A) (A) (A) (A) (A) (A) (A) (A) (A) (A)
                 (A) (A) (A) (A) (A) (A) (A) (A) (A) (A) (A) (A)
                 (A) (A) (A) (A) (A) (A) (A) (A) (A) (A) (A) (A)
                 (A) (A) (A) (A) (A) (A) (A) (A) (A) (A) (A) (A)
                 (A) (A) (A) (A) (A) (A) (A) (A) (A) (A) (A) (A)
                 (A) (A) (A) (A) (A) (A) (A) (A) (A) (A) (A) (A)
                 (A) (A) (A) (A) (A) (A) (A) (A) (A) (A) (A) (A)
                 (A) (A) (A) (A) (A) (A) (A) (A) (A) (A) (A) (A)
                 (A) (A) (A) (A) (A) (A) (A) (A) (A) (A) (A) (A)
                 (A) (A) (A) (A) (A) (A) (A) (A) (A) (A) (A) (A)
                 (A) (A) (A) (A) (A) (A) (A) (A) (A) (A) (A) (A)
                 (A) (A) (A) (A) (A) (A) (A) (A) (A) (A) (A) (A)
                 (A) (A) (A) (A) (A) (A) (A) (A) (A) (A) (A) (A)
                 (A) (A) (A) (A) (A) (A) (A) (A) (A) (A) (A) (A)
                 (A) (A) (A) (A) (A) (A) (A) (A) (A) (A) (A) (A)
                 (A) (A) (A) (A) (A) (A) (A) (A) (A) (A) (A) (A)
                 (A) (A) (A) (A) (A) (A) (A) (A) (A) (A) (A) (A)
                 (A) (A) (A) (A) (A) (A) (A) (A) (A) (A) (A) (A)
                 (A) (A) (A) (A) (A) (A) (A) (A) (A) (A) (A) (A)
                 (A) (A) (A) (A) (A) (A) (A) (A) (A) (A) (A) (A)
                 (A) (A) (A) (A) (A) (A) (A) (A) (A) (A) (A) (A)
                 (A) (A) (A) (A) (A) (A) (A) (A) (A) (A) (A) (A)
                 (A) (A) (A) (A) (A) (A) (A) (A) (A) (A) (A) (A)
                 (A) (A) (A) (A) (A) (A) (A) (A) (A) (A)
 The electronic state is 1-A.
 Alpha  occ. eigenvalues --  -19.17994 -14.49944 -14.49878 -14.44677 -10.33854
 Alpha  occ. eigenvalues --  -10.33105 -10.33062 -10.32939 -10.32912 -10.31707
 Alpha  occ. eigenvalues --  -10.31689 -10.31441 -10.31403 -10.27250 -10.26911
 Alpha  occ. eigenvalues --  -10.26866  -3.31278  -2.07087  -2.06911  -2.04655
 Alpha  occ. eigenvalues --   -1.08921  -1.07652  -1.06174  -1.04465  -0.90500
 Alpha  occ. eigenvalues --   -0.86069  -0.83642  -0.82547  -0.82493  -0.80153
 Alpha  occ. eigenvalues --   -0.76296  -0.72996  -0.72466  -0.70417  -0.66156
 Alpha  occ. eigenvalues --   -0.61109  -0.60340  -0.59051  -0.58578  -0.57855
 Alpha  occ. eigenvalues --   -0.57132  -0.56694  -0.56128  -0.52367  -0.52137
 Alpha  occ. eigenvalues --   -0.50727  -0.50251  -0.49693  -0.48877  -0.48237
 Alpha  occ. eigenvalues --   -0.47938  -0.47680  -0.47163  -0.46862  -0.46641
 Alpha  occ. eigenvalues --   -0.46380  -0.45847  -0.44441  -0.44136  -0.42989
 Alpha  occ. eigenvalues --   -0.41881  -0.39876  -0.37380  -0.33297  -0.30960
 Alpha  occ. eigenvalues --   -0.30576  -0.30340  -0.30195  -0.29751  -0.25985
 Alpha virt. eigenvalues --    0.02541   0.05005   0.06310   0.07419   0.08477
 Alpha virt. eigenvalues --    0.09678   0.10403   0.11860   0.14012   0.14325
 Alpha virt. eigenvalues --    0.15202   0.15843   0.16088   0.16378   0.16730
 Alpha virt. eigenvalues --    0.16992   0.17347   0.17815   0.18115   0.19267
 Alpha virt. eigenvalues --    0.19790   0.20167   0.20951   0.21129   0.21260
 Alpha virt. eigenvalues --    0.21827   0.22475   0.22607   0.22787   0.23599
[...]
 010966,0.00007667,-0.00004825,0.00001382,0.00005863,-0.00009143,0.0000
 3152,-0.00002741,0.00009240,-0.00000437,0.00000417,-0.00000190,0.00000
 265,0.00000379,-0.00000045,0.00000183,0.00002284,-0.00002717,0.0000030
 9,0.00024851,-0.00001695,0.00004699,-0.00006190,0.00001041,0.00002764,
 0.00000354,-0.00000621,-0.00000251,0.00001664,0.00000574,0.00000275,0.
 00070016,0.00000679,0.00157292,-0.00058141,0.00044883,0.00017807,-0.00
 037760,0.00035316,0.00001566,0.00006492,0.00000002,-0.00006531,-0.0100
 1700,0.00034433,0.00464291,0.00008559,-0.00029166,0.00046068,0.0003736
 0,-0.00083049,-0.00045139,-0.00001965,0.00008099,-0.00025396,0.0001097
 7,0.00001809,0.00012040,0.00002081,-0.00000943,0.00001921,0.00000126,-
 0.00001808,0.00000333,0.00000215,0.00001774,0.00000228,0.00000060,0.00
 000016,0.00000155,-0.00001391,0.00000379,-0.00001330,0.00001213,0.0000
 1993,-0.00000372,0.00000694,-0.00002564,-0.00001046,-0.00001185,-0.000
 00498,-0.00000002,0.00032098,-0.00014901,-0.00053674,0.00017716,-0.000
 04667,0.00011086,-0.00007793,0.00022519,-0.00032159,-0.00010228,-0.000
 13901,0.00007309,0.05010330,-0.05846206,-0.01967019,-0.05179405,0.0591
 3388,0.00000606,0.00001197,-0.00003689,-0.00032409,-0.00057705,-0.0001
 9124,0.00000467,0.00005458,0.00000184,0.00010620,0.00025292,0.00015221
 ,-0.00004984,-0.00008983,0.00000142,0.00000041,0.00000597,0.00000304,0
 .00000038,-0.00000967,-0.00002313,0.00007921,0.00003366,0.00001809,-0.
 00000135,0.00023826,0.00006796,0.00001683,0.00001567,0.00000009,-0.000
 00055,0.00000366,0.00000108,-0.00000144,0.00000663,-0.00000122,-0.0016
 1646,0.00089854,-0.00619065,0.00194918,-0.00004021,-0.00072396,-0.0001
 8203,-0.00006981,0.00004806,0.00001451,0.00017392,-0.00002866,0.033072
 16,-0.00392092,-0.01712898,0.00038409,-0.00000930,0.00023707,-0.000102
 49,0.00001373,0.00024080,-0.00003533,-0.00020829,0.00004565,-0.0004011
 5,0.00005864,-0.00006488,0.00002542,0.00000371,0.00000890,-0.00000858,
 0.00001154,-0.00000105,-0.00001188,0.00000481,-0.00000460,-0.00000086,
 0.00000151,-0.00000326,0.00000827,-0.00000959,-0.00002338,-0.00000379,
 -0.00000099,0.00000348,0.00000236,0.00001046,0.00001422,-0.00000498,0.
 00000011,0.00000321,0.00224031,0.00022107,0.00110363,-0.00022687,-0.00
 004308,-0.00007795,-0.00085778,-0.00021733,-0.00030482,-0.00013739,0.0
 0023536,0.00032098,0.08016164,-0.01681985,-0.08000862,-0.09679360,0.01
 634884,0.09420073,0.00006742,0.00010832,-0.00000857,-0.00027586,-0.000
 27268,-0.00007263,-0.00004225,0.00001470,-0.00001851,0.00013488,0.0001
 0136,-0.00000395,-0.00005660,-0.00012016,-0.00002291,0.00000288,0.0000
 0731,-0.00000060,-0.00001897,0.00000410,0.00001186,0.00006044,0.000033
 65,0.00001567,-0.00026082,0.00013605,0.00020160,-0.00003756,-0.0000028
 5,0.00001804,-0.00000041,-0.00000144,-0.00000182,0.00001065,0.00001252
 ,-0.00000234,0.00120902,-0.00240033,0.00072667,0.00003772,0.00004309,-
 0.00010925,-0.00004959,0.00019701,0.00008916,-0.00006136,0.00013023,0.
 00002615,-0.00039054,-0.00058897,-0.00026199,-0.00011256,0.00030109,0.
 00006784,0.00007667,-0.00016276,-0.00025947,-0.00003546,0.00005294,-0.
 00009586,0.00014138,-0.00011562,0.00005918,0.00002620,0.00000489,0.000
 03484,0.00000284,-0.00000577,0.00000185,-0.00000183,0.00002274,-0.0000
 1127,0.00000119,-0.00000095,-0.00000542,-0.00001752,0.00000162,-0.0000
 5972,0.00001422,0.00001263,0.00001224,-0.00000172,-0.00001213,-0.00000
 379,0.00000634,-0.00000014,0.00000867,0.00009853,0.00112130,-0.0001857
 0,0.00006311,-0.00012116,-0.00021228,-0.00008421,0.00015473,0.00014884
 ,-0.00006389,-0.00023063,0.00005953,-0.06402886,0.05445322,-0.00455392
 ,-0.00403316,0.02803369,-0.00309888,0.06103866,0.00014874,0.00027324,0
 .00012439,0.00024395,-0.00030444,0.00007454,-0.00018163,0.00006714,-0.
 00005771,-0.00015515,-0.00012905,-0.00009015,0.00032705,-0.00000265,0.
 00005742,-0.00001786,-0.00001102,-0.00001617,-0.00003843,0.00001669,0.
 00001302,-0.00032427,0.00000448,-0.00007696,-0.00037720,0.00017241,0.0
 0017783,0.00016608,0.00002216,-0.00007435,0.00000133,0.00001264,0.0000
 0922,-0.00004043,-0.00003590,-0.00000314,0.00081397,0.00078145,-0.0011
 7084,-0.00022770,0.00036704,-0.00010333,-0.00106080,0.00005503,0.00051
 343,0.00004194,-0.00032031,-0.00029575,0.00193193,-0.01068866,0.007823
 90,-0.00036730,0.00010249,-0.00006557,-0.00003728,0.00006084,-0.000042
 68,0.00003797,-0.00004448,-0.00001739,0.00003227,0.00006580,-0.0000203
 4,-0.00013616,0.00005569,-0.00010881,0.00000956,0.00001446,-0.00000104
 ,0.00001125,-0.00006986,0.00001497,0.00000390,0.00000990,-0.00000203,-
 0.00004048,-0.00010520,0.00015936,-0.00001261,-0.00006060,-0.00006312,
 0.00000728,0.00001992,0.00000099,0.00000591,0.00001805,0.00000307,-0.0
 0085261,0.00194618,-0.00118792,0.00072680,0.00045690,0.00073802,0.0000
 6694,-0.00018008,0.00003067,-0.00003247,0.00034777,-0.00002238,0.05423
 826,-0.28870410,0.02059411,0.00003038,-0.00392355,-0.00015897,-0.06041
 556,0.31359017,-0.00000392,-0.00002332,0.00000408,0.00023439,-0.000095
 41,0.00000531,0.00003721,-0.00005165,0.00000378,0.00011478,0.00006081,
 0.00005373,-0.00005453,-0.00001152,0.00000299,0.00000652,0.00000266,-0
 .00000145,0.00001223,0.00000152,0.00000955,0.00007857,0.00000037,0.000
 01414,-0.00013477,-0.00011194,0.00002384,-0.00017931,-0.00001966,0.000
 07935,0.00000795,-0.00000546,-0.00001172,0.00004060,0.00001870,-0.0000
 0383,-0.00337999,0.00219406,0.00081855,-0.00011997,-0.00025504,0.00024
 960,0.00067538,-0.00085950,0.00045800,0.00001085,0.00061199,0.00067953
 ,-0.00705036,0.03739976,-0.01696785,0.00023870,-0.00039046,-0.00002555
 ,-0.00011502,0.00010650,0.00022619,0.00000208,0.00000525,0.00009169,-0
 .00013586,0.00001793,0.00001629,0.00012868,-0.00007348,0.00011688,-0.0
 0001461,0.00000019,0.00000015,-0.00001819,0.00005240,-0.00002327,-0.00
 000570,-0.00001189,-0.00001776,0.00005371,0.00019932,-0.00017993,0.000
 01226,0.00006322,0.00010262,-0.00001357,0.00000371,0.00000348,0.000015
 79,0.00000899,0.00000672,0.00107981,0.00345173,0.00184508,0.00020552,-
 0.00112667,0.00013858,-0.00006908,-0.00026586,-0.00011691,0.00019265,-
 0.00043737,0.00025843,-0.00353973,0.01610068,-0.05158955,0.00098640,-0
 .01074797,0.00180016,0.00532010,-0.02982656,0.06189580,0.00009961,0.00
 015376,0.00006410,0.00012431,-0.00058004,0.00042010,-0.00009559,0.0000
 3339,-0.00004813,0.00015192,0.00027061,-0.00011364,-0.00017595,-0.0003
 0817,0.00000066,-0.00000028,0.00001413,-0.00001168,-0.00000250,0.00001
 172,0.00000318,0.00015743,0.00007978,0.00003051,-0.00043081,-0.0000040
 4,0.00033124,0.00002876,-0.00000502,-0.00001303,-0.00001152,0.00000963
 ,-0.00000222,-0.00000178,0.00000425,-0.00000546,0.00033532,0.00059188,
 0.00059253,0.00008054,0.00003522,-0.00015778,0.00004613,0.00006012,0.0
 0000407,-0.00000594,0.00008573,0.00007242,0.00118819,0.00212800,0.0018
 4396,-0.00024308,-0.00010731,-0.00017972,-0.00000113,-0.00004690,0.000
 05448,0.00003990,0.00009694,0.00002814,0.00016754,0.00005452,0.0000364
 2,-0.00000664,-0.00000053,0.00002048,-0.00000410,0.00000078,-0.0000007
 5,-0.00000083,-0.00000303,-0.00000885,0.00000084,-0.00000189,-0.000008
 20,-0.00001413,0.00000776,-0.00003334,0.00000634,-0.00000590,0.0000157
 9,-0.00001500,0.00001186,-0.00000499,0.00002532,0.00003037,-0.00000114
 ,0.00045213,0.00045702,0.00026971,-0.00004767,-0.00015283,-0.00000883,
 0.00047825,0.00004092,0.00008577,0.00041261,-0.00025189,-0.00005214,-0
 .17284743,-0.10261153,-0.09164724,-0.01635256,-0.01648844,-0.01464231,
 0.00585766,0.00512686,0.00488393,0.18019838,-0.00002022,-0.00002984,-0
 .00001864,-0.00028322,0.00021311,0.00033706,0.00002108,-0.00004465,-0.
 00000974,0.00009491,-0.00004856,0.00004204,-0.00002479,0.00003817,0.00
 000003,0.00000369,-0.00000311,-0.00000024,0.00003257,-0.00001356,-0.00
 003237,0.00003537,-0.00001875,0.00001837,-0.00033911,0.00030884,0.0004
 5304,-0.00004359,-0.00000092,0.00001279,0.00000594,-0.00000088,-0.0000
 0406,0.00000788,0.00000325,0.00000143,-0.00021597,0.00031088,-0.000371
 74,0.00015170,-0.00011786,0.00002772,-0.00012011,-0.00035831,0.0000533
 2,-0.00002140,0.00017410,-0.00001992,0.00862538,0.00577164,0.00602154,
 -0.00003276,0.00004554,0.00006350,-0.00001883,0.00001102,-0.00007062,-
 0.00001011,-0.00000894,-0.00004494,-0.00005085,-0.00001258,0.00002874,
 0.00003004,0.00000699,0.00001319,-0.00000092,-0.00000128,0.00000166,-0
 .00000898,0.00001558,-0.00000536,-0.00000150,0.00000183,-0.00000692,0.
 00002126,-0.00001864,-0.00001706,0.00000015,0.00001803,-0.00000898,0.0
 0000295,-0.00000498,-0.00000010,-0.00003036,-0.00000803,-0.00000530,-0
 .00020713,0.00027589,0.00109935,0.00009257,0.00047211,0.00038268,-0.00
 010015,-0.00017266,0.00007248,0.00005107,0.00052573,0.00035206,-0.1042
 9183,-0.13542542,-0.07729521,0.00496556,0.00363841,0.00412861,-0.02064
 889,-0.01489124,-0.01462612,0.11119855,0.14011515,0.00012645,0.0001918
 3,-0.00000189,0.00084634,0.00012615,-0.00033154,-0.00007410,-0.0000343
 4,-0.00004681,-0.00001904,-0.00009098,0.00007073,0.00033848,0.00014312
 ,0.00006200,-0.00000832,-0.00001579,0.00000144,-0.00001494,0.00000932,
 0.00000872,-0.00027407,-0.00003966,-0.00007025,-0.00018982,0.00008856,
 0.00020692,-0.00006489,0.00003955,0.00003255,0.00001821,-0.00000570,0.
 00000018,0.00001952,-0.00001024,-0.00000695,-0.00145328,-0.00066888,0.
 00080373,-0.00013397,0.00002683,0.00019261,0.00021806,-0.00008795,-0.0
 0009662,0.00002875,0.00022607,-0.00001490,-0.02448711,-0.01822275,-0.0
 2160867,-0.00003692,0.00003966,-0.00004583,-0.00000023,0.00003426,-0.0
 0004258,0.00000301,-0.00001774,-0.00000653,0.00001414,-0.00003724,-0.0
 0000174,0.00002275,0.00001207,0.00000779,0.00000072,0.00000095,0.00000
 260,-0.00001053,0.00000614,-0.00001176,-0.00000264,-0.00000040,-0.0000
 1283,-0.00000514,-0.00000749,-0.00003865,0.00000867,-0.00000306,0.0000
 0672,0.00000456,0.00000002,0.00000322,-0.00000113,0.00000534,0.0000230
 9,0.00204520,0.00294050,-0.00584851,0.00014261,-0.00007785,0.00005356,
 -0.00004993,0.00016898,0.00024471,-0.00128860,-0.00116098,-0.00105662,
 -0.08388810,-0.07051285,-0.11325958,0.00722303,0.00725593,0.00708025,0
 .00263097,0.00144341,0.00257932,0.09858472,0.07849846,0.13174662,-0.00
 076951,0.00003301,0.00017603,-0.00076951,-0.00003268,0.00017552,0.0005
 1644,-0.00049623,-0.00020155,0.00051659,0.00049630,-0.00020177,-0.0009
 0913,-0.00000040,0.00003266,0.00002966,0.00002111,-0.00015263,0.000029
 66,-0.00002122,-0.00015252,0.00091137,0.00000030,0.00019204,-0.0087292
 2,-0.00000036,0.00709441,-0.00045590,-0.00021213,0.00048085,0.00000192
 ,-0.00005750,-0.00001771,0.00013065,0.00011458,0.00001187,-0.00045621,
 0.00021201,0.00048054,0.00000192,0.00005742,-0.00001776,0.00013073,-0.
 00011450,0.00001197,0.00034413,-0.00023799,-0.00006811,0.00034207,0.00
 023441,-0.00007061,-0.02827043,-0.00000729,-0.01919751,0.01076443,-0.0
 0000572,-0.00328019,-0.00513638,-0.00171655,0.00683281,-0.00515104,0.0
 0172057,0.00685227,0.00072116,-0.00045579,0.00000367,-0.00020929,0.000
 14525,0.00003482,-0.00016845,0.00020254,0.00002291,-0.00007757,0.00006
 689,0.00002127,0.00041064,-0.00019876,-0.00045556,-0.00009925,0.000249
 06,0.00011830,-0.00000073,0.00018715,0.00018842,-0.00013725,0.00001480
 ,-0.00014043,0.00072262,0.00045546,0.00000292,-0.00016852,-0.00020286,
 0.00002301,-0.00020942,-0.00014606,0.00003487,-0.00007797,-0.00006696,
 0.00002119,0.00041081,0.00019896,-0.00045566,-0.00000077,-0.00018726,0
 .00018854,-0.00009915,-0.00024885,0.00011851,-0.00013707,-0.00001496,-
 0.00014013,0.13877740,-0.00003805,-0.00068781,-0.00080718,0.00003959,-
 0.00068833,0.00080825,0.00051162,-0.00006194,0.00022456,-0.00051199,-0
 .00006245,-0.00022474,0.00000017,0.00066790,-0.00000008,-0.00000579,-0
 .00000142,0.00012729,0.00000579,-0.00000148,-0.00012743,-0.00000024,-0
 .00014869,-0.00000002,-0.00000251,0.00463272,0.00000117,-0.00035068,0.
 00018267,-0.00003544,0.00002016,0.00003980,0.00001865,0.00006671,0.000
 02991,0.00005162,0.00035133,0.00018266,0.00003513,-0.00002018,0.000039
 79,-0.00001867,-0.00006683,0.00002996,-0.00005172,-0.00257019,0.004379
 37,-0.00246496,0.00257104,0.00438313,0.00246319,0.00000062,-0.00417800
 ,0.00000010,-0.00000129,-0.00144885,0.00000102,0.00330603,0.00028524,-
 0.00488468,-0.00330662,0.00028853,0.00488341,0.00005335,-0.00016813,0.
 00038158,0.00006466,-0.00012769,-0.00002341,-0.00005875,0.00031043,-0.
 00016855,0.00002634,-0.00003645,-0.00007253,-0.00019921,-0.00000406,-0
 .00012315,0.00013998,-0.00006288,0.00002786,0.00002005,0.00000882,0.00
 001108,0.00009834,-0.00002866,0.00024400,-0.00005344,-0.00016804,-0.00
 038282,0.00005884,0.00031084,0.00016881,-0.00006502,-0.00012852,0.0000
 2366,-0.00002653,-0.00003520,0.00007292,0.00019886,-0.00000350,0.00012
 406,-0.00002013,0.00000887,-0.00001114,-0.00013988,-0.00006250,-0.0000
 2809,-0.00009812,-0.00002873,-0.00024383,0.00006564,0.01685704,0.00216
 182,0.00197884,0.00064406,0.00216252,-0.00197690,0.00064512,-0.0010174
 1,0.00058517,-0.00024945,-0.00101665,-0.00058565,-0.00024874,0.0015250
 7,0.00000006,0.00032698,-0.00001143,-0.00004112,-0.00002827,-0.0000114
 6,0.00004110,-0.00002820,-0.00145280,-0.00000034,-0.00033814,-0.000091
 22,-0.00000029,0.00380701,0.00044236,0.00011582,-0.00019198,-0.0000039
 4,-0.00006488,-0.00000806,-0.00011386,-0.00017283,-0.00007880,0.000441
 96,-0.00011596,-0.00019196,-0.00000392,0.00006480,-0.00000810,-0.00011
 383,0.00017267,-0.00007889,-0.00036362,-0.00031631,-0.00076046,-0.0003
 6503,0.00031277,-0.00076141,0.01197987,0.00000255,0.00330417,-0.003042
 71,0.00000308,0.00449864,0.00226409,0.00045919,-0.00261614,0.00227363,
 -0.00046116,-0.00262594,-0.00098197,0.00027855,-0.00025200,0.00030173,
 -0.00031932,-0.00010212,0.00035011,-0.00029149,0.00006643,-0.00001325,
 -0.00000756,0.00019776,-0.00075970,-0.00006167,0.00025964,0.00021972,-
 0.00055390,-0.00007833,-0.00006791,-0.00016169,-0.00021714,0.00039065,
 -0.00013470,0.00033796,-0.00098373,-0.00027829,-0.00025070,0.00035033,
 0.00029142,0.00006621,0.00030222,0.00032069,-0.00010240,-0.00001327,0.
 00000686,0.00019796,-0.00076039,0.00006075,0.00025899,-0.00006788,0.00
 016192,-0.00021726,0.00021971,0.00055381,-0.00007872,0.00039052,0.0001
 3516,0.00033785,0.08592047,0.00003078,0.04638792,-0.01434019,-0.016428
 69,0.00035125,-0.01435275,0.01642297,0.00033774,0.00235883,0.00096587,
 0.00087023,0.00235892,-0.00096276,0.00087101,-0.00272866,-0.00000079,-
 0.00078158,0.00058927,0.00025717,0.00009224,0.00058912,-0.00025691,0.0
 0009221,0.00233433,0.00000071,0.00066048,-0.10729670,-0.00000798,0.009
 13598,-0.00397706,-0.01233234,-0.00242175,-0.00000270,0.00033521,0.000
 08242,-0.00304613,0.00000692,0.00103136,-0.00398537,0.01233256,-0.0024
 2829,-0.00000267,-0.00033515,0.00008287,-0.00304554,-0.00000765,0.0010
 3138,-0.03878905,0.00959591,0.00153550,-0.03878699,-0.00958432,0.00154
 379,-0.03509359,0.00002766,0.05460280,-0.01309555,0.00000391,0.0120618
 9,-0.00470368,0.00224314,0.00088302,-0.00468628,-0.00224411,0.00086862
 ,0.00200719,0.00850643,0.00120435,0.00000935,0.00064501,0.00012224,-0.
 00082110,0.00168371,-0.00116122,0.00011800,0.00015777,-0.00003284,0.00
 010750,-0.00063773,-0.00036219,0.00082265,-0.00059489,0.00037720,-0.00
 020824,0.00080742,0.00024036,0.00054329,-0.00114376,-0.00013261,0.0020
 1063,-0.00849983,0.00120965,-0.00082010,-0.00168476,-0.00116070,0.0000
 0872,-0.00064644,0.00012215,0.00011746,-0.00015816,-0.00003314,0.00010
 744,0.00063566,-0.00036534,-0.00020831,-0.00080675,0.00024141,0.000822
 47,0.00059441,0.00037799,0.00054283,0.00114500,-0.00013331,-0.10272944
 ,-0.00006368,-0.10044081,0.37727208,-0.01367873,0.00247073,0.00021520,
 0.01367138,0.00247841,-0.00021653,-0.00141337,-0.00383440,-0.00068185,
 0.00141415,-0.00383352,0.00068578,0.00000057,-0.00054115,-0.00000010,-
 0.00061072,0.00015879,-0.00063038,0.00061042,0.00015952,0.00063075,-0.
 00000053,0.00001164,-0.00000008,-0.00000718,-0.04620981,0.00001002,-0.
 01391033,-0.00736858,0.00420779,0.00051443,-0.00007163,-0.00048980,0.0
 0154640,0.00070408,0.00009214,0.01391380,-0.00736497,-0.00420148,-0.00
 051478,-0.00007172,0.00048957,-0.00154633,0.00070316,-0.00009269,0.003
 92213,-0.04526208,0.00166437,-0.00391560,-0.04527905,-0.00165399,0.000
 01492,-0.05315973,0.00001573,-0.00000577,0.00181895,0.00000135,0.01152
 084,0.00409957,-0.01085252,-0.01150753,0.00409581,0.01084622,0.0042465
 6,-0.01058940,0.00380661,-0.00123905,0.00041022,-0.00033004,-0.0007700
 6,0.00094273,-0.00051522,-0.00061491,-0.00002482,-0.00121435,-0.000129
 16,-0.00676036,-0.00998995,-0.00029318,0.00107320,0.00133001,-0.000462
 83,-0.00061224,0.00054794,-0.00016177,-0.00073843,0.00001883,-0.004240
 11,-0.01060210,-0.00380042,0.00076884,0.00094087,0.00051430,0.00123889
 ,0.00040997,0.00033045,0.00061480,-0.00002510,0.00121453,0.00012912,-0
 .00674848,0.00999186,0.00046230,-0.00061103,-0.00054812,0.00029273,0.0
 0107321,-0.00133184,0.00016180,-0.00073736,-0.00001942,-0.00005140,-0.
 02450436,-0.00003196,0.00002928,0.25339946,0.00034088,0.00409531,0.001
 07567,0.00033113,-0.00409666,0.00107865,-0.00249527,-0.00002954,0.0009
 5141,-0.00249612,0.00003229,0.00095093,0.00290049,0.00000069,0.0000038
 9,-0.00047233,-0.00010709,0.00038228,-0.00047286,0.00010710,0.00038172
 ,-0.00274981,-0.00000078,-0.00062954,0.01221028,0.00001055,-0.02382682
 ,0.00108903,0.00501593,0.00073773,-0.00008038,0.00038762,0.00015934,0.
 00147917,0.00017012,0.00002858,0.00108028,-0.00500758,0.00074434,-0.00
 008030,-0.00038671,0.00015900,0.00147963,-0.00016978,0.00002877,0.0031
 2804,0.00086060,-0.03150917,0.00313016,-0.00084950,-0.03150993,0.03632
 169,0.00000667,-0.02840880,0.01024884,-0.00000024,-0.01125866,0.002070
 06,-0.00107233,-0.00105364,0.00206981,0.00107260,-0.00105815,0.0017813
 5,0.00640910,0.00010508,0.00011360,-0.00017626,0.00000643,-0.00097016,
 0.00157674,-0.00013587,0.00003322,0.00072677,0.00014318,-0.00159721,-0
 .01299690,-0.00105572,-0.00066440,-0.00107497,-0.00246765,0.00011296,-
 0.00112704,-0.00032193,-0.00079333,-0.00079435,-0.00096266,0.00178617,
 -0.00640507,0.00011171,-0.00097055,-0.00157820,-0.00013557,0.00011268,
 0.00017559,0.00000604,0.00003297,-0.00072726,0.00014275,-0.00160128,0.
 01300249,-0.00106763,0.00011300,0.00112633,-0.00032229,-0.00066405,0.0
 0107307,-0.00246729,-0.00079329,0.00079411,-0.00096233,-0.08448772,-0.
 00003068,-0.05182347,0.01942362,-0.00001272,0.18377963\\-0.00000329,-0
 .00000299,0.00000507,-0.00000318,-0.00000051,0.00000807,0.00000134,0.0
 0000121,0.00000598,0.00000116,-0.00000126,0.00000430,0.00000025,0.0000
 0031,0.00000524,-0.00000019,0.00000033,0.00000785,0.00000023,-0.000000
 32,0.00000749,-0.00000072,-0.00000012,0.00001072,0.00000693,-0.0000012
 2,-0.00000181,-0.00000080,0.00000204,0.00000529,-0.00000248,0.00000021
 ,0.00000224,-0.00000140,0.00000132,0.00000289,0.00000053,-0.00000057,0
 .00000160,0.00000121,-0.00000164,0.00000245,0.00000102,0.00000014,0.00
 000344,-0.00000447,0.00000231,-0.00001722,0.00000050,0.00000219,-0.000
 01376,-0.00001160,0.00000338,-0.00000165,0.00000569,-0.00000301,-0.000
 00745,-0.00000301,-0.00000291,-0.00000878,-0.00000422,0.00000400,-0.00
 000893,0.00000575,0.00000127,-0.00000588,0.00000262,-0.00000173,-0.000
 00607,0.,-0.00000013,-0.00000094,0.00000253,0.00000341,-0.00000600,0.0
 0000713,-0.00000412,0.00000407,-0.00000263,0.00000007,-0.00000009,-0.0
 0000114,0.00000047,-0.00000612,-0.00000306,0.00000060,0.00000496,0.000
 00195,-0.00000136,-0.00000394,0.00000083,0.,-0.00000117,0.00000113,0.0
 0000091,-0.00000597,0.00000411,-0.00000164,-0.00000361,-0.00000008,0.0
 0000037,0.00000187,-0.00000233,-0.00000054,-0.00000425,-0.00000200,0.0
 0000016,-0.00000035,-0.00000335,0.00000020,0.00000179,0.00000359,-0.00
 000644,0.00000072,0.00000145,0.00000559,0.00001795\\\@
 The archive entry for this job was punched.


 THE MOLECULE ALSO HAS A BODY.  WHEN THIS BODY IS HIT, THE MOLECULE
 FEELS HURT ALL OVER -- A. KITAIGORODSKI
 Job cpu time:       2 days 20 hours 30 minutes 19.8 seconds.
 Elapsed time:       0 days  1 hours 26 minutes 13.8 seconds.
 File lengths (MBytes):  RWF=   1935 Int=      0 D2E=      0 Chk=     70 Scr=      1
 Normal termination of Gaussian 16 at Fri Mar  8 20:29:47 2024.
