 Entering Gaussian System, Link 0=/cm/shared/apps//g16/g16
 Input=QST2_HZIrMeH_sigma_HZIrMeH.gjf
 Output=QST2_HZIrMeH_sigma_HZIrMeH.log
 Initial command:
 /cm/shared/apps//g16/l1.exe "/local/mvanvleet/pbs.14686.josephine/Gau-3813360.inp" -scrdir="/local/mvanvleet/pbs.14686.josephine/"
 Entering Link 1 = /cm/shared/apps//g16/l1.exe PID=   3813362.
  
 Copyright (c) 1988-2019, Gaussian, Inc.  All Rights Reserved.
  
 This is part of the Gaussian(R) 16 program.  It is based on
 the Gaussian(R) 09 system (copyright 2009, Gaussian, Inc.),
 the Gaussian(R) 03 system (copyright 2003, Gaussian, Inc.),
 the Gaussian(R) 98 system (copyright 1998, Gaussian, Inc.),
 the Gaussian(R) 94 system (copyright 1995, Gaussian, Inc.),
 the Gaussian 92(TM) system (copyright 1992, Gaussian, Inc.),
 the Gaussian 90(TM) system (copyright 1990, Gaussian, Inc.),
 the Gaussian 88(TM) system (copyright 1988, Gaussian, Inc.),
 the Gaussian 86(TM) system (copyright 1986, Carnegie Mellon
 University), and the Gaussian 82(TM) system (copyright 1983,
 Carnegie Mellon University). Gaussian is a federally registered
 trademark of Gaussian, Inc.
  
 This software contains proprietary and confidential information,
 including trade secrets, belonging to Gaussian, Inc.
  
 This software is provided under written license and may be
 used, copied, transmitted, or stored only in accord with that
 written license.
  
 The following legend is applicable only to US Government
 contracts under FAR:
  
                    RESTRICTED RIGHTS LEGEND
  
 Use, reproduction and disclosure by the US Government is
 subject to restrictions as set forth in subparagraphs (a)
 and (c) of the Commercial Computer Software - Restricted
 Rights clause in FAR 52.227-19.
  
 Gaussian, Inc.
 340 Quinnipiac St., Bldg. 40, Wallingford CT 06492
  
  
 ---------------------------------------------------------------
 Warning -- This program may not be used in any manner that
 competes with the business of Gaussian, Inc. or will provide
 assistance to any competitor of Gaussian, Inc.  The licensee
 of this program is prohibited from giving any competitor of
 Gaussian, Inc. access to this program.  By using this program,
 the user acknowledges that Gaussian, Inc. is engaged in the
 business of creating and licensing software in the field of
 computational chemistry and represents and warrants to the
 licensee that it is not a competitor of Gaussian, Inc. and that
 it will not use this program in any manner prohibited above.
 ---------------------------------------------------------------
  

 Cite this work as:
 Gaussian 16, Revision C.01,
 M. J. Frisch, G. W. Trucks, H. B. Schlegel, G. E. Scuseria, 
 M. A. Robb, J. R. Cheeseman, G. Scalmani, V. Barone, 
 G. A. Petersson, H. Nakatsuji, X. Li, M. Caricato, A. V. Marenich, 
 J. Bloino, B. G. Janesko, R. Gomperts, B. Mennucci, H. P. Hratchian, 
 J. V. Ortiz, A. F. Izmaylov, J. L. Sonnenberg, D. Williams-Young, 
 F. Ding, F. Lipparini, F. Egidi, J. Goings, B. Peng, A. Petrone, 
 T. Henderson, D. Ranasinghe, V. G. Zakrzewski, J. Gao, N. Rega, 
 G. Zheng, W. Liang, M. Hada, M. Ehara, K. Toyota, R. Fukuda, 
 J. Hasegawa, M. Ishida, T. Nakajima, Y. Honda, O. Kitao, H. Nakai, 
 T. Vreven, K. Throssell, J. A. Montgomery, Jr., J. E. Peralta, 
 F. Ogliaro, M. J. Bearpark, J. J. Heyd, E. N. Brothers, K. N. Kudin, 
 V. N. Staroverov, T. A. Keith, R. Kobayashi, J. Normand, 
 K. Raghavachari, A. P. Rendell, J. C. Burant, S. S. Iyengar, 
 J. Tomasi, M. Cossi, J. M. Millam, M. Klene, C. Adamo, R. Cammi, 
 J. W. Ochterski, R. L. Martin, K. Morokuma, O. Farkas, 
 J. B. Foresman, and D. J. Fox, Gaussian, Inc., Wallingford CT, 2019.
 
 ******************************************
 Gaussian 16:  ES64L-G16RevC.01  3-Jul-2019
                 5-Apr-2024 
 ******************************************
 %nprocshared=48
 Will use up to   48 processors via shared memory.
 %chk=QST2_HZIrMeH_sigma_HZIrMeH.chk
 %mem=64GB
 ---------------------------------------------------------------
 # wb97xd def2TZVPP SCRF=(solvent=dichloromethane) opt=qst2 freq
 ---------------------------------------------------------------
 1/5=1,18=20,26=3,27=202,38=1/1,3;
 2/9=110,12=2,17=6,18=5,40=1/2;
 3/5=44,7=202,11=2,25=1,30=1,70=2201,71=1,72=9,74=-58/1,2,3;
 4//1;
 5/5=2,38=5,53=9/2;
 6/7=2,8=2,9=2,10=2,28=1/1;
 7//1,2,3,16;
 1/5=1,18=20,26=3,27=202/3(2);
 2/9=110/2;
 99//99;
 2/9=110/2;
 3/5=44,7=202,11=2,25=1,30=1,70=2205,71=1,72=9,74=-58/1,2,3;
 4/5=5,16=3,69=1/1;
 5/5=2,38=5,53=9/2;
 7//1,2,3,16;
 1/5=1,18=20,26=3,27=202/3(-5);
 2/9=110/2;
 6/7=2,8=2,9=2,10=2,19=2,28=1/1;
 99/9=1/99;
 ------------------------
 ts_xyz/HZIrMeH_sigma.xyz
 ------------------------
 Symbolic Z-matrix:
 Charge =  1 Multiplicity = 1
 C                    -1.6777   -1.18302  -0.15767 
 C                    -1.69305   1.1553   -0.1591 
 C                    -3.04261  -1.23091  -0.01265 
 C                    -3.06137   1.18348  -0.01531 
 C                    -3.74522  -0.02873   0.07647 
 H                    -3.56987  -2.17262   0.02143 
 H                    -3.59006   2.12608   0.01529 
 O                    -5.07305  -0.10188   0.2319 
 N                    -1.0317   -0.00799  -0.19033 
 C                    -0.78033  -2.35572  -0.42809 
 H                    -0.75813  -2.48864  -1.51062 
 H                    -1.16676  -3.27654   0.01145 
 C                    -0.81361   2.34194  -0.42814 
 H                    -0.79388   2.47668  -1.51051 
 H                    -1.21312   3.25655   0.01284 
 N                     0.62431  -2.10779   0.02025 
 N                     0.59468   2.1141    0.01956 
 C                     3.27234   0.02014   0.34156 
 H                     2.74868   0.0186    1.30239 
 H                     3.89181  -0.8699    0.27292 
 H                     3.88133   0.91714   0.26974 
 C                     1.53443  -2.92093  -0.80969 
 H                     2.55004  -2.79909  -0.44215 
 H                     1.2634   -3.97915  -0.75852 
 H                     1.48456  -2.57834  -1.83983 
 C                     0.75513  -2.54221   1.42965 
 H                     0.56617  -3.6163    1.51189 
 H                     1.76098  -2.32753   1.7807 
 H                     0.04258  -2.00167   2.0478 
 C                     1.49321   2.939    -0.81137 
 H                     1.20835   3.99364  -0.76052 
 H                     2.51051   2.8307   -0.44423 
 H                     1.44742   2.59526  -1.84131 
 C                     0.72013   2.55144   1.42857 
 H                     1.72918   2.35175   1.77922 
 H                     0.51583   3.62279   1.51019 
 H                     0.01612   2.00091   2.04768 
 H                     2.65086   0.01491  -0.63057 
 Ir                    0.90641   0.00493  -0.08629 
 H                    -5.46438   0.77355   0.27203 
 
 ------------------
 ts_xyz/HZIrMeH.xyz
 ------------------
 Symbolic Z-matrix:
 Charge =  1 Multiplicity = 1
 C                    -1.69569  -1.18496  -0.17606 
 C                    -1.71397   1.15231  -0.18401 
 C                    -3.06077  -1.23994  -0.02189 
 C                    -3.08256   1.18524  -0.03204 
 C                    -3.76041  -0.03298   0.06162 
 H                    -3.59192  -2.17878   0.02678 
 H                    -3.61735   2.12406   0.00707 
 O                    -5.08624  -0.1072    0.22264 
 N                    -1.06957  -0.01001  -0.2261 
 C                    -0.7747   -2.35168  -0.4285 
 H                    -0.73526  -2.48698  -1.51011 
 H                    -1.15791  -3.27584   0.00599 
 C                    -0.8122    2.33345  -0.43915 
 H                    -0.76739   2.46182  -1.52144 
 H                    -1.21283   3.25433  -0.0133 
 N                     0.63268  -2.10877   0.03766 
 N                     0.59517   2.11607   0.03821 
 C                     3.03008   0.02464   0.27268 
 H                     3.21602   0.0451    1.35894 
 H                     3.56334  -0.85456  -0.10642 
 H                     3.5525    0.8964   -0.13744 
 C                     1.54181  -2.95004  -0.76617 
 H                     2.55299  -2.83431  -0.38807 
 H                     1.24915  -4.00091  -0.69961 
 H                     1.51032  -2.62462  -1.80215 
 C                     0.74143  -2.51824   1.45656 
 H                     0.52474  -3.58302   1.56357 
 H                     1.75023  -2.31704   1.80827 
 H                     0.03098  -1.95181   2.05732 
 C                     1.49534   2.97608  -0.75547 
 H                     1.18373   4.02145  -0.68765 
 H                     2.50545   2.87658  -0.36988 
 H                     1.4776    2.65363  -1.79271 
 C                     0.68354   2.52219   1.45956 
 H                     1.69402   2.34301   1.81823 
 H                     0.44141   3.58123   1.56908 
 H                    -0.01766   1.93609   2.05221 
 H                     1.16381   0.00775  -1.58645 
 Ir                    0.96356   0.00674  -0.06918 
 H                    -5.47957   0.7675    0.26199 
 
 Iteration  1 RMS(Cart)=  0.05901904 RMS(Int)=  0.10095316
 Iteration  2 RMS(Cart)=  0.03333421 RMS(Int)=  0.06831373
 Iteration  3 RMS(Cart)=  0.02546923 RMS(Int)=  0.03732342
 Iteration  4 RMS(Cart)=  0.01982449 RMS(Int)=  0.01460818
 Iteration  5 RMS(Cart)=  0.01203849 RMS(Int)=  0.00955844
 Iteration  6 RMS(Cart)=  0.00032313 RMS(Int)=  0.00955628
 Iteration  7 RMS(Cart)=  0.00000548 RMS(Int)=  0.00955628
 Iteration  8 RMS(Cart)=  0.00000016 RMS(Int)=  0.00955628
 Iteration  1 RMS(Cart)=  0.00000000 RMS(Int)=  0.00955628
 Iteration  1 RMS(Cart)=  0.00000000 RMS(Int)=  0.00955628
 Iteration  1 RMS(Cart)=  0.00000000 RMS(Int)=  0.00955628
 Iteration  1 RMS(Cart)=  0.00000000 RMS(Int)=  0.00955628
 Iteration  1 RMS(Cart)=  0.00000000 RMS(Int)=  0.00955628
 Iteration  1 RMS(Cart)=  0.00000000 RMS(Int)=  0.00955628
 Iteration  1 RMS(Cart)=  0.00000000 RMS(Int)=  0.00955628
 Iteration  1 RMS(Cart)=  0.00000000 RMS(Int)=  0.00955628
 Iteration  1 RMS(Cart)=  0.00000000 RMS(Int)=  0.00955628
   Var     Old X     New X   DQ Goal   DQ Act.  Rel. Err.   Overall
     1    2.5954    2.5967    0.0014    0.0013
     2    2.5347    2.5262   -0.0085   -0.0085
     3    2.8369    2.8442    0.0061    0.0074
     4    2.6005    2.6017    0.0012    0.0012
     5    2.5294    2.5211   -0.0084   -0.0083
     6    2.8371    2.8445    0.0061    0.0074
     7    2.6367    2.6393    0.0022    0.0026
     8    2.0405    2.0405   -0.0000   -0.0000
     9    2.6358    2.6385    0.0023    0.0027
    10    2.0431    2.0431   -0.0000   -0.0000
    11    2.5301    2.5290   -0.0012   -0.0012
    12    1.8137    1.8138    0.0001    0.0001
    13    3.6679    3.7591    0.0929    0.0913    0.9829
    14    2.0615    2.0613   -0.0001   -0.0001
    15    2.0618    2.0615   -0.0003   -0.0003
    16    2.8254    2.8328    0.0068    0.0073
    17    2.0615    2.0614   -0.0001   -0.0001
    18    2.0620    2.0616   -0.0003   -0.0003
    19    2.8255    2.8324    0.0064    0.0069
    20    2.7891    2.7897    0.0007    0.0007
    21    2.7980    2.7981    0.0002    0.0002
    22    4.0329    4.0414    0.0092    0.0084
    23    2.7890    2.7895    0.0005    0.0005
    24    2.7980    2.7982    0.0002    0.0002
    25    4.0340    4.0419    0.0087    0.0079
    26    2.0679    2.0754    0.0075    0.0075
    27    2.0533    2.0622    0.0089    0.0089
    28    2.0533    2.0622    0.0089    0.0089
    29    2.1804    3.6479    1.3989    1.4675    1.0490
    30    4.5436    4.2191   -0.2926   -0.3244    1.1088
    31    2.0540    2.0529   -0.0011   -0.0011
    32    2.0666    2.0659   -0.0006   -0.0006
    33    2.0537    2.0533   -0.0004   -0.0004
    34    2.0668    2.0650   -0.0017   -0.0017
    35    2.0537    2.0540    0.0003    0.0003
    36    2.0545    2.0565    0.0019    0.0019
    37    2.0666    2.0660   -0.0006   -0.0006
    38    2.0540    2.0529   -0.0011   -0.0011
    39    2.0537    2.0533   -0.0004   -0.0004
    40    2.0536    2.0540    0.0004    0.0004
    41    2.0668    2.0651   -0.0017   -0.0017
    42    2.0545    2.0564    0.0019    0.0019
    43    3.4533    3.1357   -0.2806   -0.3176    1.1318
    44    2.1080    2.1041   -0.0033   -0.0040
    45    2.1967    2.2026    0.0053    0.0059
    46    1.9737    1.9721   -0.0016   -0.0016
    47    2.1078    2.1038   -0.0032   -0.0039
    48    2.1957    2.2020    0.0057    0.0063
    49    1.9750    1.9731   -0.0020   -0.0020
    50    2.0682    2.0636   -0.0045   -0.0046
    51    2.1165    2.1219    0.0054    0.0055
    52    2.0985    2.0976   -0.0009   -0.0009
    53    2.0675    2.0629   -0.0045   -0.0046
    54    2.1025    2.1079    0.0054    0.0054
    55    2.1131    2.1123   -0.0008   -0.0008
    56    2.0918    2.0969    0.0048    0.0052
    57    2.0485    2.0459   -0.0024   -0.0026
    58    2.1428    2.1403   -0.0024   -0.0026
    59    1.9384    1.9390    0.0006    0.0006
    60    2.1210    2.1335    0.0113    0.0125    1.1077
    61    2.0777    2.0701   -0.0071   -0.0076
    62    2.0787    2.0709   -0.0073   -0.0078
    63    1.8610    1.8597   -0.0010   -0.0013
    64    1.9552    1.9549   -0.0003   -0.0003
    65    1.9585    1.9680    0.0093    0.0095
    66    1.8798    1.8791   -0.0008   -0.0008
    67    1.8741    1.8715   -0.0025   -0.0026
    68    1.9304    1.9254   -0.0050   -0.0050
    69    1.8609    1.8599   -0.0007   -0.0010
    70    1.9559    1.9560   -0.0000    0.0001
    71    1.9580    1.9668    0.0085    0.0087
    72    1.8798    1.8793   -0.0005   -0.0005
    73    1.8743    1.8716   -0.0026   -0.0027
    74    1.9300    1.9250   -0.0050   -0.0050
    75    1.8958    1.8943   -0.0019   -0.0015
    76    1.8963    1.8973    0.0009    0.0010
    77    1.8477    1.8549    0.0080    0.0072
    78    1.8956    1.8952   -0.0001   -0.0004
    79    2.0218    2.0245    0.0023    0.0028
    80    1.9032    1.8943   -0.0090   -0.0089
    81    1.8962    1.8947   -0.0019   -0.0015
    82    1.8962    1.8973    0.0008    0.0010
    83    1.8476    1.8541    0.0074    0.0066
    84    1.8956    1.8957    0.0004    0.0001
    85    2.0213    2.0251    0.0033    0.0038
    86    1.9036    1.8936   -0.0100   -0.0099    0.9917
    87    1.9041    1.8816   -0.0280   -0.0225    0.8023
    88    1.9044    1.8812   -0.0282   -0.0231    0.8199
    89    2.0738    2.3447    0.2250    0.2710    1.2044
    90    1.2507    1.5371    0.3268    0.2864    0.8762
    91    1.9310    1.8983   -0.0399   -0.0327    0.8197
    92    1.8236    1.7170   -0.0786   -0.1066    1.3559
    93    2.1467    2.1006   -0.0730   -0.0461    0.6310
    94    1.8234    1.7072   -0.0869   -0.1162    1.3366
    95    2.1472    2.1014   -0.0737   -0.0457    0.6206
    96    1.9011    1.9004   -0.0006   -0.0006
    97    1.9326    1.9304   -0.0022   -0.0022
    98    1.9082    1.9080   -0.0002   -0.0002
    99    1.9010    1.9044    0.0034    0.0034
   100    1.9051    1.9046   -0.0005   -0.0005
   101    1.9156    1.9158    0.0002    0.0002
   102    1.9225    1.9249    0.0024    0.0024
   103    1.9085    1.9062   -0.0023   -0.0023
   104    1.9150    1.9146   -0.0003   -0.0003
   105    1.9067    1.9085    0.0018    0.0018
   106    1.9095    1.9049   -0.0046   -0.0046
   107    1.9015    1.9046    0.0031    0.0031
   108    1.9329    1.9306   -0.0023   -0.0023
   109    1.9007    1.9002   -0.0005   -0.0005
   110    1.9083    1.9079   -0.0004   -0.0004
   111    1.9009    1.9045    0.0035    0.0035
   112    1.9157    1.9159    0.0002    0.0002
   113    1.9050    1.9045   -0.0005   -0.0005
   114    1.9086    1.9062   -0.0024   -0.0024
   115    1.9225    1.9249    0.0024    0.0024
   116    1.9150    1.9144   -0.0006   -0.0006
   117    1.9064    1.9083    0.0019    0.0019
   118    1.9012    1.9043    0.0030    0.0030
   119    1.9098    1.9056   -0.0042   -0.0042
   120    1.4345    1.4244   -0.0112   -0.0101    0.8988
   121    1.4338    1.4235   -0.0115   -0.0103    0.8912
   122    3.1331    3.1359    0.0014    0.0029
   123    3.2677    3.2274   -0.0191   -0.0403    2.1029
   124    2.7855    2.2281   -0.5803   -0.5574    0.9607
   125    2.8450    2.8244   -0.0231   -0.0206    0.8927
   126    1.6986    1.7116    0.0127    0.0130    1.0228
   127    1.7178    1.7065   -0.0383   -0.0113    0.2946
   128    1.6998    1.7125    0.0123    0.0127    1.0327
   129    1.7201    1.7089   -0.0389   -0.0112    0.2893
   130    0.4813    0.9986    0.5611    0.5173    0.9220
   131    0.0193    0.0168   -0.0025   -0.0025
   132   -3.1342   -3.1351   -0.0009   -0.0009
   133   -3.0097   -3.0163   -0.0068   -0.0066
   134    0.1200    0.1149   -0.0051   -0.0050
   135   -0.0663   -0.0566    0.0100    0.0097    0.9728
   136    2.9580    2.9416   -0.0162   -0.0165    1.0145
   137    2.9762    2.9900    0.0142    0.0138    0.9772
   138   -0.2827   -0.2950   -0.0121   -0.0124    1.0237
   139    1.5104    1.5232    0.0129    0.0128    0.9939
   140   -0.5419   -0.5273    0.0147    0.0146    0.9976
   141   -2.7256   -2.7115    0.0143    0.0141    0.9842
   142   -1.5261   -1.5170    0.0090    0.0091
   143    2.7047    2.7157    0.0108    0.0109    1.0120
   144    0.5211    0.5315    0.0105    0.0104    0.9942
   145   -0.0169   -0.0139    0.0031    0.0031
   146    3.1351    3.1365    0.0013    0.0014
   147    3.0130    3.0208    0.0080    0.0078
   148   -0.1181   -0.1120    0.0063    0.0061
   149    0.0651    0.0550   -0.0103   -0.0100    0.9733
   150   -2.9592   -2.9431    0.0159    0.0162    1.0145
   151   -2.9781   -2.9928   -0.0151   -0.0147    0.9744
   152    0.2808    0.2923    0.0112    0.0115    1.0306
   153   -1.5087   -1.5256   -0.0170   -0.0169    0.9944
   154    0.5439    0.5259   -0.0180   -0.0180    0.9979
   155    2.7273    2.7095   -0.0180   -0.0178    0.9861
   156    1.5285    1.5159   -0.0125   -0.0126    1.0109
   157   -2.7021   -2.7158   -0.0136   -0.0137    1.0142
   158   -0.5187   -0.5322   -0.0135   -0.0135    0.9986
   159    0.0272    0.0225   -0.0048   -0.0047
   160   -3.1293   -3.1307   -0.0014   -0.0014
   161   -3.1026   -3.1089   -0.0064   -0.0063
   162    0.0240    0.0210   -0.0030   -0.0030
   163   -0.0284   -0.0240    0.0045    0.0044
   164    3.1290    3.1299    0.0009    0.0009
   165    3.1026    3.1088    0.0063    0.0062
   166   -0.0231   -0.0205    0.0027    0.0027
   167   -3.1298   -3.1316   -0.0018   -0.0018
   168   -0.0036   -0.0020    0.0017    0.0017
   169   -0.0001    0.0109    0.0107    0.0110    1.0335
   170   -3.0263   -3.0104    0.0162    0.0159    0.9806
   171    1.6259    1.6407    0.0144    0.0147    1.0248
   172    3.0271    3.0143   -0.0131   -0.0128    0.9807
   173    0.0009   -0.0071   -0.0076   -0.0080
   174   -1.6300   -1.6392   -0.0094   -0.0092
   175   -2.6650   -2.6761   -0.0113   -0.0111    0.9811
   176    1.5590    1.5487   -0.0105   -0.0103    0.9777
   177   -0.4830   -0.4872   -0.0047   -0.0043
   178   -0.6257   -0.6346   -0.0089   -0.0089
   179   -2.6848   -2.6930   -0.0082   -0.0082
   180    1.5564    1.5543   -0.0023   -0.0021
   181    1.4210    1.4069   -0.0140   -0.0141    1.0036
   182   -0.6382   -0.6515   -0.0132   -0.0133    1.0022
   183   -2.6802   -2.6874   -0.0074   -0.0072
   184    2.6625    2.6796    0.0174    0.0172    0.9849
   185   -1.5615   -1.5445    0.0173    0.0170    0.9834
   186    0.4808    0.4902    0.0099    0.0094
   187    0.6233    0.6385    0.0152    0.0152    0.9998
   188    2.6826    2.6976    0.0151    0.0150    0.9982
   189   -1.5583   -1.5509    0.0077    0.0074
   190   -1.4232   -1.4032    0.0200    0.0200    1.0026
   191    0.6360    0.6559    0.0198    0.0199    1.0014
   192    2.6784    2.6906    0.0124    0.0122    0.9830
   193   -3.0719   -3.0718    0.0003    0.0001
   194   -0.9819   -0.9793    0.0028    0.0025
   195    1.1309    1.1321    0.0014    0.0012
   196   -1.0123   -1.0121    0.0002    0.0002
   197    1.0777    1.0804    0.0027    0.0027
   198   -3.0927   -3.0914    0.0013    0.0013
   199    1.1356    1.1258   -0.0101   -0.0098    0.9766
   200   -3.0575   -3.0649   -0.0076   -0.0074
   201   -0.9448   -0.9535   -0.0090   -0.0088
   202    1.0882    1.0800   -0.0087   -0.0083
   203   -3.0994   -3.1055   -0.0064   -0.0061
   204   -1.0149   -1.0188   -0.0043   -0.0039
   205   -0.9711   -0.9778   -0.0068   -0.0068
   206    1.1245    1.1199   -0.0046   -0.0046
   207   -3.0742   -3.0766   -0.0024   -0.0024
   208    3.0944    3.0904   -0.0036   -0.0040
   209   -1.0933   -1.0950   -0.0014   -0.0017
   210    0.9913    0.9917    0.0008    0.0004
   211    0.2714    0.2654   -0.0055   -0.0059
   212    0.6724    0.6557   -0.0164   -0.0167    1.0198
   213   -2.9963   -2.9620    0.0136    0.0343    2.5222
   214   -2.5107   -1.9528    0.5782    0.5579    0.9648
   215    2.3732    2.3724   -0.0006   -0.0009
   216    2.7743    2.7626   -0.0114   -0.0117    1.0206
   217   -0.8944   -0.8551    0.0186    0.0394    2.1213
   218   -0.4088    0.1541    0.5832    0.5629    0.9652
   219   -1.7660   -1.7725   -0.0062   -0.0065
   220   -1.3650   -1.3823   -0.0171   -0.0173    1.0138
   221    1.2495    1.2832    0.0129    0.0337    2.6115
   222    1.7351    2.2924    0.5775    0.5572    0.9649
   223    0.9827    0.9806   -0.0023   -0.0021
   224    3.0726    3.0731    0.0003    0.0006
   225   -1.1304   -1.1310   -0.0009   -0.0006
   226   -1.0770   -1.0795   -0.0025   -0.0025
   227    1.0129    1.0130    0.0001    0.0001
   228    3.0931    3.0920   -0.0010   -0.0011
   229    3.0581    3.0660    0.0081    0.0078
   230   -1.1351   -1.1247    0.0107    0.0104    0.9774
   231    0.9450    0.9543    0.0095    0.0093
   232    3.1000    3.1077    0.0082    0.0078
   233   -1.0879   -1.0779    0.0105    0.0101    0.9601
   234    1.0156    1.0215    0.0063    0.0059
   235   -1.1236   -1.1169    0.0066    0.0066
   236    0.9717    0.9806    0.0089    0.0089
   237    3.0753    3.0800    0.0048    0.0048
   238    1.0938    1.0985    0.0043    0.0047
   239   -3.0941   -3.0871    0.0066    0.0070
   240   -0.9906   -0.9877    0.0025    0.0029
   241   -0.2708   -0.2692    0.0012    0.0016
   242   -0.6718   -0.6595    0.0120    0.0124    1.0308
   243    2.9970    2.9583   -0.0180   -0.0387    2.1457
   244    2.5113    1.9489   -0.5827   -0.5624    0.9651
   245   -2.3727   -2.3765   -0.0041   -0.0037
   246   -2.7738   -2.7668    0.0068    0.0070
   247    0.8950    0.8510   -0.0233   -0.0440    1.8935
   248    0.4093   -0.1584   -0.5880   -0.5677    0.9656
   249    1.7666    1.7680    0.0010    0.0013
   250    1.3656    1.3777    0.0118    0.0121    1.0218
   251   -1.2488   -1.2878   -0.0182   -0.0390    2.1426
   252   -1.7345   -2.2972   -0.5829   -0.5627    0.9653
   253   -1.4981   -1.5084   -0.0070   -0.0103
   254    1.4947    1.4883   -0.0095   -0.0064
   255    3.1413    3.1327   -0.0087   -0.0086
   256    0.2697    0.4039    0.1434    0.1342    0.9360
   257   -3.0207   -2.8826    0.1409    0.1381    0.9802
   258   -1.3741   -1.2382    0.1418    0.1359    0.9587
   259    3.0171    2.8628   -0.1570   -0.1542    0.9823
   260   -0.2733   -0.4236   -0.1595   -0.1504    0.9425
   261    1.3733    1.2207   -0.1587   -0.1526    0.9616

 GradGradGradGradGradGradGradGradGradGradGradGradGradGradGradGradGradGrad
 Berny optimization.
 Initialization pass.
                           ----------------------------
                           !    Initial Parameters    !
                           ! (Angstroms and Degrees)  !
 --------------------------                            --------------------------
 ! Name  Definition         TS        Reactant Product Derivative Info.         !
 --------------------------------------------------------------------------------
 ! R1    R(1,3)             1.3741    1.3734    1.3749 estimate D2E/DX2         !
 ! R2    R(1,9)             1.3368    1.3413    1.3323 estimate D2E/DX2         !
 ! R3    R(1,10)            1.5051    1.5012    1.5077 estimate D2E/DX2         !
 ! R4    R(2,4)             1.3768    1.3761    1.3774 estimate D2E/DX2         !
 ! R5    R(2,9)             1.3341    1.3385    1.3297 estimate D2E/DX2         !
 ! R6    R(2,13)            1.5052    1.5013    1.5078 estimate D2E/DX2         !
 ! R7    R(3,5)             1.3967    1.3953    1.3976 estimate D2E/DX2         !
 ! R8    R(3,6)             1.0798    1.0798    1.0798 estimate D2E/DX2         !
 ! R9    R(4,5)             1.3963    1.3948    1.3973 estimate D2E/DX2         !
 ! R10   R(4,7)             1.0812    1.0812    1.0812 estimate D2E/DX2         !
 ! R11   R(5,8)             1.3383    1.3389    1.3376 estimate D2E/DX2         !
 ! R12   R(8,40)            0.9598    0.9598    0.9599 estimate D2E/DX2         !
 ! R13   R(9,39)            1.9893    1.9409    2.0392 estimate D2E/DX2         !
 ! R14   R(10,11)           1.0908    1.0909    1.0908 estimate D2E/DX2         !
 ! R15   R(10,12)           1.0909    1.0911    1.0907 estimate D2E/DX2         !
 ! R16   R(10,16)           1.499     1.4952    1.5023 estimate D2E/DX2         !
 ! R17   R(13,14)           1.0908    1.0909    1.0908 estimate D2E/DX2         !
 ! R18   R(13,15)           1.091     1.0911    1.0908 estimate D2E/DX2         !
 ! R19   R(13,17)           1.4989    1.4952    1.5019 estimate D2E/DX2         !
 ! R20   R(16,22)           1.4763    1.4759    1.4766 estimate D2E/DX2         !
 ! R21   R(16,26)           1.4807    1.4806    1.4808 estimate D2E/DX2         !
 ! R22   R(16,39)           2.1386    2.1341    2.1439 estimate D2E/DX2         !
 ! R23   R(17,30)           1.4762    1.4759    1.4764 estimate D2E/DX2         !
 ! R24   R(17,34)           1.4808    1.4806    1.4809 estimate D2E/DX2         !
 ! R25   R(17,39)           2.1389    2.1347    2.1439 estimate D2E/DX2         !
 ! R26   R(18,19)           1.0983    1.0943    1.1022 estimate D2E/DX2         !
 ! R27   R(18,20)           1.0913    1.0866    1.0959 estimate D2E/DX2         !
 ! R28   R(18,21)           1.0913    1.0866    1.0959 estimate D2E/DX2         !
 ! R29   R(18,38)           1.9304    1.1538    2.6343 estimate D2E/DX2         !
 ! R30   R(18,39)           2.2327    2.4044    2.0947 estimate D2E/DX2         !
 ! R31   R(22,23)           1.0863    1.0869    1.0857 estimate D2E/DX2         !
 ! R32   R(22,24)           1.0932    1.0936    1.0929 estimate D2E/DX2         !
 ! R33   R(22,25)           1.0866    1.0868    1.0863 estimate D2E/DX2         !
 ! R34   R(26,27)           1.0928    1.0937    1.0919 estimate D2E/DX2         !
 ! R35   R(26,28)           1.0869    1.0868    1.0871 estimate D2E/DX2         !
 ! R36   R(26,29)           1.0882    1.0872    1.0893 estimate D2E/DX2         !
 ! R37   R(30,31)           1.0933    1.0936    1.0929 estimate D2E/DX2         !
 ! R38   R(30,32)           1.0864    1.0869    1.0858 estimate D2E/DX2         !
 ! R39   R(30,33)           1.0866    1.0868    1.0863 estimate D2E/DX2         !
 ! R40   R(34,35)           1.0869    1.0867    1.0871 estimate D2E/DX2         !
 ! R41   R(34,36)           1.0928    1.0937    1.0919 estimate D2E/DX2         !
 ! R42   R(34,37)           1.0882    1.0872    1.0892 estimate D2E/DX2         !
 ! R43   R(38,39)           1.6594    1.8274    1.5304 estimate D2E/DX2         !
 ! A1    A(3,1,9)         120.5533  120.7807  120.4036 estimate D2E/DX2         !
 ! A2    A(3,1,10)        126.1999  125.8623  126.4656 estimate D2E/DX2         !
 ! A3    A(9,1,10)        112.9925  113.0823  112.8973 estimate D2E/DX2         !
 ! A4    A(4,2,9)         120.5401  120.7652  120.3928 estimate D2E/DX2         !
 ! A5    A(4,2,13)        126.1647  125.8025  126.4556 estimate D2E/DX2         !
 ! A6    A(9,2,13)        113.0476  113.1615  112.9278 estimate D2E/DX2         !
 ! A7    A(1,3,5)         118.2366  118.4985  117.9833 estimate D2E/DX2         !
 ! A8    A(1,3,6)         121.5781  121.2655  121.8863 estimate D2E/DX2         !
 ! A9    A(5,3,6)         120.1826  120.2324  120.1286 estimate D2E/DX2         !
 ! A10   A(2,4,5)         118.1971  118.4616  117.9422 estimate D2E/DX2         !
 ! A11   A(2,4,7)         120.7753  120.4659  121.0799 estimate D2E/DX2         !
 ! A12   A(5,4,7)         121.0256  121.0698  120.9767 estimate D2E/DX2         !
 ! A13   A(3,5,4)         120.1457  119.8486  120.4035 estimate D2E/DX2         !
 ! A14   A(3,5,8)         117.2229  117.3702  117.095  estimate D2E/DX2         !
 ! A15   A(4,5,8)         122.6279  122.7753  122.4997 estimate D2E/DX2         !
 ! A16   A(5,8,40)        111.0977  111.0627  111.1327 estimate D2E/DX2         !
 ! A17   A(1,9,2)         122.2393  121.522   122.817  estimate D2E/DX2         !
 ! A18   A(1,9,39)        118.6087  119.0417  118.2225 estimate D2E/DX2         !
 ! A19   A(2,9,39)        118.6527  119.1002  118.2659 estimate D2E/DX2         !
 ! A20   A(1,10,11)       106.5523  106.6248  106.5054 estimate D2E/DX2         !
 ! A21   A(1,10,12)       112.0088  112.0241  111.9841 estimate D2E/DX2         !
 ! A22   A(1,10,16)       112.7553  112.2115  113.2766 estimate D2E/DX2         !
 ! A23   A(11,10,12)      107.6629  107.7065  107.6145 estimate D2E/DX2         !
 ! A24   A(11,10,16)      107.2283  107.3766  107.0899 estimate D2E/DX2         !
 ! A25   A(12,10,16)      110.3156  110.6024  110.0303 estimate D2E/DX2         !
 ! A26   A(2,13,14)       106.5627  106.62    106.5383 estimate D2E/DX2         !
 ! A27   A(2,13,15)       112.0686  112.0631  112.0619 estimate D2E/DX2         !
 ! A28   A(2,13,17)       112.6872  112.1872  113.1576 estimate D2E/DX2         !
 ! A29   A(14,13,15)      107.6758  107.7027  107.6432 estimate D2E/DX2         !
 ! A30   A(14,13,17)      107.2353  107.3897  107.091  estimate D2E/DX2         !
 ! A31   A(15,13,17)      110.2963  110.5837  110.0145 estimate D2E/DX2         !
 ! A32   A(10,16,22)      108.5351  108.623   108.4053 estimate D2E/DX2         !
 ! A33   A(10,16,26)      108.7101  108.6502  108.748  estimate D2E/DX2         !
 ! A34   A(10,16,39)      106.2761  105.865   106.778  estimate D2E/DX2         !
 ! A35   A(22,16,26)      108.5865  108.6111  108.594  estimate D2E/DX2         !
 ! A36   A(22,16,39)      115.9964  115.8381  116.1061 estimate D2E/DX2         !
 ! A37   A(26,16,39)      108.5362  109.0444  108.0156 estimate D2E/DX2         !
 ! A38   A(13,17,30)      108.559   108.6431  108.4299 estimate D2E/DX2         !
 ! A39   A(13,17,34)      108.7053  108.6466  108.7403 estimate D2E/DX2         !
 ! A40   A(13,17,39)      106.2341  105.8579  106.7074 estimate D2E/DX2         !
 ! A41   A(30,17,34)      108.6131  108.6081  108.6528 estimate D2E/DX2         !
 ! A42   A(30,17,39)      116.0298  115.8114  116.1931 estimate D2E/DX2         !
 ! A43   A(34,17,39)      108.4961  109.0656  107.917  estimate D2E/DX2         !
 ! A44   A(19,18,20)      107.8075  109.0956  105.8849 estimate D2E/DX2         !
 ! A45   A(19,18,21)      107.7866  109.1118  105.8793 estimate D2E/DX2         !
 ! A46   A(19,18,38)      134.3434  118.8178  144.5998 estimate D2E/DX2         !
 ! A47   A(19,18,39)       88.0682   71.6596  109.1122 estimate D2E/DX2         !
 ! A48   A(20,18,21)      108.7659  110.641   106.0658 estimate D2E/DX2         !
 ! A49   A(20,18,38)       98.3782  104.486    95.4771 estimate D2E/DX2         !
 ! A50   A(20,18,39)      120.3562  122.9962  114.6282 estimate D2E/DX2         !
 ! A51   A(21,18,38)       97.818   104.4738   94.5143 estimate D2E/DX2         !
 ! A52   A(21,18,39)      120.4037  123.0229  114.5824 estimate D2E/DX2         !
 ! A53   A(16,22,23)      108.8865  108.9223  108.8506 estimate D2E/DX2         !
 ! A54   A(16,22,24)      110.6032  110.7314  110.475  estimate D2E/DX2         !
 ! A55   A(16,22,25)      109.3197  109.3326  109.3066 estimate D2E/DX2         !
 ! A56   A(23,22,24)      109.1144  108.9189  109.31   estimate D2E/DX2         !
 ! A57   A(23,22,25)      109.1242  109.1518  109.0966 estimate D2E/DX2         !
 ! A58   A(24,22,25)      109.7668  109.7569  109.7767 estimate D2E/DX2         !
 ! A59   A(16,26,27)      110.2873  110.1489  110.4259 estimate D2E/DX2         !
 ! A60   A(16,26,28)      109.2163  109.3478  109.0849 estimate D2E/DX2         !
 ! A61   A(16,26,29)      109.7007  109.7207  109.6808 estimate D2E/DX2         !
 ! A62   A(27,26,28)      109.3464  109.2459  109.447  estimate D2E/DX2         !
 ! A63   A(27,26,29)      109.1447  109.4076  108.8819 estimate D2E/DX2         !
 ! A64   A(28,26,29)      109.1258  108.9488  109.3029 estimate D2E/DX2         !
 ! A65   A(17,30,31)      110.6157  110.7469  110.4845 estimate D2E/DX2         !
 ! A66   A(17,30,32)      108.8707  108.9016  108.8397 estimate D2E/DX2         !
 ! A67   A(17,30,33)      109.3158  109.3375  109.2939 estimate D2E/DX2         !
 ! A68   A(31,30,32)      109.1181  108.9153  109.321  estimate D2E/DX2         !
 ! A69   A(31,30,33)      109.7739  109.7623  109.7852 estimate D2E/DX2         !
 ! A70   A(32,30,33)      109.1203  109.1498  109.0909 estimate D2E/DX2         !
 ! A71   A(17,34,35)      109.2196  109.3565  109.0828 estimate D2E/DX2         !
 ! A72   A(17,34,36)      110.2905  110.1527  110.4284 estimate D2E/DX2         !
 ! A73   A(17,34,37)      109.6856  109.7228  109.6484 estimate D2E/DX2         !
 ! A74   A(35,34,36)      109.3371  109.2298  109.4446 estimate D2E/DX2         !
 ! A75   A(35,34,37)      109.1061  108.9329  109.2793 estimate D2E/DX2         !
 ! A76   A(36,34,37)      109.1821  109.4247  108.9396 estimate D2E/DX2         !
 ! A77   A(9,39,16)        81.6101   82.189    80.9008 estimate D2E/DX2         !
 ! A78   A(9,39,17)        81.5614   82.1499   80.8293 estimate D2E/DX2         !
 ! A79   L(9,39,18,16,-1)  179.6755  179.5114  179.6762 estimate D2E/DX2        !
 ! A80   L(9,39,18,16,-2)  184.9174  187.2239  185.0303 estimate D2E/DX2        !
 ! A81   A(9,39,38)       127.6599  159.5992   93.1053 estimate D2E/DX2         !
 ! A82   A(16,39,17)      161.8253  163.008   160.3581 estimate D2E/DX2         !
 ! A83   A(16,39,18)       98.0654   97.3224   98.7753 estimate D2E/DX2         !
 ! A84   A(16,39,38)       97.7746   98.4218   94.0284 estimate D2E/DX2         !
 ! A85   A(17,39,18)       98.1165   97.39     98.7971 estimate D2E/DX2         !
 ! A86   A(17,39,38)       97.9113   98.5558   94.0997 estimate D2E/DX2         !
 ! A87   A(18,39,38)       57.2176   27.5783   91.8744 estimate D2E/DX2         !
 ! D1    D(9,1,3,5)         0.9639    1.1068    0.817  estimate D2E/DX2         !
 ! D2    D(9,1,3,6)      -179.6273 -179.5754 -179.6785 estimate D2E/DX2         !
 ! D3    D(10,1,3,5)     -172.8238 -172.4451 -173.2207 estimate D2E/DX2         !
 ! D4    D(10,1,3,6)        6.585     6.8726    6.2838 estimate D2E/DX2         !
 ! D5    D(3,1,9,2)        -3.2415   -3.7995   -2.6524 estimate D2E/DX2         !
 ! D6    D(3,1,9,39)      168.5386  169.4823  167.6219 estimate D2E/DX2         !
 ! D7    D(10,1,9,2)      171.3152  170.5227  172.1448 estimate D2E/DX2         !
 ! D8    D(10,1,9,39)     -16.9046  -16.1955  -17.5809 estimate D2E/DX2         !
 ! D9    D(3,1,10,11)      87.2731   86.5409   88.0142 estimate D2E/DX2         !
 ! D10   D(3,1,10,12)     -30.2138  -31.0513  -29.3722 estimate D2E/DX2         !
 ! D11   D(3,1,10,16)    -155.3576 -156.1635 -154.5258 estimate D2E/DX2         !
 ! D12   D(9,1,10,11)     -86.9169  -87.4389  -86.4049 estimate D2E/DX2         !
 ! D13   D(9,1,10,12)     155.5962  154.9689  156.2087 estimate D2E/DX2         !
 ! D14   D(9,1,10,16)      30.4524   29.8567   31.0551 estimate D2E/DX2         !
 ! D15   D(9,2,4,5)        -0.7949   -0.9707   -0.6146 estimate D2E/DX2         !
 ! D16   D(9,2,4,7)       179.7081  179.6299  179.7838 estimate D2E/DX2         !
 ! D17   D(13,2,4,5)      173.0771  172.631   173.5501 estimate D2E/DX2         !
 ! D18   D(13,2,4,7)       -6.4199   -6.7684   -6.0514 estimate D2E/DX2         !
 ! D19   D(4,2,9,1)         3.1523    3.7271    2.5458 estimate D2E/DX2         !
 ! D20   D(4,2,9,39)     -168.6244 -169.5509 -167.7245 estimate D2E/DX2         !
 ! D21   D(13,2,9,1)     -171.4737 -170.6313 -172.3603 estimate D2E/DX2         !
 ! D22   D(13,2,9,39)      16.7496   16.0907   17.3694 estimate D2E/DX2         !
 ! D23   D(4,2,13,14)     -87.4115  -86.4444  -88.3897 estimate D2E/DX2         !
 ! D24   D(4,2,13,15)      30.1299   31.1617   29.0938 estimate D2E/DX2         !
 ! D25   D(4,2,13,17)     155.2417  156.2604  154.1943 estimate D2E/DX2         !
 ! D26   D(9,2,13,14)      86.8541   87.5773   86.1464 estimate D2E/DX2         !
 ! D27   D(9,2,13,15)    -155.6044 -154.8166 -156.3701 estimate D2E/DX2         !
 ! D28   D(9,2,13,17)     -30.4927  -29.7179  -31.2697 estimate D2E/DX2         !
 ! D29   D(1,3,5,4)         1.2902    1.5605    1.0128 estimate D2E/DX2         !
 ! D30   D(1,3,5,8)      -179.3779 -179.2974 -179.4569 estimate D2E/DX2         !
 ! D31   D(6,3,5,4)      -178.1272 -177.7645 -178.5007 estimate D2E/DX2         !
 ! D32   D(6,3,5,8)         1.2047    1.3775    1.0295 estimate D2E/DX2         !
 ! D33   D(2,4,5,3)        -1.3737   -1.628    -1.1125 estimate D2E/DX2         !
 ! D34   D(2,4,5,8)       179.3317  179.2782  179.3834 estimate D2E/DX2         !
 ! D35   D(7,4,5,3)       178.122   177.7676  178.4895 estimate D2E/DX2         !
 ! D36   D(7,4,5,8)        -1.1726   -1.3263   -1.0146 estimate D2E/DX2         !
 ! D37   D(3,5,8,40)     -179.426  -179.3235 -179.5319 estimate D2E/DX2         !
 ! D38   D(4,5,8,40)       -0.1121   -0.2085   -0.0123 estimate D2E/DX2         !
 ! D39   D(1,9,39,16)       0.6257   -0.0073    1.2177 estimate D2E/DX2         !
 ! D40   D(1,9,39,17)    -172.4848 -173.3944 -171.5393 estimate D2E/DX2         !
 ! D41   D(1,9,39,38)      94.0023   93.1594   94.8046 estimate D2E/DX2         !
 ! D42   D(2,9,39,16)     172.7049  173.4392  171.9417 estimate D2E/DX2         !
 ! D43   D(2,9,39,17)      -0.4057    0.0521   -0.8154 estimate D2E/DX2         !
 ! D44   D(2,9,39,38)     -93.9185  -93.3941  -94.4714 estimate D2E/DX2         !
 ! D45   D(1,10,16,22)   -153.3308 -152.6948 -153.9912 estimate D2E/DX2         !
 ! D46   D(1,10,16,26)     88.7334   89.3243   88.1157 estimate D2E/DX2         !
 ! D47   D(1,10,16,39)    -27.9164  -27.6727  -28.2091 estimate D2E/DX2         !
 ! D48   D(11,10,16,22)   -36.3614  -35.849   -36.8732 estimate D2E/DX2         !
 ! D49   D(11,10,16,26)  -154.2972 -153.8299 -154.7663 estimate D2E/DX2         !
 ! D50   D(11,10,16,39)    89.053    89.1731   88.9089 estimate D2E/DX2         !
 ! D51   D(12,10,16,22)    80.6099   81.4154   79.8101 estimate D2E/DX2         !
 ! D52   D(12,10,16,26)   -37.3259  -36.5655  -38.083  estimate D2E/DX2         !
 ! D53   D(12,10,16,39)  -153.9757 -153.5625 -154.4078 estimate D2E/DX2         !
 ! D54   D(2,13,17,30)    153.531   152.5476  154.5444 estimate D2E/DX2         !
 ! D55   D(2,13,17,34)    -88.4908  -89.4658  -87.4829 estimate D2E/DX2         !
 ! D56   D(2,13,17,39)     28.0879   27.5504   28.6856 estimate D2E/DX2         !
 ! D57   D(14,13,17,30)    36.5827   35.7132   37.4526 estimate D2E/DX2         !
 ! D58   D(14,13,17,34)   154.5609  153.6998  155.4253 estimate D2E/DX2         !
 ! D59   D(14,13,17,39)   -88.8604  -89.2841  -88.4062 estimate D2E/DX2         !
 ! D60   D(15,13,17,30)   -80.3977  -81.5441  -79.2572 estimate D2E/DX2         !
 ! D61   D(15,13,17,34)    37.5806   36.4425   38.7156 estimate D2E/DX2         !
 ! D62   D(15,13,17,39)   154.1593  153.4587  154.8841 estimate D2E/DX2         !
 ! D63   D(10,16,22,23)  -176.0024 -176.0076 -175.9678 estimate D2E/DX2         !
 ! D64   D(10,16,22,24)   -56.1115  -56.2565  -55.9371 estimate D2E/DX2         !
 ! D65   D(10,16,22,25)    64.8632   64.7957   64.9601 estimate D2E/DX2         !
 ! D66   D(26,16,22,23)   -57.9881  -58.0018  -57.9766 estimate D2E/DX2         !
 ! D67   D(26,16,22,24)    61.9028   61.7493   62.0541 estimate D2E/DX2         !
 ! D68   D(26,16,22,25)  -177.1225 -177.1985 -177.0487 estimate D2E/DX2         !
 ! D69   D(39,16,22,23)    64.5009   65.0651   63.9097 estimate D2E/DX2         !
 ! D70   D(39,16,22,24)  -175.6082 -175.1838 -176.0596 estimate D2E/DX2         !
 ! D71   D(39,16,22,25)   -54.6335  -54.1316  -55.1624 estimate D2E/DX2         !
 ! D72   D(10,16,26,27)    61.877    62.3513   61.3589 estimate D2E/DX2         !
 ! D73   D(10,16,26,28)  -177.9325 -177.5851 -178.324  estimate D2E/DX2         !
 ! D74   D(10,16,26,29)   -58.3712  -58.1479  -58.6385 estimate D2E/DX2         !
 ! D75   D(22,16,26,27)   -56.0261  -55.6372  -56.4147 estimate D2E/DX2         !
 ! D76   D(22,16,26,28)    64.1643   64.4264   63.9025 estimate D2E/DX2         !
 ! D77   D(22,16,26,29)  -176.2744 -176.1364 -176.412  estimate D2E/DX2         !
 ! D78   D(39,16,26,27)   177.069   177.2955  176.8861 estimate D2E/DX2         !
 ! D79   D(39,16,26,28)   -62.7406  -62.6408  -62.7968 estimate D2E/DX2         !
 ! D80   D(39,16,26,29)    56.8208   56.7964   56.8888 estimate D2E/DX2         !
 ! D81   D(10,16,39,9)     15.2082   15.5473   14.9138 estimate D2E/DX2         !
 ! D82   D(10,16,39,17)    37.5673   38.5251   36.6466 estimate D2E/DX2         !
 ! D83   D(10,16,39,18)  -169.7092 -171.6766 -170.1165 estimate D2E/DX2         !
 ! D84   D(10,16,39,38)  -111.8895 -143.8524  -77.5919 estimate D2E/DX2         !
 ! D85   D(22,16,39,9)    135.9263  135.977   135.9101 estimate D2E/DX2         !
 ! D86   D(22,16,39,17)   158.2853  158.9548  157.643  estimate D2E/DX2         !
 ! D87   D(22,16,39,18)   -48.9911  -51.2469  -49.1201 estimate D2E/DX2         !
 ! D88   D(22,16,39,38)     8.8286  -23.4227   43.4045 estimate D2E/DX2         !
 ! D89   D(26,16,39,9)   -101.5582 -101.184  -101.8978 estimate D2E/DX2         !
 ! D90   D(26,16,39,17)   -79.1991  -78.2063  -80.165  estimate D2E/DX2         !
 ! D91   D(26,16,39,18)    73.5244   71.592    73.0719 estimate D2E/DX2         !
 ! D92   D(26,16,39,38)   131.3441   99.4163  165.5966 estimate D2E/DX2         !
 ! D93   D(13,17,30,31)    56.1846   56.3029   56.0355 estimate D2E/DX2         !
 ! D94   D(13,17,30,32)   176.0778  176.046   176.0786 estimate D2E/DX2         !
 ! D95   D(13,17,30,33)   -64.8042  -64.7692  -64.8702 estimate D2E/DX2         !
 ! D96   D(34,17,30,31)   -61.8522  -61.7082  -61.993  estimate D2E/DX2         !
 ! D97   D(34,17,30,32)    58.041    58.035    58.0501 estimate D2E/DX2         !
 ! D98   D(34,17,30,33)   177.159   177.2198  177.1014 estimate D2E/DX2         !
 ! D99   D(39,17,30,31)   175.6669  175.2184  176.1432 estimate D2E/DX2         !
 ! D100  D(39,17,30,32)   -64.4399  -65.0385  -63.8137 estimate D2E/DX2         !
 ! D101  D(39,17,30,33)    54.6781   54.1463   55.2375 estimate D2E/DX2         !
 ! D102  D(13,17,34,35)   178.0598  177.6147  178.5528 estimate D2E/DX2         !
 ! D103  D(13,17,34,36)   -61.7572  -62.3337  -61.1328 estimate D2E/DX2         !
 ! D104  D(13,17,34,37)    58.5297   58.1903   58.9169 estimate D2E/DX2         !
 ! D105  D(30,17,34,35)   -63.9962  -64.3765  -63.6156 estimate D2E/DX2         !
 ! D106  D(30,17,34,36)    56.1868   55.6751   56.6988 estimate D2E/DX2         !
 ! D107  D(30,17,34,37)   176.4737  176.1991  176.7485 estimate D2E/DX2         !
 ! D108  D(39,17,34,35)    62.9413   62.6695   63.165  estimate D2E/DX2         !
 ! D109  D(39,17,34,36)  -176.8756 -177.2789 -176.5206 estimate D2E/DX2         !
 ! D110  D(39,17,34,37)   -56.5888  -56.7549  -56.4709 estimate D2E/DX2         !
 ! D111  D(13,17,39,9)    -15.4226  -15.513   -15.3811 estimate D2E/DX2         !
 ! D112  D(13,17,39,16)   -37.7846  -38.493   -37.1186 estimate D2E/DX2         !
 ! D113  D(13,17,39,18)   169.4956  171.7138  169.6462 estimate D2E/DX2         !
 ! D114  D(13,17,39,38)   111.661   143.8853   77.1086 estimate D2E/DX2         !
 ! D115  D(30,17,39,9)   -136.1611 -135.9465 -136.4122 estimate D2E/DX2         !
 ! D116  D(30,17,39,16)  -158.5231 -158.9266 -158.1496 estimate D2E/DX2         !
 ! D117  D(30,17,39,18)    48.757    51.2802   48.6152 estimate D2E/DX2         !
 ! D118  D(30,17,39,38)    -9.0775   23.4517  -43.9224 estimate D2E/DX2         !
 ! D119  D(34,17,39,9)    101.2964  101.2208  101.3358 estimate D2E/DX2         !
 ! D120  D(34,17,39,16)    78.9343   78.2408   79.5983 estimate D2E/DX2         !
 ! D121  D(34,17,39,18)   -73.7855  -71.5524  -73.6368 estimate D2E/DX2         !
 ! D122  D(34,17,39,38)  -131.62    -99.3809 -166.1744 estimate D2E/DX2         !
 ! D123  D(19,18,39,16)   -86.4235  -85.8348  -86.6412 estimate D2E/DX2         !
 ! D124  D(19,18,39,17)    85.2744   85.6402   84.5483 estimate D2E/DX2         !
 ! D125  D(19,18,39,38)   179.4908  179.9829  178.9902 estimate D2E/DX2         !
 ! D126  D(20,18,39,16)    23.1403   15.4499   31.8821 estimate D2E/DX2         !
 ! D127  D(20,18,39,17)  -165.1618 -173.0751 -156.9284 estimate D2E/DX2         !
 ! D128  D(20,18,39,38)   -70.9454  -78.7324  -62.4866 estimate D2E/DX2         !
 ! D129  D(21,18,39,16)   164.0289  172.8664  154.8722 estimate D2E/DX2         !
 ! D130  D(21,18,39,17)   -24.2732  -15.6586  -33.9383 estimate D2E/DX2         !
 ! D131  D(21,18,39,38)    69.9432   78.6841   60.5035 estimate D2E/DX2         !
 --------------------------------------------------------------------------------
 Trust Radius=3.00D-01 FncErr=1.00D-07 GrdErr=1.00D-06 EigMax=2.50D+02 EigMin=1.00D-04
 Number of steps in this run=    240 maximum allowed number of steps=    240.
 Search for a saddle point of order  1.
 GradGradGradGradGradGradGradGradGradGradGradGradGradGradGradGradGradGrad

                          Input orientation:                          
 ---------------------------------------------------------------------
 Center     Atomic      Atomic             Coordinates (Angstroms)
 Number     Number       Type             X           Y           Z
 ---------------------------------------------------------------------
      1          6           0       -1.659793   -1.182813   -0.166493
      2          6           0       -1.674620    1.155871   -0.171077
      3          6           0       -3.026805   -1.233015   -0.036063
      4          6           0       -3.044989    1.187417   -0.042386
      5          6           0       -3.727980   -0.027559    0.040629
      6          1           0       -3.557459   -2.172808   -0.002286
      7          1           0       -3.576529    2.128500   -0.014907
      8          8           0       -5.056961   -0.100171    0.180221
      9          7           0       -1.022918   -0.007915   -0.198646
     10          6           0       -0.747017   -2.353340   -0.415580
     11          1           0       -0.701165   -2.487006   -1.497208
     12          1           0       -1.138254   -3.275860    0.015649
     13          6           0       -0.778435    2.339184   -0.420843
     14          1           0       -0.730956    2.470431   -1.502727
     15          1           0       -1.183373    3.257541    0.006794
     16          7           0        0.652927   -2.108694    0.061287
     17          7           0        0.622957    2.114982    0.061246
     18          6           0        3.162423    0.019906    0.325400
     19          1           0        2.945913    0.029404    1.402062
     20          1           0        3.762584   -0.866507    0.113488
     21          1           0        3.754416    0.907613    0.096579
     22          6           0        1.573945   -2.935845   -0.743016
     23          1           0        2.582056   -2.817212   -0.356035
     24          1           0        1.291262   -3.990476   -0.688234
     25          1           0        1.547755   -2.601596   -1.776546
     26          6           0        0.753171   -2.531239    1.476884
     27          1           0        0.549073   -3.600875    1.568382
     28          1           0        1.755589   -2.323394    1.842148
     29          1           0        0.033248   -1.977945    2.076745
     30          6           0        1.535138    2.956073   -0.738472
     31          1           0        1.237834    4.006691   -0.683157
     32          1           0        2.543372    2.850578   -0.347966
     33          1           0        1.517319    2.622961   -1.772547
     34          6           0        0.711037    2.536926    1.477879
     35          1           0        1.715589    2.345813    1.846346
     36          1           0        0.488363    3.602782    1.570371
     37          1           0       -0.000994    1.969829    2.074228
     38          1           0        2.074981    0.011191   -1.269512
     39         77           0        0.960004    0.005293   -0.040590
     40          1           0       -5.449088    0.775214    0.214584
 ---------------------------------------------------------------------
                    Distance matrix (angstroms):
                    1          2          3          4          5
     1  C    0.000000
     2  C    2.338735   0.000000
     3  C    1.374137   2.748346   0.000000
     4  C    2.748119   1.376760   2.420509   0.000000
     5  C    2.378004   2.379414   1.396658   1.396258   0.000000
     6  H    2.146670   3.828012   1.079790   3.399316   2.152443
     7  H    3.829053   2.141882   3.406234   1.081170   2.162086
     8  O    3.582328   3.625091   2.334877   2.399056   1.338264
     9  N    1.336798   1.334118   2.354329   2.354146   2.715694
    10  C    1.505104   3.637965   2.568383   4.237559   3.808349
    11  H    2.095397   3.997098   3.019277   4.594714   4.192306
    12  H    2.164723   4.467974   2.782537   4.853849   4.154367
    13  C    3.639498   1.505244   4.238376   2.570421   3.809756
    14  H    3.999306   2.095677   4.597558   3.022163   4.195718
    15  H    4.469200   2.165636   4.854397   2.784501   4.155485
    16  N    2.501562   4.016074   3.783743   4.954763   4.850143
    17  N    4.017246   2.500545   4.953717   3.784830   4.849903
    18  C    4.994222   4.993384   6.325109   6.326951   6.896448
    19  H    5.014216   5.009293   6.271783   6.270433   6.811577
    20  H    5.438806   5.808113   6.800919   7.112380   7.537751
    21  H    5.809711   5.441296   7.112302   6.806578   7.540817
    22  C    3.723246   5.255704   4.956441   6.231109   6.097756
    23  H    4.549777   5.825709   5.837069   6.913686   6.910575
    24  H    4.106569   5.962280   5.164747   6.784597   6.436516
    25  H    3.859221   5.203824   5.082213   6.201389   6.145012
    26  C    3.215795   4.712188   4.273477   5.528345   5.330286
    27  H    3.706199   5.531470   4.579073   6.199968   5.778910
    28  H    4.123154   5.284381   5.252417   6.238814   6.211751
    29  H    2.920743   4.217857   3.792467   4.897527   4.700703
    30  C    5.259764   3.723602   6.233230   4.958854   6.099956
    31  H    5.966082   4.107529   6.786781   5.167346   6.438816
    32  H    5.828188   4.549152   6.913747   5.838601   6.911189
    33  H    5.211273   3.860769   6.207495   5.086148   6.150287
    34  C    4.707574   3.212122   5.520502   4.270844   5.324203
    35  H    5.281659   4.120616   6.232317   5.250932   6.206928
    36  H    5.525684   3.701150   6.190474   4.573789   5.770358
    37  H    4.208514   2.916324   4.885394   3.789212   4.692069
    38  H    4.073184   4.071407   5.394224   5.394760   5.949144
    39  Ir   2.879372   2.877864   4.174694   4.175810   4.688803
    40  H    4.282270   3.813167   3.156464   2.452679   1.907071
                    6          7          8          9         10
     6  H    0.000000
     7  H    4.301370   0.000000
     8  O    2.564692   2.682672   0.000000
     9  N    3.339045   3.334510   4.052845   0.000000
    10  C    2.846399   5.315409   4.899732   2.371540   0.000000
    11  H    3.239124   5.636296   5.242491   2.817034   1.090819
    12  H    2.658872   5.929016   5.046618   3.276994   1.090902
    13  C    5.315660   2.835226   4.961604   2.370235   4.692632
    14  H    5.639159   3.229213   5.306094   2.815682   4.944786
    15  H    5.926640   2.646205   5.129229   3.275844   5.643651
    16  N    4.211353   5.987313   6.054018   2.699870   1.499032
    17  N    5.988744   4.200198   6.097748   2.698729   4.697882
    18  C    7.076170   7.069332   8.221543   4.218113   4.633041
    19  H    7.008265   6.996875   8.096646   4.279636   4.755946
    20  H    7.436589   7.927745   8.853028   4.871924   4.777770
    21  H    7.934878   7.432749   8.869216   4.873220   5.582026
    22  C    5.240440   7.259829   7.270648   3.951305   2.415241
    23  H    6.183368   7.905986   8.125544   4.573047   3.361763
    24  H    5.223460   7.847970   7.495907   4.632054   2.628523
    25  H    5.421722   7.192738   7.328598   3.978104   2.679522
    26  C    4.571427   6.533369   6.430324   3.511276   2.421494
    27  H    4.622768   7.235547   6.753484   4.301501   2.678115
    28  H    5.626107   7.190237   7.356328   4.152877   3.370648
    29  H    4.153736   5.853921   5.747441   3.189657   2.638450
    30  C    7.265118   5.228534   7.323960   3.952251   5.788122
    31  H    7.851410   5.210782   7.565460   4.632797   6.667925
    32  H    7.910376   6.171347   8.170127   4.572932   6.157272
    33  H    7.203236   5.411200   7.379019   3.981392   5.633130
    34  C    6.526296   4.558338   6.473639   3.506216   5.442960
    35  H    7.186127   5.614090   7.390957   4.149873   5.767389
    36  H    7.224913   4.605428   6.811387   4.295407   6.398872
    37  H    5.841387   4.144167   5.782298   3.181471   5.044352
    38  H    6.172527   6.164138   7.278649   3.277819   3.779402
    39  Ir   5.015283   5.008873   6.021940   1.989256   2.935590
    40  H    3.509434   2.321750   0.959814   4.513870   5.682818
                   11         12         13         14         15
    11  H    0.000000
    12  H    1.761270   0.000000
    13  C    4.945366   5.643467   0.000000
    14  H    4.957530   5.957450   1.090850   0.000000
    15  H    5.957715   6.533563   1.090976   1.761499   0.000000
    16  N    2.098950   2.138384   4.697326   5.032858   5.671988
    17  N    5.035909   5.671430   1.498858   2.098913   2.138044
    18  C    4.953162   5.427139   4.633173   4.950305   5.428603
    19  H    5.295212   5.433906   4.746455   5.283538   5.423896
    20  H    5.014521   5.461938   5.584158   5.825737   6.440625
    21  H    5.823727   6.437873   4.781616   5.011860   5.469185
    22  C    2.438521   2.836759   5.784757   5.926006   6.820780
    23  H    3.491540   3.766857   6.155121   6.344298   7.156307
    24  H    2.623857   2.628436   6.664813   6.818803   7.690295
    25  H    2.269098   3.298672   5.626758   5.567132   6.705882
    26  C    3.310932   2.503428   5.446853   6.008112   6.278642
    27  H    3.493085   2.315963   6.403405   6.923218   7.244157
    28  H    4.148940   3.552128   5.769059   6.352311   6.569084
    29  H    3.683971   2.702798   5.053155   5.760614   5.759790
    30  C    5.933283   6.822955   2.415380   2.440311   2.834891
    31  H    6.825724   7.692183   2.629587   2.628293   2.626690
    32  H    6.351188   7.156803   3.361731   3.492737   3.765648
    33  H    5.577567   6.711617   2.679202   2.269540   3.295828
    34  C    6.007109   6.272677   2.421317   3.311764   2.504430
    35  H    6.354227   6.564989   3.370511   4.149386   3.552349
    36  H    6.921744   7.237317   2.677012   3.494695   2.314879
    37  H    5.754022   5.748770   2.639359   3.684841   2.707491
    38  H    3.741634   4.772967   3.779123   3.738386   4.773323
    39  Ir   3.330582   3.895101   2.934930   3.327777   3.895309
    40  H    6.009582   5.918958   4.966363   5.299404   4.939782
                   16         17         18         19         20
    16  N    0.000000
    17  N    4.223783   0.000000
    18  C    3.301252   3.302728   0.000000
    19  H    3.409829   3.397580   1.098257   0.000000
    20  H    3.348989   4.330043   1.091251   1.769190   0.000000
    21  H    4.326499   3.356341   1.091256   1.768958   1.774220
    22  C    1.476264   5.202122   3.521539   3.908498   3.131437
    23  H    2.097068   5.323414   2.974965   3.365490   2.327949
    24  H    2.123760   6.187485   4.540028   4.823551   4.063172
    25  H    2.102689   5.145760   3.727948   4.356668   3.389429
    26  C    1.480711   4.858843   3.693068   3.372034   3.699561
    27  H    2.123376   5.911679   4.635154   4.353324   4.463198
    28  H    2.105570   4.914637   3.125822   2.673240   3.023048
    29  H    2.112621   4.600222   4.104918   3.601147   4.358626
    30  C    5.202863   1.476163   3.521499   3.890702   4.505494
    31  H    6.188235   2.123858   4.540450   4.804631   5.545906
    32  H    5.323125   2.096795   2.974786   3.344198   3.939054
    33  H    5.147688   2.102552   3.726076   4.341147   4.557931
    34  C    4.857149   1.480759   3.697687   3.359774   4.770415
    35  H    4.915112   2.105638   3.133121   2.660232   4.184733
    36  H    5.909770   2.123470   4.640857   4.340151   5.728664
    37  H    4.594986   2.112459   4.107043   3.591840   5.104295
    38  H    2.878746   2.881879   1.930375   2.810011   2.351818
    39  Ir   2.138602   2.138869   2.232668   2.454722   2.939087
    40  H    6.750926   6.219985   8.645281   8.511309   9.357370
                   21         22         23         24         25
    21  H    0.000000
    22  C    4.497949   0.000000
    23  H    3.931108   1.086331   0.000000
    24  H    5.538441   1.093232   1.775684   0.000000
    25  H    4.548901   1.086551   1.770345   1.783031   0.000000
    26  C    4.768482   2.401110   2.605032   2.665830   3.349794
    27  H    5.724237   2.614419   2.906979   2.407270   3.631043
    28  H    4.181116   2.662923   2.399773   3.065549   3.635318
    29  H    5.108286   3.352964   3.622045   3.643897   4.186947
    30  C    3.133479   5.892048   5.879891   6.951010   5.653799
    31  H    4.067610   6.950925   6.962729   7.997347   6.705297
    32  H    2.332244   5.880353   5.667928   6.963016   5.723487
    33  H    3.382403   5.653624   5.721508   6.705549   5.224648
    34  C    3.718172   5.968937   5.960767   6.901861   6.139690
    35  H    3.047444   5.883941   5.679619   6.837595   6.134360
    36  H    4.483648   7.020249   7.022173   7.962632   7.128708
    37  H    4.375214   5.872217   5.957691   6.695249   6.174546
    38  H    2.343134   3.035335   3.015199   4.118912   2.713246
    39  Ir   2.939682   3.085549   3.270640   4.061446   3.186670
    40  H    9.205212   8.000746   8.816484   8.304167   8.020178
                   26         27         28         29         30
    26  C    0.000000
    27  H    1.092772   0.000000
    28  H    1.086949   1.778366   0.000000
    29  H    1.088236   1.777192   1.772238   0.000000
    30  C    5.969076   7.020504   5.880559   5.875853   0.000000
    31  H    6.902550   7.963597   6.834853   6.699548   1.093274
    32  H    5.958092   7.019321   5.673376   5.957733   1.086352
    33  H    6.140725   7.129898   6.131005   6.179632   1.086551
    34  C    5.068340   6.140605   4.984626   4.604573   2.401466
    35  H    4.984816   6.066393   4.669381   4.645238   2.662003
    36  H    6.140446   7.203914   6.066242   5.622104   2.616243
    37  H    4.602738   5.620605   4.644482   3.947923   3.353156
    38  H    3.969108   4.840357   3.903169   4.395767   3.040685
    39  Ir   2.963022   3.970151   3.098457   3.045524   3.086247
    40  H    7.141012   7.547242   8.009850   6.411204   7.378609
                   31         32         33         34         35
    31  H    0.000000
    32  H    1.775776   0.000000
    33  H    1.783141   1.770318   0.000000
    34  C    2.666046   2.605675   3.350040   0.000000
    35  H    3.063519   2.398961   3.634901   1.086930   0.000000
    36  H    2.408991   2.910136   3.632341   1.092789   1.778263
    37  H    3.645089   3.621677   4.186829   1.088218   1.771991
    38  H    4.124154   3.021715   2.717605   3.973391   3.910012
    39  Ir   4.062176   3.270655   3.187862   2.962583   3.099915
    40  H    7.480862   8.276655   7.476208   6.530443   7.514122
                   36         37         38         39         40
    36  H    0.000000
    37  H    1.777605   0.000000
    38  H    4.845804   4.396195   0.000000
    39  Ir   3.969833   3.042265   1.659354   0.000000
    40  H    6.714657   5.879380   7.707002   6.460213   0.000000
 Stoichiometry    C12H23IrN3O(1+)
 Framework group  C1[X(C12H23IrN3O)]
 Deg. of freedom   114
 Full point group                 C1      NOp   1
 Largest Abelian subgroup         C1      NOp   1
 Largest concise Abelian subgroup C1      NOp   1
                         Standard orientation:                         
 ---------------------------------------------------------------------
 Center     Atomic      Atomic             Coordinates (Angstroms)
 Number     Number       Type             X           Y           Z
 ---------------------------------------------------------------------
      1          6           0       -1.686406   -1.184346   -0.169750
      2          6           0       -1.703050    1.154324   -0.174360
      3          6           0       -3.051939   -1.235571   -0.025016
      4          6           0       -3.072020    1.184846   -0.031336
      5          6           0       -3.753185   -0.030639    0.058917
      6          1           0       -3.581500   -2.175762    0.014387
      7          1           0       -3.603956    2.125530    0.001631
      8          8           0       -5.080578   -0.104243    0.212417
      9          7           0       -1.050792   -0.008970   -0.208659
     10          6           0       -0.775401   -2.354205   -0.428286
     11          1           0       -0.740772   -2.487929   -1.510324
     12          1           0       -1.161405   -3.276983    0.007086
     13          6           0       -0.810424    2.338294   -0.433585
     14          1           0       -0.774370    2.469483   -1.515917
     15          1           0       -1.211559    3.256381   -0.001805
     16          7           0        0.629271   -2.108460    0.033884
     17          7           0        0.596106    2.115193    0.033827
     18          6           0        3.139782    0.022059    0.271551
     19          1           0        2.934546    0.031486    1.350419
     20          1           0        3.738364   -0.863918    0.053438
     21          1           0        3.728676    0.910194    0.036477
     22          6           0        1.542446   -2.934983   -0.779951
     23          1           0        2.554462   -2.815555   -0.403552
     24          1           0        1.261151   -3.989823   -0.722132
     25          1           0        1.505188   -2.600843   -1.813176
     26          6           0        0.744646   -2.530808    1.448386
     27          1           0        0.542326   -3.600590    1.542099
     28          1           0        1.750674   -2.322174    1.803122
     29          1           0        0.030623   -1.978006    2.055707
     30          6           0        1.499230    2.956904   -0.775459
     31          1           0        1.201727    4.007302   -0.717117
     32          1           0        2.511576    2.852205   -0.395519
     33          1           0        1.470842    2.623690   -1.809265
     34          6           0        0.698689    2.537324    1.449429
     35          1           0        1.707187    2.347002    1.807376
     36          1           0        0.476188    3.603020    1.544163
     37          1           0       -0.006632    1.969740    2.053241
     38          1           0        2.035714    0.012385   -1.311891
     39         77           0        0.933666    0.005750   -0.071366
     40          1           0       -5.472985    0.770848    0.250814
 ---------------------------------------------------------------------
 Rotational constants (GHZ):           0.5322406           0.3352380           0.2257913
 Standard basis: def2TZVPP (5D, 7F)
 There are   992 symmetry adapted cartesian basis functions of A   symmetry.
 There are   874 symmetry adapted basis functions of A   symmetry.
   874 basis functions,  1307 primitive gaussians,   992 cartesian basis functions
    70 alpha electrons       70 beta electrons
       nuclear repulsion energy      1547.8041105591 Hartrees.
 NAtoms=   40 NActive=   40 NUniq=   40 SFac= 1.00D+00 NAtFMM=   60 NAOKFM=F Big=F
 Integral buffers will be    131072 words long.
 Raffenetti 2 integral format.
 Two-electron integral symmetry is turned on.
 Nuclear repulsion after empirical dispersion term =     1547.7597262373 Hartrees.
 ------------------------------------------------------------------------------
 Polarizable Continuum Model (PCM)
 =================================
 Model                : PCM.
 Atomic radii         : UFF (Universal Force Field).
 Polarization charges : Total charges.
 Charge compensation  : None.
 Solution method      : On-the-fly selection.
 Cavity type          : Scaled VdW (van der Waals Surface) (Alpha=1.100).
 Cavity algorithm     : GePol (No added spheres)
                        Default sphere list used, NSphG=   40.
                        Lebedev-Laikov grids with approx.  5.0 points / Ang**2.
                        Smoothing algorithm: York/Karplus (Gamma=1.0000).
                        Polarization charges: spherical gaussians, with
                                              point-specific exponents (IZeta= 3).
                        Self-potential: point-specific (ISelfS= 7).
                        Self-field    : sphere-specific E.n sum rule (ISelfD= 2).
 1st derivatives      : Analytical E(r).r(x)/FMM algorithm (CHGder, D1EAlg=3).
                        Cavity 1st derivative terms included.
 Solvent              : Dichloromethane, Eps=   8.930000 Eps(inf)=   2.028346
 ------------------------------------------------------------------------------
 One-electron integrals computed using PRISM.
   1 Symmetry operations used in ECPInt.
 ECPInt:  NShTT=   54615 NPrTT=  140092 LenC2=   49192 LenP2D=   96331.
 LDataN:  DoStor=T MaxTD1= 9 Len=  602
 NBasis=   874 RedAO= T EigKep=  1.68D-05  NBF=   874
 NBsUse=   874 1.00D-06 EigRej= -1.00D+00 NBFU=   874
 Defaulting to unpruned grid for atomic number  77.
 ExpMin= 5.00D-02 ExpMax= 2.70D+04 ExpMxC= 9.22D+02 IAcc=3 IRadAn=         5 AccDes= 0.00D+00
 Harris functional with IExCor= 4639 and IRadAn=       5 diagonalized for initial guess.
 HarFok:  IExCor= 4639 AccDes= 0.00D+00 IRadAn=         5 IDoV= 1 UseB2=F ITyADJ=14
 ICtDFT=  3500011 ScaDFX=  1.000000  1.000000  1.000000  1.000000
 Defaulting to unpruned grid for atomic number  77.
 FoFCou: FMM=F IPFlag=           0 FMFlag=      100000 FMFlg1=           0
         NFxFlg=           0 DoJE=T BraDBF=F KetDBF=T FulRan=T
         wScrn=  0.000000 ICntrl=       500 IOpCl=  0 I1Cent=   200000004 NGrid=           0
         NMat0=    1 NMatS0=      1 NMatT0=    0 NMatD0=    1 NMtDS0=    0 NMtDT0=    0
 Petite list used in FoFCou.
 Requested convergence on RMS density matrix=1.00D-08 within 128 cycles.
 Requested convergence on MAX density matrix=1.00D-06.
 Requested convergence on             energy=1.00D-06.
 No special actions if energy rises.
 Defaulting to unpruned grid for atomic number  77.
 Defaulting to unpruned grid for atomic number  77.
 Defaulting to unpruned grid for atomic number  77.
 Defaulting to unpruned grid for atomic number  77.
 Defaulting to unpruned grid for atomic number  77.
 Defaulting to unpruned grid for atomic number  77.
 Defaulting to unpruned grid for atomic number  77.
 Defaulting to unpruned grid for atomic number  77.
 Defaulting to unpruned grid for atomic number  77.
 Defaulting to unpruned grid for atomic number  77.
 Defaulting to unpruned grid for atomic number  77.
 Defaulting to unpruned grid for atomic number  77.
 Defaulting to unpruned grid for atomic number  77.
 Defaulting to unpruned grid for atomic number  77.
 Defaulting to unpruned grid for atomic number  77.
 Defaulting to unpruned grid for atomic number  77.
 Defaulting to unpruned grid for atomic number  77.
 Defaulting to unpruned grid for atomic number  77.
 Defaulting to unpruned grid for atomic number  77.
 Defaulting to unpruned grid for atomic number  77.
 Defaulting to unpruned grid for atomic number  77.
 Defaulting to unpruned grid for atomic number  77.
 Defaulting to unpruned grid for atomic number  77.
 Defaulting to unpruned grid for atomic number  77.
 Defaulting to unpruned grid for atomic number  77.
 Defaulting to unpruned grid for atomic number  77.
 Defaulting to unpruned grid for atomic number  77.
 Defaulting to unpruned grid for atomic number  77.
 Defaulting to unpruned grid for atomic number  77.
 Defaulting to unpruned grid for atomic number  77.
 Defaulting to unpruned grid for atomic number  77.
 Defaulting to unpruned grid for atomic number  77.
 Defaulting to unpruned grid for atomic number  77.
 Defaulting to unpruned grid for atomic number  77.
 Defaulting to unpruned grid for atomic number  77.
 Defaulting to unpruned grid for atomic number  77.
 Defaulting to unpruned grid for atomic number  77.
 Defaulting to unpruned grid for atomic number  77.
 Defaulting to unpruned grid for atomic number  77.
 Defaulting to unpruned grid for atomic number  77.
 Defaulting to unpruned grid for atomic number  77.
 Defaulting to unpruned grid for atomic number  77.
 Defaulting to unpruned grid for atomic number  77.
 Defaulting to unpruned grid for atomic number  77.
 Defaulting to unpruned grid for atomic number  77.
 Defaulting to unpruned grid for atomic number  77.
 Defaulting to unpruned grid for atomic number  77.
 Defaulting to unpruned grid for atomic number  77.
 Inv3:  Mode=1 IEnd=    19522803.
 Iteration    1 A*A^-1 deviation from unit magnitude is 3.11D-15 for    812.
 Iteration    1 A*A^-1 deviation from orthogonality  is 2.78D-15 for   2377   2174.
 Iteration    1 A^-1*A deviation from unit magnitude is 3.55D-15 for   1532.
 Iteration    1 A^-1*A deviation from orthogonality  is 2.00D-15 for   2386    854.
 Error on total polarization charges =  0.01843
 SCF Done:  E(RwB97XD) =  -814.944920538     A.U. after   17 cycles
            NFock= 17  Conv=0.41D-08     -V/T= 2.0979

 **********************************************************************

            Population analysis using the SCF Density.

 **********************************************************************

 Orbital symmetries:
       Occupied  (A) (A) (A) (A) (A) (A) (A) (A) (A) (A) (A) (A)
                 (A) (A) (A) (A) (A) (A) (A) (A) (A) (A) (A) (A)
                 (A) (A) (A) (A) (A) (A) (A) (A) (A) (A) (A) (A)
                 (A) (A) (A) (A) (A) (A) (A) (A) (A) (A) (A) (A)
                 (A) (A) (A) (A) (A) (A) (A) (A) (A) (A) (A) (A)
                 (A) (A) (A) (A) (A) (A) (A) (A) (A) (A)
       Virtual   (A) (A) (A) (A) (A) (A) (A) (A) (A) (A) (A) (A)
                 (A) (A) (A) (A) (A) (A) (A) (A) (A) (A) (A) (A)
                 (A) (A) (A) (A) (A) (A) (A) (A) (A) (A) (A) (A)
                 (A) (A) (A) (A) (A) (A) (A) (A) (A) (A) (A) (A)
                 (A) (A) (A) (A) (A) (A) (A) (A) (A) (A) (A) (A)
                 (A) (A) (A) (A) (A) (A) (A) (A) (A) (A) (A) (A)
                 (A) (A) (A) (A) (A) (A) (A) (A) (A) (A) (A) (A)
                 (A) (A) (A) (A) (A) (A) (A) (A) (A) (A) (A) (A)
                 (A) (A) (A) (A) (A) (A) (A) (A) (A) (A) (A) (A)
                 (A) (A) (A) (A) (A) (A) (A) (A) (A) (A) (A) (A)
                 (A) (A) (A) (A) (A) (A) (A) (A) (A) (A) (A) (A)
                 (A) (A) (A) (A) (A) (A) (A) (A) (A) (A) (A) (A)
                 (A) (A) (A) (A) (A) (A) (A) (A) (A) (A) (A) (A)
                 (A) (A) (A) (A) (A) (A) (A) (A) (A) (A) (A) (A)
                 (A) (A) (A) (A) (A) (A) (A) (A) (A) (A) (A) (A)
                 (A) (A) (A) (A) (A) (A) (A) (A) (A) (A) (A) (A)
                 (A) (A) (A) (A) (A) (A) (A) (A) (A) (A) (A) (A)
                 (A) (A) (A) (A) (A) (A) (A) (A) (A) (A) (A) (A)
                 (A) (A) (A) (A) (A) (A) (A) (A) (A) (A) (A) (A)
                 (A) (A) (A) (A) (A) (A) (A) (A) (A) (A) (A) (A)
                 (A) (A) (A) (A) (A) (A) (A) (A) (A) (A) (A) (A)
                 (A) (A) (A) (A) (A) (A) (A) (A) (A) (A) (A) (A)
                 (A) (A) (A) (A) (A) (A) (A) (A) (A) (A) (A) (A)
                 (A) (A) (A) (A) (A) (A) (A) (A) (A) (A) (A) (A)
                 (A) (A) (A) (A) (A) (A) (A) (A) (A) (A) (A) (A)
                 (A) (A) (A) (A) (A) (A) (A) (A) (A) (A) (A) (A)
                 (A) (A) (A) (A) (A) (A) (A) (A) (A) (A) (A) (A)
                 (A) (A) (A) (A) (A) (A) (A) (A) (A) (A) (A) (A)
                 (A) (A) (A) (A) (A) (A) (A) (A) (A) (A) (A) (A)
                 (A) (A) (A) (A) (A) (A) (A) (A) (A) (A) (A) (A)
                 (A) (A) (A) (A) (A) (A) (A) (A) (A) (A) (A) (A)
                 (A) (A) (A) (A) (A) (A) (A) (A) (A) (A) (A) (A)
                 (A) (A) (A) (A) (A) (A) (A) (A) (A) (A) (A) (A)
                 (A) (A) (A) (A) (A) (A) (A) (A) (A) (A) (A) (A)
                 (A) (A) (A) (A) (A) (A) (A) (A) (A) (A) (A) (A)
                 (A) (A) (A) (A) (A) (A) (A) (A) (A) (A) (A) (A)
                 (A) (A) (A) (A) (A) (A) (A) (A) (A) (A) (A) (A)
                 (A) (A) (A) (A) (A) (A) (A) (A) (A) (A) (A) (A)
                 (A) (A) (A) (A) (A) (A) (A) (A) (A) (A) (A) (A)
                 (A) (A) (A) (A) (A) (A) (A) (A) (A) (A) (A) (A)
                 (A) (A) (A) (A) (A) (A) (A) (A) (A) (A) (A) (A)
                 (A) (A) (A) (A) (A) (A) (A) (A) (A) (A) (A) (A)
                 (A) (A) (A) (A) (A) (A) (A) (A) (A) (A) (A) (A)
                 (A) (A) (A) (A) (A) (A) (A) (A) (A) (A) (A) (A)
                 (A) (A) (A) (A) (A) (A) (A) (A) (A) (A) (A) (A)
                 (A) (A) (A) (A) (A) (A) (A) (A) (A) (A) (A) (A)
                 (A) (A) (A) (A) (A) (A) (A) (A) (A) (A) (A) (A)
                 (A) (A) (A) (A) (A) (A) (A) (A) (A) (A) (A) (A)
                 (A) (A) (A) (A) (A) (A) (A) (A) (A) (A) (A) (A)
                 (A) (A) (A) (A) (A) (A) (A) (A) (A) (A) (A) (A)
                 (A) (A) (A) (A) (A) (A) (A) (A) (A) (A) (A) (A)
                 (A) (A) (A) (A) (A) (A) (A) (A) (A) (A) (A) (A)
                 (A) (A) (A) (A) (A) (A) (A) (A) (A) (A) (A) (A)
                 (A) (A) (A) (A) (A) (A) (A) (A) (A) (A) (A) (A)
                 (A) (A) (A) (A) (A) (A) (A) (A) (A) (A) (A) (A)
                 (A) (A) (A) (A) (A) (A) (A) (A) (A) (A) (A) (A)
                 (A) (A) (A) (A) (A) (A) (A) (A) (A) (A) (A) (A)
                 (A) (A) (A) (A) (A) (A) (A) (A) (A) (A) (A) (A)
                 (A) (A) (A) (A) (A) (A) (A) (A) (A) (A) (A) (A)
                 (A) (A) (A) (A) (A) (A) (A) (A) (A) (A) (A) (A)
                 (A) (A) (A) (A) (A) (A) (A) (A) (A) (A) (A) (A)
                 (A) (A) (A) (A) (A) (A) (A) (A) (A) (A) (A) (A)
                 (A) (A) (A) (A) (A) (A) (A) (A) (A) (A) (A) (A)
                 (A) (A) (A) (A) (A) (A) (A) (A) (A) (A) (A) (A)
                 (A) (A) (A) (A) (A) (A) (A) (A) (A) (A) (A) (A)
                 (A) (A) (A) (A) (A) (A) (A) (A) (A) (A) (A) (A)
                 (A) (A) (A) (A) (A) (A) (A) (A) (A) (A) (A) (A)
 The electronic state is 1-A.
 Alpha  occ. eigenvalues --  -19.32178 -14.52666 -14.52624 -14.50591 -10.40687
 Alpha  occ. eigenvalues --  -10.37987 -10.37842 -10.35901 -10.35808 -10.33338
 Alpha  occ. eigenvalues --  -10.33291 -10.32999 -10.32866 -10.32826 -10.32649
 Alpha  occ. eigenvalues --  -10.27060  -3.78285  -2.11921  -2.11696  -2.09871
 Alpha  occ. eigenvalues --   -1.21470  -1.12472  -1.08487  -1.07833  -0.94705
 Alpha  occ. eigenvalues --   -0.94072  -0.86702  -0.84506  -0.84130  -0.84086
 Alpha  occ. eigenvalues --   -0.77964  -0.76707  -0.76702  -0.73743  -0.73485
 Alpha  occ. eigenvalues --   -0.67787  -0.65639  -0.62782  -0.62325  -0.60882
 Alpha  occ. eigenvalues --   -0.60734  -0.59730  -0.59501  -0.58742  -0.56557
 Alpha  occ. eigenvalues --   -0.54922  -0.54189  -0.53265  -0.53031  -0.51970
 Alpha  occ. eigenvalues --   -0.51504  -0.50513  -0.50222  -0.49621  -0.49332
 Alpha  occ. eigenvalues --   -0.48381  -0.48293  -0.47953  -0.47383  -0.47095
 Alpha  occ. eigenvalues --   -0.46428  -0.45357  -0.42665  -0.40060  -0.38324
 Alpha  occ. eigenvalues --   -0.37603  -0.32422  -0.31561  -0.30925  -0.28576
 Alpha virt. eigenvalues --   -0.00796   0.00985   0.03695   0.07113   0.08439
 Alpha virt. eigenvalues --    0.10142   0.10320   0.10732   0.12394   0.13134
 Alpha virt. eigenvalues --    0.13944   0.13997   0.14182   0.14479   0.15162
 Alpha virt. eigenvalues --    0.15287   0.15624   0.15845   0.16645   0.16722
 Alpha virt. eigenvalues --    0.17335   0.17757   0.19035   0.19851   0.20098
 Alpha virt. eigenvalues --    0.20161   0.20351   0.20886   0.21236   0.21373
 Alpha virt. eigenvalues --    0.22351   0.23103   0.23942   0.24275   0.24521
 Alpha virt. eigenvalues --    0.25183   0.25484   0.26368   0.27459   0.27667
 Alpha virt. eigenvalues --    0.28002   0.28612   0.29201   0.29487   0.30400
 Alpha virt. eigenvalues --    0.30606   0.31026   0.31365   0.32759   0.32818
 Alpha virt. eigenvalues --    0.33792   0.34005   0.34276   0.34721   0.35236
 Alpha virt. eigenvalues --    0.36609   0.36824   0.36939   0.38099   0.38356
 Alpha virt. eigenvalues --    0.39025   0.39313   0.39585   0.40470   0.40977
 Alpha virt. eigenvalues --    0.41582   0.42024   0.42692   0.42814   0.43321
 Alpha virt. eigenvalues --    0.44459   0.44530   0.45026   0.45631   0.46388
 Alpha virt. eigenvalues --    0.46680   0.46810   0.46969   0.47158   0.48393
 Alpha virt. eigenvalues --    0.48546   0.48850   0.48949   0.49055   0.49506
 Alpha virt. eigenvalues --    0.50053   0.50236   0.50423   0.50951   0.51431
 Alpha virt. eigenvalues --    0.51830   0.52303   0.52726   0.53087   0.53605
 Alpha virt. eigenvalues --    0.54089   0.54482   0.56121   0.56269   0.56908
 Alpha virt. eigenvalues --    0.57611   0.58428   0.58572   0.59310   0.59720
 Alpha virt. eigenvalues --    0.60107   0.60358   0.60657   0.61358   0.61998
 Alpha virt. eigenvalues --    0.62783   0.63116   0.63923   0.64854   0.65233
 Alpha virt. eigenvalues --    0.65377   0.66235   0.67263   0.67791   0.68017
 Alpha virt. eigenvalues --    0.69127   0.70268   0.70704   0.71466   0.72128
 Alpha virt. eigenvalues --    0.72645   0.73166   0.73486   0.74108   0.75131
 Alpha virt. eigenvalues --    0.75666   0.76269   0.77243   0.78107   0.79334
 Alpha virt. eigenvalues --    0.80561   0.80661   0.82399   0.82750   0.83209
 Alpha virt. eigenvalues --    0.84310   0.84549   0.85111   0.86908   0.87137
 Alpha virt. eigenvalues --    0.87877   0.88232   0.88607   0.89167   0.90033
 Alpha virt. eigenvalues --    0.90806   0.91426   0.92112   0.92789   0.93098
 Alpha virt. eigenvalues --    0.94740   0.95757   0.96275   0.96958   0.97342
 Alpha virt. eigenvalues --    0.98299   0.98816   0.99540   0.99684   1.00397
 Alpha virt. eigenvalues --    1.00606   1.01074   1.02392   1.02890   1.03446
 Alpha virt. eigenvalues --    1.03666   1.04130   1.04250   1.05051   1.05600
 Alpha virt. eigenvalues --    1.06906   1.07015   1.07161   1.07345   1.08035
 Alpha virt. eigenvalues --    1.09407   1.09757   1.10200   1.10507   1.11052
 Alpha virt. eigenvalues --    1.12808   1.12947   1.13836   1.15246   1.15326
 Alpha virt. eigenvalues --    1.15905   1.16683   1.17364   1.18018   1.18388
 Alpha virt. eigenvalues --    1.19212   1.19758   1.19850   1.21456   1.21891
 Alpha virt. eigenvalues --    1.22481   1.22880   1.23766   1.23879   1.24561
 Alpha virt. eigenvalues --    1.25439   1.25573   1.26664   1.27192   1.27487
 Alpha virt. eigenvalues --    1.28061   1.29499   1.30806   1.31140   1.32316
 Alpha virt. eigenvalues --    1.32720   1.32850   1.33893   1.34221   1.34807
 Alpha virt. eigenvalues --    1.36230   1.36555   1.36831   1.37426   1.37694
 Alpha virt. eigenvalues --    1.38628   1.39051   1.39610   1.40204   1.40505
 Alpha virt. eigenvalues --    1.41847   1.42359   1.43526   1.43668   1.43739
[...]
 2,0.00001587,-0.00000299,-0.00000039,0.00001599,0.00000163,-0.00069567
 ,0.00155107,0.00122473,0.00057169,0.00049859,-0.00068191,0.00005235,-0
 .00015164,-0.00005254,-0.00004311,0.00036308,0.00004560,0.05090207,-0.
 29578147,-0.01285155,-0.00011908,-0.00358929,0.00034792,-0.05652035,0.
 32082295,-0.00003291,-0.00004893,0.00000084,-0.00020357,0.00018950,0.0
 0007892,0.00001497,0.00001925,-0.00000054,-0.00009212,-0.00006898,0.00
 003355,0.00001836,0.00005043,0.00000406,-0.00000388,-0.00000302,-0.000
 00363,-0.00000767,-0.00000110,0.00000516,-0.00005506,-0.00000320,0.000
 00278,0.00029782,0.00007977,-0.00000697,0.00019083,0.00002163,0.000078
 93,-0.00001307,0.00000445,-0.00001164,-0.00003863,-0.00001697,-0.00000
 582,0.00302569,-0.00184535,0.00061313,0.00014540,0.00016478,0.00019801
 ,-0.00067361,0.00056584,0.00000522,0.00003591,-0.00074990,0.00087874,0
 .00561388,-0.03695707,-0.01432140,-0.00015569,0.00020120,0.00001222,0.
 00011358,-0.00009196,0.00011146,0.00003005,-0.00001589,0.00006766,0.00
 010710,-0.00000764,-0.00001852,-0.00012720,0.00008769,0.00013607,0.000
 01321,-0.00000081,-0.00000119,0.00001521,-0.00004958,-0.00002771,0.000
 00385,0.00001432,-0.00002294,-0.00007636,-0.00025320,-0.00018488,-0.00
 000587,-0.00008628,0.00011653,0.00000644,0.00000074,-0.00000382,-0.000
 01047,-0.00000520,-0.00000173,-0.00086293,-0.00330294,0.00185548,-0.00
 001853,0.00098141,0.00011364,0.00007251,0.00024693,-0.00010434,-0.0001
 6254,0.00042152,0.00023083,0.00129622,-0.00705582,-0.05083472,-0.00051
 550,0.00934424,0.00128391,-0.00206610,0.02036373,0.06021865,0.00017306
 ,0.00012937,-0.00007657,0.00008203,-0.00037802,-0.00007945,-0.00016136
 ,0.00011881,0.00002759,0.00018143,0.00024070,0.00004373,-0.00007942,-0
 .00029277,-0.00001428,-0.00000273,0.00000611,0.00001155,-0.00001112,0.
 00000334,-0.00000905,0.00006321,0.00004249,-0.00000063,-0.00027884,0.0
 0004175,-0.00015036,0.00002292,0.00001055,0.00001043,-0.00000646,0.000
 01269,-0.00000261,-0.00000286,0.00000377,0.00000511,0.00051242,0.00072
 749,-0.00045297,0.00007965,0.00004260,0.00017813,0.00007492,0.00013306
 ,-0.00007809,-0.00001137,0.00009963,-0.00005882,0.00251917,0.00294080,
 -0.00406418,-0.00022005,-0.00003294,0.00015040,-0.00001667,-0.00006922
 ,-0.00000566,0.00001410,0.00008323,-0.00001065,0.00015147,0.00001918,-
 0.00004086,-0.00000511,-0.00000451,-0.00002677,-0.00000304,-0.00000061
 ,0.00000132,-0.00000023,-0.00000313,0.00001250,-0.00000008,0.00000267,
 0.00001247,-0.00001031,-0.00001350,0.00002677,0.00000563,0.00000084,-0
 .00001048,-0.00001070,0.00000604,0.00000693,0.00002155,0.00001768,0.00
 000677,0.00028591,0.00022345,-0.00065374,-0.00006344,-0.00013733,0.000
 01523,0.00046402,0.00001622,-0.00010548,0.00052904,-0.00018309,-0.0000
 2718,-0.16539542,-0.09418491,0.10046335,-0.01601109,-0.01598434,0.0168
 6956,0.00520807,0.00454596,-0.00510309,0.17142222,-0.00000932,-0.00002
 638,-0.00000831,-0.00007657,0.00018660,-0.00026814,0.00000095,-0.00001
 664,0.00000373,0.00005788,-0.00000721,0.00000723,-0.00003536,-0.000004
 21,-0.00000397,0.00000299,-0.00000096,0.00000238,0.00002571,-0.0000007
 4,0.00002271,0.00003620,-0.00000929,-0.00001226,-0.00017620,-0.0008998
 3,-0.00013476,-0.00002559,-0.00000434,-0.00000822,0.00000238,0.0000010
 4,0.00000203,0.00000423,0.00000234,-0.00000232,0.00006525,0.00040624,0
 .00029115,0.00013183,-0.00013201,-0.00003445,-0.00010700,-0.00039841,0
 .00001664,-0.00004555,0.00013693,0.00004196,0.00930343,0.00587284,-0.0
 0802731,-0.00004857,0.00000433,-0.00009215,0.00000440,0.00000758,0.000
 05026,0.00000098,-0.00000727,0.00003028,-0.00004832,0.00000073,-0.0000
 1610,0.00002225,0.00001785,-0.00001274,-0.00000040,-0.00000144,-0.0000
 0139,-0.00000810,0.00001441,0.00000554,0.00000017,0.00000541,0.0000050
 5,0.00001398,-0.00000218,0.00000855,0.00000109,0.00001409,0.00000492,0
 .00000085,-0.00000239,0.00000089,-0.00001582,-0.00001240,0.00000159,-0
 .00039882,-0.00008737,-0.00118561,0.00006430,0.00046745,-0.00041340,-0
 .00008322,-0.00018446,-0.00005118,0.00008585,0.00053505,-0.00043635,-0
 .09627331,-0.12604421,0.08300687,0.00462411,0.00322008,-0.00430786,-0.
 02002992,-0.01357571,0.01664903,0.10187590,0.13139626,-0.00000125,-0.0
 0011385,-0.00002695,-0.00059413,-0.00029395,0.00014279,0.00001705,0.00
 004366,-0.00001564,-0.00004004,0.00000077,0.00002598,-0.00016955,-0.00
 005050,0.00000259,0.00000285,0.00000297,0.00000255,0.00000981,-0.00000
 089,0.00000413,0.00012701,0.00000307,-0.00001666,0.00024240,-0.0003525
 6,0.00001834,0.00004978,-0.00003276,0.00003426,-0.00001671,0.00000074,
 -0.00000172,-0.00001860,0.00000273,-0.00000540,0.00155115,0.00048444,0
 .00069238,0.00012326,0.00001623,0.00017108,-0.00025437,0.00015193,-0.0
 0007734,-0.00003773,-0.00028877,-0.00004311,0.02256818,0.01640521,-0.0
 2337362,0.00005750,-0.00003758,-0.00013352,-0.00003336,-0.00003320,-0.
 00004408,-0.00000127,0.00001507,0.00000145,-0.00000834,0.00002391,-0.0
 0000443,-0.00002303,-0.00000983,0.00001420,0.00000101,-0.00000318,0.00
 000248,0.00001140,-0.00000562,-0.00001779,0.00000329,-0.00000301,-0.00
 001838,-0.00000203,0.00004009,-0.00003228,-0.00000515,-0.00000207,-0.0
 0000154,-0.00000286,-0.00000026,0.00000378,0.00000639,-0.00000119,0.00
 001078,-0.00234145,-0.00330467,-0.00538561,-0.00013362,0.00006343,0.00
 006831,0.00003099,-0.00014239,0.00023294,0.00118952,0.00111223,-0.0011
 0285,0.09274471,0.07658944,-0.13166044,-0.00612009,-0.00594493,0.00710
 679,-0.00189614,-0.00096370,0.00239418,-0.10688970,-0.08385268,0.15120
 412,-0.00068584,0.00052589,0.00023316,-0.00073246,-0.00052080,0.000247
 11,0.00062666,-0.00138900,0.00029701,0.00074884,0.00146546,0.00028132,
 -0.00200021,-0.00020666,0.00013830,-0.00004381,0.00006127,0.00005463,-
 0.00002635,-0.00006493,0.00005135,0.00280112,-0.00010451,-0.00040260,-
 0.01778880,-0.00017171,-0.00838222,-0.00026336,-0.00069088,-0.00025229
 ,-0.00015985,-0.00003802,0.00005341,0.00004869,0.00011427,-0.00003994,
 -0.00026707,0.00070197,-0.00024746,-0.00016925,0.00003138,0.00005687,0
 .00004851,-0.00011562,-0.00003952,0.00000789,-0.00043281,-0.00008790,-
 0.00002348,0.00039402,-0.00005811,-0.03464745,-0.00027962,0.03630655,0
 .01486559,0.00018642,0.00506232,-0.00941308,-0.00148290,-0.00986375,-0
 .00923053,0.00134463,-0.00965457,0.00086800,-0.00034800,-0.00024534,-0
 .00030176,0.00030932,-0.00009823,-0.00027739,0.00023683,0.00003950,0.0
 0005348,-0.00003648,0.00006969,0.00046447,-0.00017976,0.00040327,-0.00
 013423,0.00026366,-0.00009960,-0.00000719,0.00026821,-0.00024834,-0.00
 015287,-0.00005587,0.00020755,0.00083180,0.00036729,-0.00026839,-0.000
 26728,-0.00024355,0.00004308,-0.00028230,-0.00031859,-0.00008256,0.000
 05960,0.00002883,0.00007524,0.00046410,0.00019609,0.00043586,-0.000004
 97,-0.00026620,-0.00024696,-0.00012977,-0.00026362,-0.00009950,-0.0001
 4300,0.00001984,0.00019452,0.13312371,-0.00040089,-0.00103050,0.000238
 93,0.00042701,-0.00102350,-0.00022776,0.00091807,-0.00024845,-0.000393
 66,-0.00091568,-0.00023890,0.00040496,-0.00003652,0.00112957,-0.000005
 46,0.00003883,-0.00000598,-0.00008816,-0.00004282,-0.00000583,0.000092
 85,0.00002950,-0.00011731,0.00000531,-0.00013392,0.00449746,-0.0000762
 7,-0.00036596,0.00032349,0.00010796,0.00002053,0.00007846,-0.00002071,
 0.00000777,0.00001374,-0.00005045,0.00035911,0.00034307,-0.00012302,-0
 .00002429,0.00008279,0.00002062,-0.00000328,0.00001169,0.00005252,-0.0
 0164743,0.00307410,0.00164335,0.00155650,0.00310255,-0.00164752,-0.000
 30187,-0.00350016,0.00025687,0.00015433,-0.00286596,0.00004164,0.00531
 231,-0.00005695,0.00607519,-0.00546430,-0.00013812,-0.00624318,-0.0003
 9712,-0.00044336,-0.00030837,0.00015596,-0.00025480,0.00007296,0.00012
 512,0.00021240,0.00009170,0.00003429,-0.00013521,0.00003765,-0.0001967
 6,0.00012923,0.00003193,0.00013791,-0.00009037,-0.00002784,0.00003670,
 -0.00001353,0.00003956,0.00009378,0.00003571,-0.00026369,0.00041714,-0
 .00039454,0.00030752,-0.00013072,0.00020459,-0.00009014,-0.00016104,-0
 .00026077,-0.00006631,-0.00002850,-0.00011107,-0.00004291,0.00020623,0
 .00014671,-0.00000187,-0.00003791,-0.00001917,-0.00004497,-0.00013858,
 -0.00009564,0.00002618,-0.00009284,0.00001899,0.00026026,0.00009875,0.
 01498683,-0.00171901,-0.00187397,0.00078848,-0.00177463,0.00189357,0.0
 0082332,0.00066597,-0.00065975,-0.00029293,0.00070033,0.00068160,-0.00
 030984,-0.00118582,-0.00006948,0.00015942,-0.00002544,0.00002342,-0.00
 003851,-0.00001578,-0.00002610,-0.00004165,0.00127888,-0.00005469,-0.0
 0016576,-0.00248895,-0.00002693,0.00479160,-0.00027213,-0.00015882,0.0
 0012785,-0.00005420,0.00012929,-0.00006836,0.00000756,0.00007816,-0.00
 006760,-0.00027567,0.00015561,0.00013667,-0.00005642,-0.00013408,-0.00
 007123,0.00000976,-0.00007831,-0.00006975,0.00041492,-0.00004841,-0.00
 086760,0.00040895,0.00006087,-0.00088167,-0.01838699,-0.00014393,-0.00
 534844,0.00444922,0.00004430,0.00577592,-0.00224758,-0.00045859,-0.002
 08602,-0.00221916,0.00041294,-0.00206154,0.00081052,-0.00036308,-0.000
 04592,-0.00029496,0.00039797,-0.00005047,-0.00032584,0.00017588,0.0000
 1441,-0.00001271,-0.00012912,0.00016294,0.00080995,0.00000645,0.000007
 42,-0.00025243,0.00041405,0.00002505,0.00005787,0.00022277,-0.00024941
 ,-0.00037535,0.00001237,0.00033551,0.00078409,0.00037922,-0.00005274,-
 0.00031921,-0.00018047,0.00001695,-0.00027370,-0.00039325,-0.00003534,
 -0.00000391,0.00013408,0.00015144,0.00082129,0.00002217,0.00006763,0.0
 0005717,-0.00021981,-0.00024966,-0.00024763,-0.00041594,0.00002605,-0.
 00036233,-0.00007319,0.00032149,-0.09466456,-0.00048651,0.05369668,-0.
 01819939,-0.02022098,-0.00020607,-0.01860887,0.02007087,-0.00013512,0.
 00112725,0.00286120,-0.00041612,0.00084582,-0.00297398,-0.00036915,0.0
 0184353,0.00044585,-0.00033219,0.00049640,0.00001243,0.00008942,0.0005
 0649,-0.00002000,0.00008613,-0.00416248,0.00014910,0.00052387,-0.12343
 190,-0.00059627,-0.00633660,-0.00544408,-0.01315961,0.00201780,0.00040
 157,0.00011415,-0.00022433,-0.00336841,-0.00019975,-0.00096308,-0.0060
 5452,0.01320154,0.00194209,0.00042862,-0.00009592,-0.00023860,-0.00335
 401,0.00014874,-0.00096047,-0.04612652,0.00933030,-0.00069189,-0.04598
 687,-0.00923791,-0.00070535,-0.03919936,0.00008189,-0.07806488,-0.0219
 9807,-0.00019687,-0.01611194,-0.00330669,0.00252132,0.00097885,-0.0031
 8722,-0.00264341,0.00104976,0.00244066,0.00939024,-0.00103629,0.000157
 01,0.00053248,-0.00006400,-0.00064146,0.00203753,0.00125889,0.00001579
 ,0.00021996,-0.00020528,-0.00010139,0.00070422,0.00035893,0.00120748,-
 0.00019261,-0.00064221,0.00013659,0.00071579,0.00000538,0.00066489,-0.
 00094462,-0.00034165,0.00259457,-0.00912682,-0.00109285,-0.00060598,-0
 .00204361,0.00127166,0.00013345,-0.00054692,-0.00006009,0.00000225,-0.
 00020829,-0.00018616,-0.00000918,-0.00048872,0.00035230,0.00013921,-0.
 00070940,0.00000271,0.00119793,0.00018481,-0.00068016,0.00064239,0.001
 03532,-0.00032151,-0.07767011,0.00037620,0.11668252,0.40628598,-0.0163
 0349,0.00156103,0.00050628,0.01596995,0.00199264,-0.00053490,-0.001982
 03,-0.00409026,0.00055887,0.00208676,-0.00404487,-0.00058323,0.0000268
 8,-0.00113846,-0.00001321,-0.00084168,0.00026366,0.00041682,0.00089745
 ,0.00025116,-0.00041444,-0.00006208,-0.00000930,0.00001932,-0.00053223
 ,-0.05310831,-0.00002695,-0.01640583,-0.01038973,-0.00398236,0.0006016
 6,-0.00021170,0.00046546,0.00109754,0.00049584,-0.00023257,0.01660790,
 -0.00997054,0.00399128,-0.00059661,-0.00021592,-0.00046279,-0.00116303
 ,0.00048318,0.00022414,0.00158952,-0.05470322,-0.00128736,-0.00152566,
 -0.05503521,0.00125141,0.00022922,-0.05380185,-0.00058933,-0.00016995,
 0.00183725,-0.00012846,0.01250293,0.00470406,0.00991291,-0.01268167,0.
 00449868,-0.00990728,0.00417596,-0.01262822,-0.00464360,-0.00119387,0.
 00033372,0.00063208,-0.00068991,0.00061662,0.00053043,-0.00074602,-0.0
 0010552,0.00121879,0.00079602,-0.01170856,0.01060739,-0.00040694,0.000
 78039,-0.00115722,-0.00060503,-0.00050860,-0.00078756,-0.00002856,-0.0
 0099921,-0.00018164,-0.00396980,-0.01280040,0.00466452,0.00067972,0.00
 058594,-0.00051244,0.00118202,0.00033929,-0.00064004,0.00074343,-0.000
 10170,-0.00121367,-0.00056860,-0.01182272,-0.01072738,0.00062410,-0.00
 053042,0.00076399,0.00041652,0.00076741,0.00113532,0.00003337,-0.00089
 859,0.00021300,0.00034082,-0.01734901,0.00063136,-0.00011066,0.2966903
 4,0.00143746,-0.00053584,0.00277453,0.00134227,0.00056409,0.00273558,0
 .00151468,-0.00100466,0.00284188,0.00175019,0.00117130,0.00291131,-0.0
 0312363,-0.00035752,-0.00011798,0.00022880,0.00007709,0.00010525,0.000
 27618,-0.00008198,0.00012275,0.00433367,-0.00014333,-0.00076028,-0.017
 94578,-0.00028428,-0.03259379,-0.00059520,-0.00584063,0.00024958,0.000
 12081,-0.00048554,0.00039700,-0.00158708,-0.00014816,0.00022251,-0.000
 68377,0.00577050,0.00017901,0.00011408,0.00048820,0.00039983,-0.001585
 63,0.00011735,0.00022995,-0.00238281,-0.00079633,-0.04426585,-0.002413
 31,0.00074285,-0.04419974,-0.03458450,-0.00030536,-0.01908901,-0.01055
 970,-0.00005462,-0.00975069,-0.00170129,0.00110821,-0.00177472,-0.0017
 0009,-0.00112513,-0.00177045,-0.00196336,-0.00946062,-0.00024599,-0.00
 014744,0.00017642,0.00004600,0.00129970,-0.00197033,-0.00022786,-0.000
 12255,-0.00083992,0.00041570,0.00177354,0.01622113,0.00014599,0.000383
 91,0.00204144,-0.00292325,0.00013008,0.00115670,-0.00019372,0.00037814
 ,0.00135498,-0.00053766,-0.00208448,0.00948731,-0.00025575,0.00127257,
 0.00199117,-0.00024326,-0.00015931,-0.00017262,0.00004556,-0.00013793,
 0.00082284,0.00040708,0.00189224,-0.01633957,-0.00001659,0.00014706,-0
 .00115913,-0.00020367,0.00039588,-0.00204662,-0.00291705,0.00038283,-0
 .00121479,-0.00049440,0.08080558,0.00040877,-0.05438437,-0.01621086,0.
 00028676,0.20272259,-0.00017949,0.00207480,0.00049407,-0.00128040,0.00
 095919,0.00010611,-0.00497408,-0.00306350,0.00122098,0.00399448,0.0018
 5135,-0.00109241,-0.03029309,0.04621733,0.00369562,0.00009469,-0.00010
 340,-0.00011680,0.00068247,-0.00188250,0.00035954,-0.11186070,0.141886
 81,0.01454492,0.00089721,-0.00110864,-0.00012649,-0.00030253,-0.000211
 27,-0.00019275,0.00007181,-0.00004037,0.00002715,0.00003176,-0.0000341
 2,0.00000454,0.00005803,-0.00027175,-0.00008964,0.00009582,0.00004833,
 0.00001010,0.00001437,-0.00000888,0.00001877,-0.00006398,0.00001301,0.
 00004428,0.00013598,0.00014952,-0.00005481,-0.00005062,0.00001529,0.00
 029002,0.00011342,0.00000128,0.00004241,0.00002807,-0.00001895,-0.0000
 0213,0.00002980,0.00001616,0.00000179,-0.00005231,0.00002582,0.0000330
 4,0.00000476,0.00000834,0.00000376,-0.00000187,-0.00002143,-0.00000365
 ,-0.00000222,0.00000088,0.00000146,-0.00000125,0.00002030,-0.00003593,
 -0.00000392,-0.00002248,0.00000198,0.00000661,0.00000700,0.00000029,-0
 .00000209,0.00000464,-0.00001675,0.00001362,-0.00008012,0.00012229,-0.
 00001236,0.00002174,-0.00000243,0.00003654,0.00001354,-0.00001289,-0.0
 0000842,0.00000132,0.00000150,0.00002417,-0.00004814,-0.00009072,0.000
 01774,-0.00000077,0.00001294,-0.00001104,0.00002192,0.00000343,-0.0000
 1991,0.00000218,-0.00001991,-0.00019004,0.00001439,-0.00010458,0.00018
 862,-0.00001810,-0.00029095,0.14277036,0.00116838,0.00024952,-0.000176
 58,0.00074084,-0.00116466,-0.00009904,-0.00262915,0.00253226,0.0003541
 4,-0.00590408,0.00291144,0.00043316,-0.00106649,0.00302931,-0.00008888
 ,-0.00016203,0.00033265,0.00004937,0.00066812,-0.00093344,0.00034178,0
 .19457009,-0.45692600,-0.02630111,-0.00053288,-0.00006058,0.00006109,-
 0.00001303,-0.00001371,0.00003845,-0.00001028,-0.00000859,-0.00001582,
 -0.00000463,0.00000259,-0.00000551,-0.00006860,0.00008156,0.00003340,-
 0.00001157,0.00000683,-0.00001512,-0.00002716,-0.00004763,-0.00001222,
 -0.00002473,0.00003020,0.00000744,-0.00001099,-0.00005459,0.00000292,0
 .00009431,0.00001211,-0.00040653,-0.00015837,-0.00000068,-0.00004387,-
 0.00001905,0.00001448,0.00001082,-0.00001644,-0.00001692,0.00001477,0.
 00001395,-0.00002624,-0.00004341,-0.00001012,-0.00000228,0.00000229,0.
 00000313,0.00001485,0.00000241,0.00000244,-0.00000152,0.00000003,-0.00
 000407,-0.00001305,0.00004352,0.00000558,0.00001667,-0.00000406,-0.000
 00568,-0.00000625,0.00000053,0.00000604,-0.00000278,0.00001025,0.00001
 501,0.00002320,-0.00004072,0.,-0.00001986,0.00000244,-0.00000705,0.000
 00251,0.00000271,0.00000141,0.00000320,-0.00000125,0.00000137,0.000014
 68,0.00004569,-0.00000100,0.00000592,-0.00000038,0.00000100,-0.0000242
 0,-0.00000414,-0.00000050,0.00000782,0.00000841,0.00025457,0.00000775,
 0.00011835,-0.00041759,-0.00002889,0.00037988,-0.18644075,0.45005234,0
 .00020827,-0.00041882,0.00179510,0.00010393,-0.00021024,-0.00068680,0.
 00137589,0.00045673,0.00358263,-0.00131789,-0.00042456,-0.00095478,0.0
 0400370,-0.00678314,-0.00376938,-0.00009870,0.00004565,-0.00058068,0.0
 0035927,0.00045551,-0.00034865,0.01433973,-0.01872352,-0.00873670,-0.0
 0014384,0.00027376,-0.00000229,-0.00004547,0.00001552,-0.00041521,0.00
 007482,-0.00008030,-0.00001216,-0.00001959,0.00003792,0.00001605,0.000
 02437,0.00005169,0.00013323,-0.00002156,-0.00002942,-0.00000525,0.0000
 0935,0.00000030,0.00000240,0.00000673,0.00004705,-0.00003927,-0.000022
 31,-0.00001253,0.00000345,0.00000667,-0.00000370,-0.00004321,-0.000021
 83,0.00000151,-0.00000581,-0.00000618,0.00000342,0.00000062,-0.0000048
 7,-0.00000163,0.00000191,0.00000487,-0.00000433,-0.00001105,-0.0000031
 1,-0.00000141,0.00000265,0.00000042,0.00000320,0.00000191,0.00000112,-
 0.00000054,0.00000204,-0.00001362,0.00000082,0.00003172,0.00000006,0.0
 0000701,-0.00000329,-0.00000093,-0.00000152,-0.00000361,0.00000411,-0.
 00000098,0.00000173,-0.00000835,0.00000876,-0.00001381,0.00000366,-0.0
 0000271,0.00000309,-0.00000642,-0.00000110,0.00000116,0.00000507,-0.00
 000088,-0.00000498,-0.00000816,0.00001156,0.00003748,-0.00000112,-0.00
 000026,-0.00000677,-0.00000024,-0.00000838,0.00000087,-0.00000174,0.00
 000640,0.00000115,0.00002553,-0.00000793,0.00000998,-0.00002349,-0.000
 00369,0.00001397,-0.01878815,0.02529481,0.01000056\\-0.00000195,-0.000
 00207,0.00000011,0.00000051,0.00000130,-0.00000147,0.00000155,0.000000
 02,-0.00000198,0.00000020,0.00000015,-0.00000269,-0.00000125,0.0000015
 1,-0.00000861,-0.00000030,0.00000034,-0.00000342,-0.00000003,0.0000003
 0,-0.00000366,0.00000054,0.00000021,-0.00000379,-0.00000229,0.00000155
 ,0.00000028,-0.00000067,0.00000055,-0.00000202,0.00000235,-0.00000078,
 -0.00000051,0.00000023,0.00000042,0.00000014,-0.00000207,-0.00000025,-
 0.00000409,0.00000082,0.00000086,-0.00000026,0.00000016,-0.00000060,-0
 .00000103,0.00000875,0.00000105,0.00000885,0.00000363,-0.00000243,0.00
 001122,0.00000386,-0.00000516,0.00000480,-0.00000571,0.00000111,0.0000
 0192,-0.00000311,-0.00000151,0.00000699,0.00000108,-0.00000177,-0.0000
 0040,0.00000026,-0.00000077,0.00000002,0.00000017,0.00000006,0.0000017
 8,0.00000138,-0.00000002,0.00000246,0.00000176,-0.00000134,0.00000111,
 -0.00000431,-0.00000086,0.00000012,-0.00000202,0.00000041,0.00000062,-
 0.00000202,-0.00000007,0.00000139,-0.00000163,0.00000035,0.00000119,0.
 00000440,-0.00000020,0.00000081,0.00000187,-0.00000002,0.00000179,0.00
 000128,-0.00000103,0.00000205,0.00000143,0.00000042,0.00000141,-0.0000
 0315,0.00000128,-0.00000149,-0.00000104,0.00000068,0.00000151,-0.00000
 117,-0.00000017,0.00000044,-0.00000139,-0.00000037,-0.00000008,-0.0000
 0207,0.00001016,0.00000466,-0.00000003,-0.00000373,-0.00001491,-0.0000
 0002,0.00000041,-0.00000526\\\@
 The archive entry for this job was punched.


 THE MORE PROGRESS PHYSICAL SCIENCES MAKE, THE MORE THEY TEND TO ENTER
 THE DOMAIN OF MATHEMATICS, WHICH IS A KIND OF CENTRE TO WHICH THEY ALL
 CONVERGE.  WE MAY EVEN JUDGE THE DEGREE OF PERFECTION TO WHICH A 
 SCIENCE HAS ARRIVED BY THE FACILITY WITH WHICH IT MAY BE SUBMITTED
 TO CALCULATION.

                               -- ADOLPHE QUETELET, 1796-1874
 Job cpu time:       2 days  7 hours 24 minutes 19.5 seconds.
 Elapsed time:       0 days  1 hours  9 minutes 48.4 seconds.
 File lengths (MBytes):  RWF=   2367 Int=      0 D2E=      0 Chk=     72 Scr=      1
 Normal termination of Gaussian 16 at Fri Apr  5 13:05:12 2024.
