 Entering Gaussian System, Link 0=/cm/shared/apps//g16/g16
 Input=QST2_HZRhMeH_sigma_HZRhMeH.gjf
 Output=QST2_HZRhMeH_sigma_HZRhMeH.log
 Initial command:
 /cm/shared/apps//g16/l1.exe "/local/mvanvleet/pbs.14688.josephine/Gau-1020210.inp" -scrdir="/local/mvanvleet/pbs.14688.josephine/"
 Entering Link 1 = /cm/shared/apps//g16/l1.exe PID=   1020213.
  
 Copyright (c) 1988-2019, Gaussian, Inc.  All Rights Reserved.
  
 This is part of the Gaussian(R) 16 program.  It is based on
 the Gaussian(R) 09 system (copyright 2009, Gaussian, Inc.),
 the Gaussian(R) 03 system (copyright 2003, Gaussian, Inc.),
 the Gaussian(R) 98 system (copyright 1998, Gaussian, Inc.),
 the Gaussian(R) 94 system (copyright 1995, Gaussian, Inc.),
 the Gaussian 92(TM) system (copyright 1992, Gaussian, Inc.),
 the Gaussian 90(TM) system (copyright 1990, Gaussian, Inc.),
 the Gaussian 88(TM) system (copyright 1988, Gaussian, Inc.),
 the Gaussian 86(TM) system (copyright 1986, Carnegie Mellon
 University), and the Gaussian 82(TM) system (copyright 1983,
 Carnegie Mellon University). Gaussian is a federally registered
 trademark of Gaussian, Inc.
  
 This software contains proprietary and confidential information,
 including trade secrets, belonging to Gaussian, Inc.
  
 This software is provided under written license and may be
 used, copied, transmitted, or stored only in accord with that
 written license.
  
 The following legend is applicable only to US Government
 contracts under FAR:
  
                    RESTRICTED RIGHTS LEGEND
  
 Use, reproduction and disclosure by the US Government is
 subject to restrictions as set forth in subparagraphs (a)
 and (c) of the Commercial Computer Software - Restricted
 Rights clause in FAR 52.227-19.
  
 Gaussian, Inc.
 340 Quinnipiac St., Bldg. 40, Wallingford CT 06492
  
  
 ---------------------------------------------------------------
 Warning -- This program may not be used in any manner that
 competes with the business of Gaussian, Inc. or will provide
 assistance to any competitor of Gaussian, Inc.  The licensee
 of this program is prohibited from giving any competitor of
 Gaussian, Inc. access to this program.  By using this program,
 the user acknowledges that Gaussian, Inc. is engaged in the
 business of creating and licensing software in the field of
 computational chemistry and represents and warrants to the
 licensee that it is not a competitor of Gaussian, Inc. and that
 it will not use this program in any manner prohibited above.
 ---------------------------------------------------------------
  

 Cite this work as:
 Gaussian 16, Revision C.01,
 M. J. Frisch, G. W. Trucks, H. B. Schlegel, G. E. Scuseria, 
 M. A. Robb, J. R. Cheeseman, G. Scalmani, V. Barone, 
 G. A. Petersson, H. Nakatsuji, X. Li, M. Caricato, A. V. Marenich, 
 J. Bloino, B. G. Janesko, R. Gomperts, B. Mennucci, H. P. Hratchian, 
 J. V. Ortiz, A. F. Izmaylov, J. L. Sonnenberg, D. Williams-Young, 
 F. Ding, F. Lipparini, F. Egidi, J. Goings, B. Peng, A. Petrone, 
 T. Henderson, D. Ranasinghe, V. G. Zakrzewski, J. Gao, N. Rega, 
 G. Zheng, W. Liang, M. Hada, M. Ehara, K. Toyota, R. Fukuda, 
 J. Hasegawa, M. Ishida, T. Nakajima, Y. Honda, O. Kitao, H. Nakai, 
 T. Vreven, K. Throssell, J. A. Montgomery, Jr., J. E. Peralta, 
 F. Ogliaro, M. J. Bearpark, J. J. Heyd, E. N. Brothers, K. N. Kudin, 
 V. N. Staroverov, T. A. Keith, R. Kobayashi, J. Normand, 
 K. Raghavachari, A. P. Rendell, J. C. Burant, S. S. Iyengar, 
 J. Tomasi, M. Cossi, J. M. Millam, M. Klene, C. Adamo, R. Cammi, 
 J. W. Ochterski, R. L. Martin, K. Morokuma, O. Farkas, 
 J. B. Foresman, and D. J. Fox, Gaussian, Inc., Wallingford CT, 2019.
 
 ******************************************
 Gaussian 16:  ES64L-G16RevC.01  3-Jul-2019
                 5-Apr-2024 
 ******************************************
 %nprocshared=48
 Will use up to   48 processors via shared memory.
 %chk=QST2_HZRhMeH_sigma_HZRhMeH.chk
 %mem=64GB
 ---------------------------------------------------------------
 # wb97xd def2TZVPP SCRF=(solvent=dichloromethane) opt=qst2 freq
 ---------------------------------------------------------------
 1/5=1,18=20,26=3,27=202,38=1/1,3;
 2/9=110,12=2,17=6,18=5,40=1/2;
 3/5=44,7=202,11=2,25=1,30=1,70=2201,71=1,72=9,74=-58/1,2,3;
 4//1;
 5/5=2,38=5,53=9/2;
 6/7=2,8=2,9=2,10=2,28=1/1;
 7//1,2,3,16;
 1/5=1,18=20,26=3,27=202/3(2);
 2/9=110/2;
 99//99;
 2/9=110/2;
 3/5=44,7=202,11=2,25=1,30=1,70=2205,71=1,72=9,74=-58/1,2,3;
 4/5=5,16=3,69=1/1;
 5/5=2,38=5,53=9/2;
 7//1,2,3,16;
 1/5=1,18=20,26=3,27=202/3(-5);
 2/9=110/2;
 6/7=2,8=2,9=2,10=2,19=2,28=1/1;
 99/9=1/99;
 ------------------------
 ts_xyz/HZRhMeH_sigma.xyz
 ------------------------
 Symbolic Z-matrix:
 Charge =  1 Multiplicity = 1
 C                     1.51861   1.15313  -0.18867 
 C                     1.50287  -1.17951  -0.18915 
 C                     2.88689   1.18387  -0.03577 
 C                     2.86774  -1.2308   -0.03501 
 C                     3.57003  -0.02872   0.05707 
 H                     3.41531   2.1264    0.00339 
 H                     3.39412  -2.17277   0.00649 
 O                     4.89643  -0.10166   0.22052 
 N                     0.85905  -0.00719  -0.23013 
 C                     0.63992   2.344    -0.44461 
 H                     0.6077    2.48289  -1.52634 
 H                     1.04966   3.25725  -0.00711 
 C                     0.60529  -2.35541  -0.448 
 H                     0.56791  -2.48907  -1.53022 
 H                     1.00265  -3.27642  -0.01551 
 N                    -0.75572   2.11556   0.02086 
 N                    -0.7855   -2.10748   0.02194 
 C                    -3.48243   0.02276   0.18415 
 H                    -2.84992   0.0189    1.08729 
 H                    -4.09126   0.92155   0.19744 
 H                    -4.10269  -0.86816   0.1977 
 C                    -1.67085   2.958    -0.76605 
 H                    -2.68224   2.83168  -0.38795 
 H                    -1.39532   4.01441  -0.68902 
 H                    -1.64104   2.64908  -1.80791 
 C                    -0.85453   2.49296   1.44504 
 H                    -0.64411   3.55958   1.57242 
 H                    -1.85783   2.2831    1.80698 
 H                    -0.14252   1.91443   2.0291 
 C                    -1.71458  -2.9379   -0.76133 
 H                    -1.45203  -3.99768  -0.68572 
 H                    -2.72281  -2.79897  -0.37915 
 H                    -1.68503  -2.62918  -1.80327 
 C                    -0.8846   -2.48264   1.44674 
 H                    -1.8833   -2.2578    1.81241 
 H                    -0.68937  -3.55214   1.574 
 H                    -0.16168  -1.91467   2.02778 
 H                    -2.92173   0.01903  -0.78474 
 Rh                   -1.0823    0.00607  -0.11118 
 H                     5.28682   0.77398   0.26568 
 
 Add virtual bond connecting atoms Rh39       and H38        Dist= 3.70D+00.
 ------------------
 ts_xyz/HZRhMeH.xyz
 ------------------
 Symbolic Z-matrix:
 Charge =  1 Multiplicity = 1
 C                     1.5225    1.1542   -0.24192 
 C                     1.50707  -1.17942  -0.24469 
 C                     2.88503   1.19049  -0.04059 
 C                     2.86611  -1.23638  -0.04288 
 C                     3.56119  -0.02821   0.06641 
 H                     3.41563   2.12941   0.03615 
 H                     3.39481  -2.17474   0.03395 
 O                     4.87912  -0.10186   0.27638 
 N                     0.8848   -0.00679  -0.32608 
 C                     0.6165    2.33644  -0.47518 
 H                     0.55286   2.47828  -1.55478 
 H                     1.02282   3.25343  -0.04438 
 C                     0.58239  -2.34614  -0.4813 
 H                     0.51121  -2.48088  -1.56134 
 H                     0.97701  -3.27122  -0.05719 
 N                    -0.77452   2.10541   0.02542 
 N                    -0.80248  -2.09665   0.02728 
 C                    -3.18102   0.01883   0.25051 
 H                    -3.31941   0.01066   1.34146 
 H                    -3.6939    0.9054   -0.13303 
 H                    -3.70821  -0.85244  -0.1482 
 C                    -1.69163   3.00998  -0.68853 
 H                    -2.69193   2.8921   -0.28283 
 H                    -1.37616   4.05017  -0.56899 
 H                    -1.70417   2.74975  -1.74337 
 C                    -0.82514   2.40168   1.47222 
 H                    -0.55526   3.44358   1.66133 
 H                    -1.83231   2.21959   1.83877 
 H                    -0.12798   1.7564    2.0067 
 C                    -1.73567  -2.99013  -0.6797 
 H                    -1.43192  -4.03403  -0.56227 
 H                    -2.73154  -2.85982  -0.26688 
 H                    -1.75248  -2.7299   -1.73448 
 C                    -0.84715  -2.39042   1.47487 
 H                    -1.8496   -2.19577   1.84783 
 H                    -0.5885   -3.43524   1.66343 
 H                    -0.13851  -1.75308   2.00366 
 H                    -1.49465   0.00742  -1.57419 
 Rh                   -1.15325   0.00608  -0.1123 
 H                     5.26962   0.77278   0.33971 
 
 Iteration  1 RMS(Cart)=  0.05895741 RMS(Int)=  0.42609153
 Iteration  2 RMS(Cart)=  0.03810138 RMS(Int)=  0.41969836
 Iteration  3 RMS(Cart)=  0.02934987 RMS(Int)=  0.41691110
 Iteration  4 RMS(Cart)=  0.02002270 RMS(Int)=  0.41613933
 Iteration  5 RMS(Cart)=  0.00198492 RMS(Int)=  0.41592639
 Iteration  6 RMS(Cart)=  0.00084506 RMS(Int)=  0.41576388
 Iteration  7 RMS(Cart)=  0.00049006 RMS(Int)=  0.41565693
 Iteration  8 RMS(Cart)=  0.00028715 RMS(Int)=  0.41559052
 Iteration  9 RMS(Cart)=  0.00016909 RMS(Int)=  0.41555034
 Iteration 10 RMS(Cart)=  0.00009977 RMS(Int)=  0.41552632
 Iteration 11 RMS(Cart)=  0.00005892 RMS(Int)=  0.41551206
 Iteration 12 RMS(Cart)=  0.00003481 RMS(Int)=  0.41550360
 Iteration 13 RMS(Cart)=  0.00002057 RMS(Int)=  0.41549860
 Iteration 14 RMS(Cart)=  0.00001215 RMS(Int)=  0.41549564
 Iteration 15 RMS(Cart)=  0.00000718 RMS(Int)=  0.41549389
 Iteration 16 RMS(Cart)=  0.00000424 RMS(Int)=  0.41549286
 Iteration 17 RMS(Cart)=  0.00000251 RMS(Int)=  0.41549225
 Iteration 18 RMS(Cart)=  0.00000148 RMS(Int)=  0.41549189
 Iteration 19 RMS(Cart)=  0.00000088 RMS(Int)=  0.41549167
 Iteration  1 RMS(Cart)=  0.00000052 RMS(Int)=  0.41549155
 Iteration  1 RMS(Cart)=  0.00000031 RMS(Int)=  0.41549147
 Iteration  1 RMS(Cart)=  0.00000018 RMS(Int)=  0.41549143
 Iteration  1 RMS(Cart)=  0.00000011 RMS(Int)=  0.41549140
 Iteration  1 RMS(Cart)=  0.00000006 RMS(Int)=  0.41549139
 Iteration  1 RMS(Cart)=  0.00000004 RMS(Int)=  0.41549138
 Iteration  1 RMS(Cart)=  0.00000002 RMS(Int)=  0.41549137
 Iteration  1 RMS(Cart)=  0.00000001 RMS(Int)=  0.41549137
 Iteration  1 RMS(Cart)=  0.00000001 RMS(Int)=  0.41549137
   Var     Old X     New X   DQ Goal   DQ Act.  Rel. Err.   Overall
     1    2.6024    2.6022    0.0006   -0.0002
     2    2.5234    2.5065   -0.0076   -0.0168
     3    2.8382    2.8240    0.0054   -0.0142
     4    2.5974    2.5990    0.0006    0.0015
     5    2.5286    2.5266   -0.0077   -0.0020
     6    2.8380    2.8433    0.0053    0.0053
     7    2.6359    2.6362    0.0028    0.0002
     8    2.0433    2.0432   -0.0001   -0.0001
     9    2.6366    2.6378    0.0027    0.0012
    10    2.0406    2.0406   -0.0001   -0.0001
    11    2.5293    2.5275   -0.0017   -0.0017
    12    1.8137    1.8139    0.0002    0.0002
    13    3.6756    3.7815    0.0985    0.1059    1.0752
    14    2.0619    2.0615   -0.0003   -0.0003
    15    2.0643    2.0636   -0.0008   -0.0008
    16    2.8135    2.8149    0.0070    0.0014
    17    2.0618    2.0615   -0.0003   -0.0003
    18    2.0642    2.0634   -0.0008   -0.0008
    19    2.8135    2.8257    0.0070    0.0122
    20    2.7814    2.7823    0.0009    0.0009
    21    2.7905    2.7914    0.0010    0.0010
    22    4.0416    4.0564   -0.0010    0.0149
    23    2.7814    2.7822    0.0009    0.0009
    24    2.7905    2.7916    0.0010    0.0010
    25    4.0411    4.0350   -0.0020   -0.0061
    26    2.0836    2.0809   -0.0027   -0.0027
    27    2.0516    2.0592    0.0076    0.0076
    28    2.0516    2.0591    0.0075    0.0075
    29    2.1154    3.4819    1.2899    1.3664    1.0593
    30    4.5699    4.1817   -0.3385   -0.3882    1.1467
    31    2.0544    2.0532   -0.0012   -0.0012
    32    2.0682    2.0674   -0.0009   -0.0009
    33    2.0543    2.0538   -0.0005   -0.0005
    34    2.0685    2.0668   -0.0017   -0.0017
    35    2.0542    2.0543    0.0001    0.0001
    36    2.0552    2.0575    0.0023    0.0023
    37    2.0682    2.0673   -0.0009   -0.0009
    38    2.0544    2.0532   -0.0012   -0.0012
    39    2.0544    2.0538   -0.0005   -0.0005
    40    2.0542    2.0543    0.0001    0.0001
    41    2.0685    2.0667   -0.0017   -0.0017
    42    2.0552    2.0575    0.0022    0.0022
    43    3.7018    3.2513   -0.4325   -0.4505    1.0418
    44    2.1102    2.1149   -0.0036    0.0048
    45    2.1926    2.2003    0.0085    0.0077
    46    1.9766    1.9649   -0.0040   -0.0116
    47    2.1105    2.1085   -0.0035   -0.0020
    48    2.1939    2.1939    0.0084   -0.0001
    49    1.9748    1.9782   -0.0040    0.0034
    50    2.0653    2.0630   -0.0045   -0.0023
    51    2.1049    2.1094    0.0055    0.0045
    52    2.1130    2.1109   -0.0010   -0.0021
    53    2.0658    2.0659   -0.0046    0.0001
    54    2.1187    2.1220    0.0056    0.0033
    55    2.0986    2.0952   -0.0010   -0.0034
    56    2.0922    2.0891    0.0051   -0.0031
    57    2.1422    2.1426   -0.0023    0.0004
    58    2.0487    2.0480   -0.0028   -0.0007
    59    1.9381    1.9393    0.0012    0.0012
    60    2.1208    2.1230    0.0117    0.0022    0.1844
    61    2.0774    2.0884   -0.0111    0.0110   -0.9961
    62    2.0764    2.0549   -0.0113   -0.0215    1.9011
    63    1.8621    1.8687    0.0016    0.0066
    64    1.9554    1.9530   -0.0006   -0.0024
    65    1.9536    1.9549    0.0067    0.0014
    66    1.8773    1.8773    0.0007    0.0000
    67    1.8774    1.8744   -0.0025   -0.0030
    68    1.9334    1.9309   -0.0058   -0.0024
    69    1.8623    1.8671    0.0019    0.0048
    70    1.9547    1.9520   -0.0007   -0.0027
    71    1.9536    1.9588    0.0064    0.0052
    72    1.8775    1.8782    0.0009    0.0007
    73    1.8770    1.8758   -0.0025   -0.0012
    74    1.9340    1.9275   -0.0061   -0.0065
    75    1.9048    1.8964   -0.0032   -0.0085
    76    1.9019    1.9007    0.0018   -0.0011
    77    1.8496    1.8723    0.0102    0.0227    2.2192
    78    1.9047    1.9101    0.0013    0.0054
    79    2.0226    2.0295    0.0140    0.0069    0.4950
    80    1.8770    1.8513   -0.0247   -0.0257    1.0379
    81    1.9047    1.9013   -0.0030   -0.0034
    82    1.9017    1.9065    0.0015    0.0047
    83    1.8490    1.8559    0.0101    0.0069    0.6855
    84    1.9047    1.9047    0.0014   -0.0001
    85    2.0229    2.0361    0.0139    0.0131    0.9447
    86    1.8774    1.8560   -0.0245   -0.0214    0.8713
    87    1.8908    1.8098   -0.0103   -0.0810    7.8423
    88    1.8909    1.8668   -0.0103   -0.0241    2.3446
    89    2.0060    2.2765    0.2578    0.2704    1.0490
    90    1.0823    1.4191    0.3959    0.3368    0.8509
    91    1.9378    1.9538   -0.0354    0.0159   -0.4503
    92    1.8695    1.7713   -0.1171   -0.0982    0.8388
    93    2.1698    2.1264   -0.0911   -0.0433    0.4759
    94    1.8694    1.7804   -0.1214   -0.0890    0.7331
    95    2.1687    2.1266   -0.0902   -0.0421    0.4666
    96    1.9028    1.9028   -0.0001   -0.0001
    97    1.9373    1.9337   -0.0036   -0.0036
    98    1.9099    1.9089   -0.0010   -0.0010
    99    1.8985    1.9018    0.0033    0.0033
   100    1.9027    1.9028    0.0001    0.0001
   101    1.9122    1.9135    0.0013    0.0013
   102    1.9267    1.9287    0.0020    0.0020
   103    1.9109    1.9081   -0.0028   -0.0028
   104    1.9158    1.9165    0.0007    0.0007
   105    1.9037    1.9055    0.0018    0.0018
   106    1.9071    1.9027   -0.0044   -0.0044
   107    1.8994    1.9022    0.0028    0.0028
   108    1.9371    1.9336   -0.0035   -0.0035
   109    1.9031    1.9029   -0.0002   -0.0002
   110    1.9099    1.9088   -0.0011   -0.0011
   111    1.8986    1.9020    0.0035    0.0035
   112    1.9121    1.9134    0.0013    0.0013
   113    1.9027    1.9029    0.0001    0.0001
   114    1.9110    1.9082   -0.0028   -0.0028
   115    1.9267    1.9286    0.0019    0.0019
   116    1.9158    1.9164    0.0006    0.0006
   117    1.9038    1.9056    0.0018    0.0018
   118    1.8996    1.9025    0.0029    0.0029
   119    1.9067    1.9024   -0.0043   -0.0043
   120    1.7444    1.3387   -0.3845   -0.4057    1.0552
   121    1.4284    1.3940   -0.0108   -0.0344    3.1809
   122    1.4289    1.4238   -0.0107   -0.0051    0.4718
   123    3.1368    3.0854   -0.0008   -0.0514
   124    3.2032    3.1907    0.0058   -0.0126
   125    2.7294    2.2487   -0.5168   -0.4807    0.9300
   126    2.8235    2.7779   -0.0246   -0.0456    1.8555
   127    1.7084    1.6915    0.0100   -0.0170
   128    1.7296    1.7093   -0.0282   -0.0203    0.7182
   129    1.7082    1.7646    0.0097    0.0564
   130    1.7297    1.7639   -0.0285    0.0341   -1.1993
   131    0.4734    0.9447    0.5225    0.4713    0.9019
   132    0.0146   -0.0093   -0.0058   -0.0239
   133   -3.1349    3.1358    0.0001    6.2706
   134   -3.0262   -3.0605   -0.0199   -0.0343    1.7248
   135    0.1075    0.0846   -0.0140   -0.0229    1.6396
   136   -0.0561   -0.0389    0.0187    0.0172    0.9162
   137    2.9432    2.9016   -0.0433   -0.0416    0.9596
   138    2.9964    3.0235    0.0317    0.0272    0.8573
   139   -0.2876   -0.3191   -0.0304   -0.0316    1.0396
   140    1.5314    1.5651    0.0366    0.0337    0.9219
   141   -0.5187   -0.4878    0.0351    0.0310    0.8824
   142   -2.7026   -2.6677    0.0382    0.0349    0.9156
   143   -1.5161   -1.4927    0.0234    0.0234    0.9967
   144    2.7170    2.7376    0.0219    0.0206    0.9388
   145    0.5331    0.5577    0.0250    0.0246    0.9825
   146   -0.0171    0.0088    0.0062    0.0260
   147    3.1335   -3.1397    0.0002   -6.2732
   148    3.0233    3.0679    0.0209    0.0446    2.1312
   149   -0.1093   -0.0806    0.0149    0.0287    1.9241
   150    0.0574    0.0391   -0.0190   -0.0183    0.9632
   151   -2.9419   -2.9051    0.0430    0.0368    0.8564
   152   -2.9948   -3.0294   -0.0324   -0.0346    1.0674
   153    0.2890    0.3095    0.0295    0.0205    0.6933
   154   -1.5361   -1.5752   -0.0375   -0.0392    1.0453
   155    0.5140    0.4771   -0.0356   -0.0369    1.0359
   156    2.6982    2.6546   -0.0392   -0.0436    1.1109
   157    1.5111    1.4891   -0.0238   -0.0220    0.9239
   158   -2.7220   -2.7417   -0.0219   -0.0197    0.8981
   159   -0.5378   -0.5642   -0.0256   -0.0264    1.0328
   160    0.0243    0.0561   -0.0066    0.0318
   161   -3.1294    3.1051    0.0003    6.2344
   162   -3.1094   -3.0890   -0.0125    0.0204   -1.6281
   163    0.0201   -0.0400   -0.0056   -0.0601
   164   -0.0230   -0.0558    0.0064   -0.0328
   165    3.1300   -3.1098   -0.0002   -6.2397
   166    3.1097    3.0926    0.0124   -0.0171   -1.3816
   167   -0.0205    0.0386    0.0058    0.0592
   168    0.0041   -0.1977   -0.0017   -0.2017
   169    3.1339    2.8534   -3.1366   -0.2805    0.0894
   170   -0.0017    0.0198    0.0231    0.0215    0.9306
   171   -3.0001   -2.9555    0.0351    0.0447    1.2742
   172    1.6399    1.6267    0.0295   -0.0132   -0.4465
   173    3.0012    2.9681   -0.0338   -0.0332    0.9814
   174    0.0028   -0.0072   -0.0218   -0.0100    0.4568
   175   -1.6403   -1.7082   -0.0274   -0.0678    2.4786
   176   -2.6841   -2.7195   -0.0319   -0.0355    1.1109
   177    1.5207    1.4843   -0.0327   -0.0364    1.1140
   178   -0.4945   -0.5122   -0.0100   -0.0177    1.7628
   179   -0.6441   -0.6726   -0.0278   -0.0285    1.0229
   180   -2.7225   -2.7519   -0.0286   -0.0294    1.0288
   181    1.5455    1.5348   -0.0059   -0.0107
   182    1.4031    1.3716   -0.0316   -0.0315    0.9966
   183   -0.6754   -0.7078   -0.0323   -0.0324    1.0024
   184   -2.6905   -2.7043   -0.0097   -0.0137
   185    2.6895    2.7263    0.0333    0.0367    1.1033
   186   -1.5153   -1.4779    0.0342    0.0374    1.0947
   187    0.5000    0.5184    0.0115    0.0184    1.5945
   188    0.6495    0.6782    0.0289    0.0287    0.9930
   189    2.7278    2.7572    0.0297    0.0293    0.9863
   190   -1.5400   -1.5297    0.0071    0.0103
   191   -1.3980   -1.3660    0.0325    0.0321    0.9868
   192    0.6803    0.7130    0.0334    0.0327    0.9810
   193    2.6956    2.7093    0.0107    0.0137    1.2783
   194   -3.0869   -3.0784    0.0047    0.0085
   195   -0.9959   -0.9856    0.0066    0.0104
   196    1.1167    1.1257    0.0052    0.0090
   197   -1.0103   -1.0049    0.0058    0.0053
   198    1.0807    1.0879    0.0077    0.0072
   199   -3.0898   -3.0840    0.0063    0.0058
   200    1.1109    1.0915   -0.0160   -0.0194    1.2068
   201   -3.0813   -3.0988   -0.0142   -0.0175    1.2336
   202   -0.9687   -0.9876   -0.0156   -0.0189    1.2133
   203    1.0943    1.0695   -0.0187   -0.0248    1.3259
   204   -3.0929   -3.1161   -0.0171   -0.0232    1.3574
   205   -1.0090   -1.0300   -0.0149   -0.0210    1.4088
   206   -0.9842   -1.0013   -0.0167   -0.0171    1.0215
   207    1.1117    1.0963   -0.0150   -0.0154    1.0239
   208   -3.0875   -3.1008   -0.0129   -0.0133    1.0279
   209    3.0918    3.0796   -0.0186   -0.0122    0.6535
   210   -1.0955   -1.1060   -0.0170   -0.0105    0.6198
   211    0.9885    0.9801   -0.0148   -0.0084    0.5648
   212    0.2798    0.2758   -0.0085   -0.0041
   213    0.7483    0.7542   -0.0054    0.0059
   214   -2.9234   -2.9149   -0.0142    0.0085   -0.5992
   215   -2.4451   -1.9617    0.5135    0.4834    0.9413
   216    2.3951    2.4018    0.0047    0.0067
   217    2.8636    2.8803    0.0078    0.0167
   218   -0.8081   -0.7889   -0.0011    0.0193
   219   -0.3298    0.1643    0.5267    0.4942    0.9383
   220   -1.7522   -1.7536   -0.0036   -0.0014
   221   -1.2837   -1.2752   -0.0005    0.0086
   222    1.3277    1.3389   -0.0094    0.0112
   223    1.8060    2.2921    0.5184    0.4861    0.9377
   224    0.9942    0.9902   -0.0067   -0.0040
   225    3.0853    3.0832   -0.0047   -0.0020
   226   -1.1181   -1.1208   -0.0053   -0.0027
   227   -1.0823   -1.0900   -0.0076   -0.0077
   228    1.0088    1.0031   -0.0056   -0.0057
   229    3.0886    3.0822   -0.0063   -0.0063
   230    3.0789    3.0903    0.0140    0.0114    0.8141
   231   -1.1132   -1.0998    0.0159    0.0133    0.8371
   232    0.9666    0.9793    0.0153    0.0127    0.8304
   233    3.0918    3.1094    0.0179    0.0176    0.9806
   234   -1.0953   -1.0761    0.0195    0.0192    0.9822
   235    1.0075    1.0229    0.0158    0.0154    0.9780
   236   -1.1130   -1.0968    0.0161    0.0162    1.0079
   237    0.9831    1.0009    0.0177    0.0178    1.0072
   238    3.0858    3.0999    0.0139    0.0141    1.0091
   239    1.0949    1.1132    0.0181    0.0183    1.0122
   240   -3.0922   -3.0723    0.0197    0.0199    1.0113
   241   -0.9894   -0.9732    0.0159    0.0161    1.0139
   242   -0.2832   -0.2854    0.0071   -0.0022
   243   -0.7516   -0.7614    0.0040   -0.0097
   244    2.9201    2.9146    0.0129   -0.0055   -0.4290
   245    2.4418    1.9504   -0.5148   -0.4914    0.9544
   246   -2.3981   -2.4096   -0.0061   -0.0115
   247   -2.8665   -2.8855   -0.0092   -0.0190
   248    0.8052    0.7904   -0.0003   -0.0148
   249    0.3269   -0.1737   -0.5280   -0.5006    0.9481
   250    1.7486    1.7450    0.0019   -0.0036
   251    1.2802    1.2691   -0.0011   -0.0111
   252   -1.3313   -1.3382    0.0077   -0.0069
   253   -1.8096   -2.3024   -0.5200   -0.4928    0.9476
   254    0.0007    0.0528   -0.0079    0.0521
   255    2.1022    2.1362    0.0480    0.0340    0.7094
   256   -2.1008   -2.1283   -0.0561   -0.0274    0.4886
   257   -1.4903   -1.4462    0.0029    0.0442
   258    1.4909    1.5119   -0.0122    0.0210   -1.7211
   259   -3.1409   -3.1010    3.1366    0.0399    0.0127
   260    0.1490    0.3127    0.2169    0.1637    0.7547
   261    3.1303   -3.0124   -2.9398   -6.1427    2.0895
   262   -1.5015   -1.3421    0.2091    0.1594    0.7625
   263   -3.1303    3.0111    2.9305    6.1414    2.0957
   264   -0.1491   -0.3141   -0.2262   -0.1650    0.7295
   265    1.5023    1.3562   -0.2189   -0.1461    0.6673
   266   -3.1413   -3.0748    3.1414    0.0665    0.0212
   267   -1.5630   -1.6200   -0.0805   -0.0570    0.7080
   268    1.5622    1.6718    0.0806    0.1097    1.3613

 GradGradGradGradGradGradGradGradGradGradGradGradGradGradGradGradGradGrad
 Berny optimization.
 Initialization pass.
                           ----------------------------
                           !    Initial Parameters    !
                           ! (Angstroms and Degrees)  !
 --------------------------                            --------------------------
 ! Name  Definition         TS        Reactant Product Derivative Info.         !
 --------------------------------------------------------------------------------
 ! R1    R(1,3)             1.377     1.3771    1.3778 estimate D2E/DX2         !
 ! R2    R(1,9)             1.3264    1.3353    1.3273 estimate D2E/DX2         !
 ! R3    R(1,10)            1.4944    1.5019    1.5076 estimate D2E/DX2         !
 ! R4    R(2,4)             1.3753    1.3745    1.3751 estimate D2E/DX2         !
 ! R5    R(2,9)             1.337     1.3381    1.33   estimate D2E/DX2         !
 ! R6    R(2,13)            1.5046    1.5018    1.5074 estimate D2E/DX2         !
 ! R7    R(3,5)             1.395     1.3949    1.3978 estimate D2E/DX2         !
 ! R8    R(3,6)             1.0812    1.0813    1.0812 estimate D2E/DX2         !
 ! R9    R(4,5)             1.3959    1.3952    1.3981 estimate D2E/DX2         !
 ! R10   R(4,7)             1.0798    1.0799    1.0798 estimate D2E/DX2         !
 ! R11   R(5,8)             1.3375    1.3384    1.3366 estimate D2E/DX2         !
 ! R12   R(8,40)            0.9599    0.9598    0.9599 estimate D2E/DX2         !
 ! R13   R(9,39)            2.0011    1.945     2.0493 estimate D2E/DX2         !
 ! R14   R(10,11)           1.0909    1.0911    1.0907 estimate D2E/DX2         !
 ! R15   R(10,12)           1.092     1.0924    1.0916 estimate D2E/DX2         !
 ! R16   R(10,16)           1.4896    1.4888    1.4963 estimate D2E/DX2         !
 ! R17   R(13,14)           1.0909    1.0911    1.0907 estimate D2E/DX2         !
 ! R18   R(13,15)           1.0919    1.0923    1.0915 estimate D2E/DX2         !
 ! R19   R(13,17)           1.4953    1.4888    1.4962 estimate D2E/DX2         !
 ! R20   R(16,22)           1.4723    1.4719    1.4728 estimate D2E/DX2         !
 ! R21   R(16,26)           1.4772    1.4766    1.4777 estimate D2E/DX2         !
 ! R22   R(16,39)           2.1466    2.1387    2.1377 estimate D2E/DX2         !
 ! R23   R(17,30)           1.4723    1.4718    1.4727 estimate D2E/DX2         !
 ! R24   R(17,34)           1.4772    1.4767    1.4778 estimate D2E/DX2         !
 ! R25   R(17,39)           2.1352    2.1384    2.1364 estimate D2E/DX2         !
 ! R26   R(18,19)           1.1012    1.1026    1.0997 estimate D2E/DX2         !
 ! R27   R(18,20)           1.0897    1.0857    1.0937 estimate D2E/DX2         !
 ! R28   R(18,21)           1.0896    1.0857    1.0936 estimate D2E/DX2         !
 ! R29   R(18,38)           1.8425    1.1194    2.4847 estimate D2E/DX2         !
 ! R30   R(18,39)           2.2129    2.4183    2.06   estimate D2E/DX2         !
 ! R31   R(22,23)           1.0865    1.0871    1.0859 estimate D2E/DX2         !
 ! R32   R(22,24)           1.094     1.0945    1.0935 estimate D2E/DX2         !
 ! R33   R(22,25)           1.0868    1.0871    1.0865 estimate D2E/DX2         !
 ! R34   R(26,27)           1.0937    1.0946    1.0928 estimate D2E/DX2         !
 ! R35   R(26,28)           1.0871    1.087     1.0872 estimate D2E/DX2         !
 ! R36   R(26,29)           1.0888    1.0876    1.09   estimate D2E/DX2         !
 ! R37   R(30,31)           1.094     1.0944    1.0935 estimate D2E/DX2         !
 ! R38   R(30,32)           1.0865    1.0871    1.0859 estimate D2E/DX2         !
 ! R39   R(30,33)           1.0868    1.0871    1.0865 estimate D2E/DX2         !
 ! R40   R(34,35)           1.0871    1.087     1.0871 estimate D2E/DX2         !
 ! R41   R(34,36)           1.0937    1.0946    1.0928 estimate D2E/DX2         !
 ! R42   R(34,37)           1.0888    1.0876    1.09   estimate D2E/DX2         !
 ! R43   R(38,39)           1.7205    1.9589    1.5012 estimate D2E/DX2         !
 ! A1    A(3,1,9)         121.1763  120.9039  120.4934 estimate D2E/DX2         !
 ! A2    A(3,1,10)        126.066   125.6266  126.6009 estimate D2E/DX2         !
 ! A3    A(9,1,10)        112.5823  113.2485  112.7923 estimate D2E/DX2         !
 ! A4    A(4,2,9)         120.8079  120.9239  120.5241 estimate D2E/DX2         !
 ! A5    A(4,2,13)        125.6984  125.7037  126.6717 estimate D2E/DX2         !
 ! A6    A(9,2,13)        113.3453  113.1502  112.6935 estimate D2E/DX2         !
 ! A7    A(1,3,5)         118.1995  118.3323  117.813  estimate D2E/DX2         !
 ! A8    A(1,3,6)         120.8572  120.6     121.2354 estimate D2E/DX2         !
 ! A9    A(5,3,6)         120.943   121.0661  120.9512 estimate D2E/DX2         !
 ! A10   A(2,4,5)         118.3699  118.364   117.8407 estimate D2E/DX2         !
 ! A11   A(2,4,7)         121.5823  121.3922  122.0287 estimate D2E/DX2         !
 ! A12   A(5,4,7)         120.0466  120.2417  120.1303 estimate D2E/DX2         !
 ! A13   A(3,5,4)         119.6941  119.8719  120.4601 estimate D2E/DX2         !
 ! A14   A(3,5,8)         122.7628  122.7418  122.4828 estimate D2E/DX2         !
 ! A15   A(4,5,8)         117.3411  117.3829  117.057  estimate D2E/DX2         !
 ! A16   A(5,8,40)        111.1123  111.0462  111.1785 estimate D2E/DX2         !
 ! A17   A(1,9,2)         121.6364  121.5125  122.8571 estimate D2E/DX2         !
 ! A18   A(1,9,39)        119.655   119.0239  117.7569 estimate D2E/DX2         !
 ! A19   A(2,9,39)        117.7394  118.9687  117.6755 estimate D2E/DX2         !
 ! A20   A(1,10,11)       107.0672  106.6877  106.8686 estimate D2E/DX2         !
 ! A21   A(1,10,12)       111.8973  112.0355  111.9624 estimate D2E/DX2         !
 ! A22   A(1,10,16)       112.0099  111.9307  112.6948 estimate D2E/DX2         !
 ! A23   A(11,10,12)      107.5625  107.5609  107.6441 estimate D2E/DX2         !
 ! A24   A(11,10,16)      107.3968  107.5662  107.2763 estimate D2E/DX2         !
 ! A25   A(12,10,16)      110.6349  110.773   110.103  estimate D2E/DX2         !
 ! A26   A(2,13,14)       106.9769  106.6996  106.922  estimate D2E/DX2         !
 ! A27   A(2,13,15)       111.8395  111.9952  111.9142 estimate D2E/DX2         !
 ! A28   A(2,13,17)       112.2299  111.9329  112.6656 estimate D2E/DX2         !
 ! A29   A(14,13,15)      107.6123  107.5711  107.6766 estimate D2E/DX2         !
 ! A30   A(14,13,17)      107.4782  107.5463  107.2635 estimate D2E/DX2         !
 ! A31   A(15,13,17)      110.4362  110.8088  110.1132 estimate D2E/DX2         !
 ! A32   A(10,16,22)      108.6533  109.1388  108.7767 estimate D2E/DX2         !
 ! A33   A(10,16,26)      108.9045  108.9681  109.175  estimate D2E/DX2         !
 ! A34   A(10,16,39)      107.273   105.9726  107.1445 estimate D2E/DX2         !
 ! A35   A(22,16,26)      109.4416  109.1323  109.2783 estimate D2E/DX2         !
 ! A36   A(22,16,39)      116.2842  115.8869  117.492  estimate D2E/DX2         !
 ! A37   A(26,16,39)      106.0721  107.5426  104.709  estimate D2E/DX2         !
 ! A38   A(13,17,30)      108.9374  109.1316  108.7927 estimate D2E/DX2         !
 ! A39   A(13,17,34)      109.2319  108.9617  109.1348 estimate D2E/DX2         !
 ! A40   A(13,17,39)      106.3329  105.9378  107.0904 estimate D2E/DX2         !
 ! A41   A(30,17,34)      109.1289  109.1335  109.298  estimate D2E/DX2         !
 ! A42   A(30,17,39)      116.6585  115.9064  117.4987 estimate D2E/DX2         !
 ! A43   A(34,17,39)      106.3433  107.5686  104.7559 estimate D2E/DX2         !
 ! A44   A(19,18,20)      103.6947  108.3347  107.1514 estimate D2E/DX2         !
 ! A45   A(19,18,21)      106.9601  108.3393  107.1628 estimate D2E/DX2         !
 ! A46   A(19,18,38)      130.431   114.9355  144.4793 estimate D2E/DX2         !
 ! A47   A(19,18,39)       81.3073   62.0089  107.37   estimate D2E/DX2         !
 ! A48   A(20,18,21)      111.9417  111.0283  106.9717 estimate D2E/DX2         !
 ! A49   A(20,18,38)      101.4853  107.1119   93.6961 estimate D2E/DX2         !
 ! A50   A(20,18,39)      121.8347  124.318   113.8824 estimate D2E/DX2         !
 ! A51   A(21,18,38)      102.0111  107.1114   93.1976 estimate D2E/DX2         !
 ! A52   A(21,18,39)      121.8434  124.2562  113.9145 estimate D2E/DX2         !
 ! A53   A(16,22,23)      109.0211  109.0252  109.017  estimate D2E/DX2         !
 ! A54   A(16,22,24)      110.7908  110.9963  110.5852 estimate D2E/DX2         !
 ! A55   A(16,22,25)      109.372   109.432   109.3118 estimate D2E/DX2         !
 ! A56   A(23,22,24)      108.9677  108.7773  109.1582 estimate D2E/DX2         !
 ! A57   A(23,22,25)      109.0234  109.0151  109.0316 estimate D2E/DX2         !
 ! A58   A(24,22,25)      109.6371  109.5626  109.7111 estimate D2E/DX2         !
 ! A59   A(16,26,27)      110.5042  110.3904  110.6182 estimate D2E/DX2         !
 ! A60   A(16,26,28)      109.324   109.4843  109.1638 estimate D2E/DX2         !
 ! A61   A(16,26,29)      109.8065  109.7668  109.8462 estimate D2E/DX2         !
 ! A62   A(27,26,28)      109.1759  109.0745  109.2775 estimate D2E/DX2         !
 ! A63   A(27,26,29)      109.015   109.2689  108.7612 estimate D2E/DX2         !
 ! A64   A(28,26,29)      108.9899  108.829   109.1509 estimate D2E/DX2         !
 ! A65   A(17,30,31)      110.7856  110.9863  110.5847 estimate D2E/DX2         !
 ! A66   A(17,30,32)      109.0275  109.0403  109.0148 estimate D2E/DX2         !
 ! A67   A(17,30,33)      109.3657  109.4312  109.3    estimate D2E/DX2         !
 ! A68   A(31,30,32)      108.9784  108.7804  109.1765 estimate D2E/DX2         !
 ! A69   A(31,30,33)      109.6295  109.5533  109.7053 estimate D2E/DX2         !
 ! A70   A(32,30,33)      109.0256  109.0173  109.0338 estimate D2E/DX2         !
 ! A71   A(17,34,35)      109.3298  109.492   109.1678 estimate D2E/DX2         !
 ! A72   A(17,34,36)      110.4991  110.3917  110.6066 estimate D2E/DX2         !
 ! A73   A(17,34,37)      109.802   109.767   109.8371 estimate D2E/DX2         !
 ! A74   A(35,34,36)      109.1807  109.0775  109.284  estimate D2E/DX2         !
 ! A75   A(35,34,37)      109.0058  108.8417  109.17   estimate D2E/DX2         !
 ! A76   A(36,34,37)      108.9985  109.2441  108.753  estimate D2E/DX2         !
 ! A77   A(18,38,39)       76.7028   99.9475   55.8894 estimate D2E/DX2         !
 ! A78   A(9,39,16)        79.8683   81.8416   80.6008 estimate D2E/DX2         !
 ! A79   A(9,39,17)        81.5777   81.8676   80.6388 estimate D2E/DX2         !
 ! A80   L(9,39,18,16,-1)  176.783  179.7278  179.632  estimate D2E/DX2         !
 ! A81   L(9,39,18,16,-2)  182.8115  183.5325  184.1937 estimate D2E/DX2        !
 ! A82   A(9,39,38)       128.8433  156.3827   97.157  estimate D2E/DX2         !
 ! A83   A(16,39,17)      159.161   161.7734  158.9576 estimate D2E/DX2         !
 ! A84   A(16,39,18)       96.9148   97.8862   99.0312 estimate D2E/DX2         !
 ! A85   A(16,39,38)       97.9351   99.096    95.8631 estimate D2E/DX2         !
 ! A86   A(17,39,18)      101.1063   97.8725   98.9868 estimate D2E/DX2         !
 ! A87   A(17,39,38)      101.0622   99.1065   95.8452 estimate D2E/DX2         !
 ! A88   A(18,39,38)       54.127    27.1259   86.9989 estimate D2E/DX2         !
 ! D1    D(9,1,3,5)        -0.5328    0.8373    0.1739 estimate D2E/DX2         !
 ! D2    D(9,1,3,6)       179.6658 -179.6143 -179.603  estimate D2E/DX2         !
 ! D3    D(10,1,3,5)     -175.3521 -173.3871 -175.6655 estimate D2E/DX2         !
 ! D4    D(10,1,3,6)        4.8466    6.1613    4.5576 estimate D2E/DX2         !
 ! D5    D(3,1,9,2)        -2.2298   -3.2132   -1.0666 estimate D2E/DX2         !
 ! D6    D(3,1,9,39)      166.2503  168.6317  163.6683 estimate D2E/DX2         !
 ! D7    D(10,1,9,2)      173.2361  171.6793  175.3112 estimate D2E/DX2         !
 ! D8    D(10,1,9,39)     -18.2838  -16.4758  -19.954  estimate D2E/DX2         !
 ! D9    D(3,1,10,11)      89.6722   87.7407   91.9313 estimate D2E/DX2         !
 ! D10   D(3,1,10,12)     -27.9469  -29.7202  -25.7009 estimate D2E/DX2         !
 ! D11   D(3,1,10,16)    -152.847  -154.8494 -150.4757 estimate D2E/DX2         !
 ! D12   D(9,1,10,11)     -85.5281  -86.867   -84.1804 estimate D2E/DX2         !
 ! D13   D(9,1,10,12)     156.8528  155.6721  158.1874 estimate D2E/DX2         !
 ! D14   D(9,1,10,16)      31.9526   30.543    33.4126 estimate D2E/DX2         !
 ! D15   D(9,2,4,5)         0.506    -0.9818   -0.2664 estimate D2E/DX2         !
 ! D16   D(9,2,4,7)      -179.8908  179.5346  179.5591 estimate D2E/DX2         !
 ! D17   D(13,2,4,5)      175.776   173.2197  175.6186 estimate D2E/DX2         !
 ! D18   D(13,2,4,7)       -4.6208   -6.2639   -4.5559 estimate D2E/DX2         !
 ! D19   D(4,2,9,1)         2.2427    3.2899    1.1154 estimate D2E/DX2         !
 ! D20   D(4,2,9,39)     -166.4492 -168.5594 -163.6311 estimate D2E/DX2         !
 ! D21   D(13,2,9,1)     -173.5746 -171.591  -175.3078 estimate D2E/DX2         !
 ! D22   D(13,2,9,39)      17.7335   16.5597   19.9457 estimate D2E/DX2         !
 ! D23   D(4,2,13,14)     -90.2544  -88.0093  -92.305  estimate D2E/DX2         !
 ! D24   D(4,2,13,15)      27.3377   29.4491   25.3728 estimate D2E/DX2         !
 ! D25   D(4,2,13,17)     152.0992  154.5963  150.1004 estimate D2E/DX2         !
 ! D26   D(9,2,13,14)      85.3215   86.582    83.8532 estimate D2E/DX2         !
 ! D27   D(9,2,13,15)    -157.0864 -155.9596 -158.469  estimate D2E/DX2         !
 ! D28   D(9,2,13,17)     -32.325   -30.8123  -33.7414 estimate D2E/DX2         !
 ! D29   D(1,3,5,4)         3.2122    1.3904    0.6304 estimate D2E/DX2         !
 ! D30   D(1,3,5,8)       177.9075 -179.2996 -179.2657 estimate D2E/DX2         !
 ! D31   D(6,3,5,4)      -176.9866 -178.1558 -179.5921 estimate D2E/DX2         !
 ! D32   D(6,3,5,8)        -2.2913    1.1542    0.5119 estimate D2E/DX2         !
 ! D33   D(2,4,5,3)        -3.1977   -1.3192   -0.585  estimate D2E/DX2         !
 ! D34   D(2,4,5,8)      -178.1766  179.3344  179.3165 estimate D2E/DX2         !
 ! D35   D(7,4,5,3)       177.1928  178.1706  179.586  estimate D2E/DX2         !
 ! D36   D(7,4,5,8)         2.2139   -1.1758   -0.5124 estimate D2E/DX2         !
 ! D37   D(3,5,8,40)      -11.325     0.2325    0.0358 estimate D2E/DX2         !
 ! D38   D(4,5,8,40)      163.4877  179.5587 -179.8636 estimate D2E/DX2         !
 ! D39   D(1,9,39,16)       1.1335   -0.0976    2.5483 estimate D2E/DX2         !
 ! D40   D(1,9,39,17)    -169.3361 -171.8958 -167.8781 estimate D2E/DX2         !
 ! D41   D(1,9,39,38)      93.2055   93.9604   97.342  estimate D2E/DX2         !
 ! D42   D(2,9,39,16)     170.0577  171.9571  168.0862 estimate D2E/DX2         !
 ! D43   D(2,9,39,17)      -0.4119    0.1589   -2.3402 estimate D2E/DX2         !
 ! D44   D(2,9,39,38)     -97.8703  -93.9849  -97.1201 estimate D2E/DX2         !
 ! D45   D(1,10,16,22)   -155.8183 -153.7858 -157.4449 estimate D2E/DX2         !
 ! D46   D(1,10,16,26)     85.0423   87.128    83.3837 estimate D2E/DX2         !
 ! D47   D(1,10,16,39)    -29.3474  -28.3332  -29.4839 estimate D2E/DX2         !
 ! D48   D(11,10,16,22)   -38.5349  -36.9039  -40.0928 estimate D2E/DX2         !
 ! D49   D(11,10,16,26)  -157.6743 -155.99   -159.2642 estimate D2E/DX2         !
 ! D50   D(11,10,16,39)    87.936    88.5488   87.8682 estimate D2E/DX2         !
 ! D51   D(12,10,16,22)    78.5863   80.3906   76.7697 estimate D2E/DX2         !
 ! D52   D(12,10,16,26)   -40.5531  -38.6956  -42.4017 estimate D2E/DX2         !
 ! D53   D(12,10,16,39)  -154.9428 -154.1567 -155.2692 estimate D2E/DX2         !
 ! D54   D(2,13,17,30)    156.203   154.0987  157.9131 estimate D2E/DX2         !
 ! D55   D(2,13,17,34)    -84.6783  -86.8216  -82.9057 estimate D2E/DX2         !
 ! D56   D(2,13,17,39)     29.7018   28.6486   29.9696 estimate D2E/DX2         !
 ! D57   D(14,13,17,30)    38.8551   37.2132   40.5202 estimate D2E/DX2         !
 ! D58   D(14,13,17,34)   157.9739  156.2929  159.7014 estimate D2E/DX2         !
 ! D59   D(14,13,17,39)   -87.646   -88.2369  -87.4232 estimate D2E/DX2         !
 ! D60   D(15,13,17,30)   -78.2649  -80.1015  -76.3791 estimate D2E/DX2         !
 ! D61   D(15,13,17,34)    40.8538   38.9781   42.8021 estimate D2E/DX2         !
 ! D62   D(15,13,17,39)   155.2339  154.4483  155.6774 estimate D2E/DX2         !
 ! D63   D(10,16,22,23)  -176.3797 -176.8676 -176.3252 estimate D2E/DX2         !
 ! D64   D(10,16,22,24)   -56.4692  -57.063   -56.3089 estimate D2E/DX2         !
 ! D65   D(10,16,22,25)    64.4975   63.9818   64.58   estimate D2E/DX2         !
 ! D66   D(26,16,22,23)   -57.5777  -57.8835  -57.2184 estimate D2E/DX2         !
 ! D67   D(26,16,22,24)    62.3329   61.9211   62.7979 estimate D2E/DX2         !
 ! D68   D(26,16,22,25)  -176.7004 -177.0341 -176.3132 estimate D2E/DX2         !
 ! D69   D(39,16,22,23)    62.5395   63.6485   61.8106 estimate D2E/DX2         !
 ! D70   D(39,16,22,24)  -177.55   -176.547  -178.1731 estimate D2E/DX2         !
 ! D71   D(39,16,22,25)   -56.5832  -55.5022  -57.2842 estimate D2E/DX2         !
 ! D72   D(10,16,26,27)    61.278    62.6993   60.5554 estimate D2E/DX2         !
 ! D73   D(10,16,26,28)  -178.5392 -177.2124 -179.1673 estimate D2E/DX2         !
 ! D74   D(10,16,26,29)   -59.0142  -57.8104  -59.5194 estimate D2E/DX2         !
 ! D75   D(22,16,26,27)   -57.3681  -56.391   -58.3041 estimate D2E/DX2         !
 ! D76   D(22,16,26,28)    62.8147   63.6974   61.9732 estimate D2E/DX2         !
 ! D77   D(22,16,26,29)  -177.6604 -176.9007 -178.3789 estimate D2E/DX2         !
 ! D78   D(39,16,26,27)   176.4468  177.1444  175.0093 estimate D2E/DX2         !
 ! D79   D(39,16,26,28)   -63.3703  -62.7672  -64.7134 estimate D2E/DX2         !
 ! D80   D(39,16,26,29)    56.1546   56.6347   54.9345 estimate D2E/DX2         !
 ! D81   D(10,16,39,9)     15.8009   16.0334   15.064  estimate D2E/DX2         !
 ! D82   D(10,16,39,17)    43.214    42.8751   42.2593 estimate D2E/DX2         !
 ! D83   D(10,16,39,18)  -167.0106 -167.4991 -169.1297 estimate D2E/DX2         !
 ! D84   D(10,16,39,38)  -112.3969 -140.0935  -81.2484 estimate D2E/DX2         !
 ! D85   D(22,16,39,9)    137.6135  137.2291  137.7657 estimate D2E/DX2         !
 ! D86   D(22,16,39,17)   165.0266  164.0708  164.9611 estimate D2E/DX2         !
 ! D87   D(22,16,39,18)   -45.198   -46.3034  -46.428  estimate D2E/DX2         !
 ! D88   D(22,16,39,38)     9.4157  -18.8978   41.4533 estimate D2E/DX2         !
 ! D89   D(26,16,39,9)   -100.4742 -100.3942 -100.8077 estimate D2E/DX2         !
 ! D90   D(26,16,39,17)   -73.0611  -73.5525  -73.6123 estimate D2E/DX2         !
 ! D91   D(26,16,39,18)    76.7143   76.0733   74.9986 estimate D2E/DX2         !
 ! D92   D(26,16,39,38)   131.328   103.4788  162.8799 estimate D2E/DX2         !
 ! D93   D(13,17,30,31)    56.7326   56.9612   56.1984 estimate D2E/DX2         !
 ! D94   D(13,17,30,32)   176.6572  176.7731  176.2355 estimate D2E/DX2         !
 ! D95   D(13,17,30,33)   -64.2173  -64.065   -64.6753 estimate D2E/DX2         !
 ! D96   D(34,17,30,31)   -62.4503  -62.0115  -62.8806 estimate D2E/DX2         !
 ! D97   D(34,17,30,32)    57.4742   57.8004   57.1564 estimate D2E/DX2         !
 ! D98   D(34,17,30,33)   176.5998  176.9622  176.2456 estimate D2E/DX2         !
 ! D99   D(39,17,30,31)   177.0592  176.4077  178.0081 estimate D2E/DX2         !
 ! D100  D(39,17,30,32)   -63.0163  -63.7804  -61.9548 estimate D2E/DX2         !
 ! D101  D(39,17,30,33)    56.1093   55.3814   57.1344 estimate D2E/DX2         !
 ! D102  D(13,17,34,35)   178.1555  177.1488  179.2021 estimate D2E/DX2         !
 ! D103  D(13,17,34,36)   -61.6552  -62.7534  -60.5173 estimate D2E/DX2         !
 ! D104  D(13,17,34,37)    58.6103   57.7265   59.534  estimate D2E/DX2         !
 ! D105  D(30,17,34,35)   -62.8447  -63.7727  -61.9311 estimate D2E/DX2         !
 ! D106  D(30,17,34,36)    57.3446   56.3251   58.3495 estimate D2E/DX2         !
 ! D107  D(30,17,34,37)   177.6102  176.805   178.4008 estimate D2E/DX2         !
 ! D108  D(39,17,34,35)    63.7822   62.7342   64.8048 estimate D2E/DX2         !
 ! D109  D(39,17,34,36)  -176.0286 -177.168  -174.9146 estimate D2E/DX2         !
 ! D110  D(39,17,34,37)   -55.763   -56.6881  -54.8632 estimate D2E/DX2         !
 ! D111  D(13,17,39,9)    -16.3547  -16.2258  -15.4125 estimate D2E/DX2         !
 ! D112  D(13,17,39,16)   -43.6234  -43.0656  -42.6046 estimate D2E/DX2         !
 ! D113  D(13,17,39,18)   166.9916  167.3075  168.7802 estimate D2E/DX2         !
 ! D114  D(13,17,39,38)   111.7489  139.9031   80.9059 estimate D2E/DX2         !
 ! D115  D(30,17,39,9)   -138.0586 -137.3989 -138.0959 estimate D2E/DX2         !
 ! D116  D(30,17,39,16)  -165.3273 -164.2386 -165.2881 estimate D2E/DX2         !
 ! D117  D(30,17,39,18)    45.2877   46.1345   46.0967 estimate D2E/DX2         !
 ! D118  D(30,17,39,38)    -9.955    18.7301  -41.7776 estimate D2E/DX2         !
 ! D119  D(34,17,39,9)     99.981   100.1895  100.4117 estimate D2E/DX2         !
 ! D120  D(34,17,39,16)    72.7124   73.3497   73.2196 estimate D2E/DX2         !
 ! D121  D(34,17,39,18)   -76.6726  -76.2772  -75.3957 estimate D2E/DX2         !
 ! D122  D(34,17,39,38)  -131.9153 -103.6816 -163.2699 estimate D2E/DX2         !
 ! D123  D(19,18,38,39)     3.0239    0.0414   -0.8613 estimate D2E/DX2         !
 ! D124  D(20,18,38,39)   122.397   120.4466  125.9457 estimate D2E/DX2         !
 ! D125  D(21,18,38,39)  -121.9409 -120.3693 -126.8024 estimate D2E/DX2         !
 ! D126  D(19,18,39,16)   -82.8583  -85.3889  -85.059  estimate D2E/DX2         !
 ! D127  D(19,18,39,17)    86.6265   85.4241   84.0268 estimate D2E/DX2         !
 ! D128  D(19,18,39,38)  -177.6719 -179.9575  179.4757 estimate D2E/DX2         !
 ! D129  D(20,18,39,16)    17.9183    8.5394   33.393  estimate D2E/DX2         !
 ! D130  D(20,18,39,17)  -172.5968  179.3523 -157.5212 estimate D2E/DX2         !
 ! D131  D(20,18,39,38)   -76.8953  -86.0292  -62.0723 estimate D2E/DX2         !
 ! D132  D(21,18,39,16)   172.5208 -179.3531  156.4556 estimate D2E/DX2         !
 ! D133  D(21,18,39,17)   -17.9943   -8.5402  -34.4586 estimate D2E/DX2         !
 ! D134  D(21,18,39,38)    77.7072   86.0782   60.9903 estimate D2E/DX2         !
 ! D135  D(18,38,39,9)   -176.1711 -179.9807  179.9962 estimate D2E/DX2         !
 ! D136  D(18,38,39,16)   -92.8208  -89.5554  -98.7794 estimate D2E/DX2         !
 ! D137  D(18,38,39,17)    95.7875   89.5046   98.7354 estimate D2E/DX2         !
 --------------------------------------------------------------------------------
 Trust Radius=3.00D-01 FncErr=1.00D-07 GrdErr=1.00D-06 EigMax=2.50D+02 EigMin=1.00D-04
 Number of steps in this run=    240 maximum allowed number of steps=    240.
 Search for a saddle point of order  1.
 GradGradGradGradGradGradGradGradGradGradGradGradGradGradGradGradGradGrad

                          Input orientation:                          
 ---------------------------------------------------------------------
 Center     Atomic      Atomic             Coordinates (Angstroms)
 Number     Number       Type             X           Y           Z
 ---------------------------------------------------------------------
      1          6           0        1.487753    1.156468   -0.199628
      2          6           0        1.474972   -1.168873   -0.211538
      3          6           0        2.853169    1.193362   -0.024862
      4          6           0        2.838215   -1.219795   -0.036996
      5          6           0        3.535719   -0.017605    0.092210
      6          1           0        3.380802    2.135873    0.023485
      7          1           0        3.367964   -2.159701    0.007366
      8          8           0        4.864812   -0.089582    0.223516
      9          7           0        0.834951    0.003753   -0.266396
     10          6           0        0.599561    2.333793   -0.441065
     11          1           0        0.548579    2.480296   -1.520891
     12          1           0        1.006720    3.247644   -0.003418
     13          6           0        0.576502   -2.350567   -0.456848
     14          1           0        0.518440   -2.487648   -1.537552
     15          1           0        0.985979   -3.267924   -0.028980
     16          7           0       -0.788975    2.093891    0.041878
     17          7           0       -0.813805   -2.117232    0.041587
     18          6           0       -3.350696    0.077911    0.189490
     19          1           0       -3.039288    0.106571    1.245317
     20          1           0       -3.909168    1.004593    0.059995
     21          1           0       -3.984877   -0.799913    0.068862
     22          6           0       -1.705616    2.970673   -0.705618
     23          1           0       -2.711572    2.847432   -0.314057
     24          1           0       -1.410122    4.019014   -0.603182
     25          1           0       -1.697234    2.689750   -1.755471
     26          6           0       -0.858693    2.421856    1.480489
     27          1           0       -0.616967    3.475690    1.645320
     28          1           0       -1.863235    2.224494    1.846172
     29          1           0       -0.152584    1.805139    2.034117
     30          6           0       -1.739322   -2.992176   -0.697010
     31          1           0       -1.444547   -4.041008   -0.597800
     32          1           0       -2.741232   -2.867241   -0.295648
     33          1           0       -1.740607   -2.711022   -1.746840
     34          6           0       -0.877338   -2.449366    1.479595
     35          1           0       -1.879157   -2.249249    1.851204
     36          1           0       -0.638768   -3.504602    1.639852
     37          1           0       -0.165686   -1.837339    2.031296
     38          1           0       -2.343365    0.038057   -1.352785
     39         45           0       -1.159545   -0.015323   -0.105438
     40          1           0        5.275870    0.760368    0.050433
 ---------------------------------------------------------------------
                    Distance matrix (angstroms):
                    1          2          3          4          5
     1  C    0.000000
     2  C    2.325406   0.000000
     3  C    1.377049   2.741246   0.000000
     4  C    2.738032   1.375314   2.413234   0.000000
     5  C    2.378608   2.379991   1.394999   1.395875   0.000000
     6  H    2.143046   3.822142   1.081231   3.399789   2.160136
     7  H    3.817724   2.147807   3.392505   1.079827   2.150330
     8  O    3.624392   3.584014   2.398822   2.335025   1.337502
     9  N    1.326409   1.337044   2.355147   2.358551   2.724556
    10  C    1.494413   3.617692   2.559796   4.219340   3.799273
    11  H    2.092918   3.986107   3.034046   4.597288   4.214808
    12  H    2.154741   4.446144   2.762228   4.828406   4.131202
    13  C    3.632607   1.504602   4.234296   2.563253   3.808037
    14  H    4.001149   2.100580   4.614004   3.039816   4.226253
    15  H    4.456023   2.162974   4.836268   2.761463   4.132849
    16  N    2.473980   3.979359   3.752415   4.913577   4.812891
    17  N    4.009048   2.490373   4.940764   3.761492   4.830047
    18  C    4.972453   5.000237   6.306990   6.327556   6.887765
    19  H    4.866647   4.911998   6.124991   6.160245   6.676510
    20  H    5.405296   5.812628   6.765503   7.105243   7.514803
    21  H    5.818006   5.479481   7.123259   6.836819   7.561212
    22  C    3.707421   5.243672   4.940120   6.217192   6.085879
    23  H    4.528442   5.802445   5.812566   6.886163   6.884921
    24  H    4.093252   5.949062   5.147273   6.768609   6.421776
    25  H    3.862091   5.228345   5.093167   6.229607   6.174746
    26  C    3.151160   4.604594   4.189654   5.406617   5.214321
    27  H    3.634896   5.421816   4.476647   6.067622   5.644471
    28  H    4.068796   5.185821   5.177690   6.124792   6.103449
    29  H    2.846243   4.066528   3.694350   4.731238   4.549393
    30  C    5.279456   3.727171   6.249919   4.952858   6.107127
    31  H    5.980859   4.113630   6.796856   5.159050   6.439483
    32  H    5.838130   4.546197   6.918031   5.823333   6.904417
    33  H    5.270071   3.882696   6.269945   5.110082   6.202920
    34  C    4.627686   3.167484   5.426743   4.197288   5.226219
    35  H    5.209693   4.083173   6.145413   5.184464   6.115159
    36  H    5.443469   3.653926   6.085702   4.485708   5.655147
    37  H    4.083351   2.858130   4.746201   3.699001   4.557618
    38  H    4.154285   4.163992   5.486536   5.492019   6.054316
    39  Rh   2.896576   2.877954   4.191573   4.175826   4.699423
    40  H    3.816969   4.270530   2.462242   3.141791   1.906597
                    6          7          8          9         10
     6  H    0.000000
     7  H    4.295624   0.000000
     8  O    2.682340   2.563722   0.000000
     9  N    3.333366   3.342399   4.060605   0.000000
    10  C    2.826708   5.296851   4.950433   2.348405   0.000000
    11  H    3.244259   5.640397   5.317622   2.790884   1.090911
    12  H    2.621645   5.900421   5.106217   3.259063   1.091988
    13  C    5.312529   2.836226   4.895360   2.376108   4.684443
    14  H    5.657464   3.257930   5.267166   2.814799   4.945215
    15  H    5.910918   2.627419   5.021051   3.283754   5.630130
    16  N    4.170029   5.947636   6.063485   2.664741   1.489570
    17  N    5.973605   4.182124   6.032508   2.704038   4.694910
    18  C    7.041011   7.083818   8.217286   4.211054   4.592509
    19  H    6.843135   6.908067   7.972286   4.159997   4.587551
    20  H    7.377316   7.935501   8.843454   4.859514   4.727205
    21  H    7.929321   7.477772   8.879499   4.897859   5.576487
    22  C    5.205779   7.250538   7.307461   3.930650   2.406127
    23  H    6.143067   7.882604   8.143503   4.546054   3.353142
    24  H    5.185739   7.834501   7.545781   4.612603   2.627752
    25  H    5.409059   7.230560   7.396048   3.980438   2.670138
    26  C    4.491989   6.405106   6.375407   3.430344   2.413842
    27  H    4.517479   7.093673   6.691980   4.221027   2.671493
    28  H    5.552474   7.068792   7.297574   4.083484   3.362851
    29  H    4.078829   5.676437   5.660610   3.084246   2.640402
    30  C    7.282285   5.222406   7.272345   3.973399   5.822528
    31  H    7.862814   5.202480   7.489749   4.654678   6.696344
    32  H    7.912793   6.157491   8.113989   4.586125   6.183267
    33  H    7.270163   5.429428   7.374674   4.024328   5.712407
    34  C    6.424673   4.502660   6.333924   3.463843   5.361788
    35  H    7.087808   5.562376   7.265992   4.114198   5.692347
    36  H    7.112282   4.530747   6.630065   4.256076   6.320643
    37  H    5.691686   4.084959   5.623934   3.109707   4.908819
    38  H    6.249884   6.268926   7.379623   3.359034   3.842194
    39  Rh   5.025835   5.010930   6.033789   2.001071   2.953886
    40  H    2.341799   3.488376   0.959866   4.516040   4.958337
                   11         12         13         14         15
    11  H    0.000000
    12  H    1.761090   0.000000
    13  C    4.946737   5.632997   0.000000
    14  H    4.968064   5.956975   1.090910   0.000000
    15  H    5.954758   6.515651   1.091918   1.761594   0.000000
    16  N    2.092989   2.134881   4.676159   5.019405   5.648410
    17  N    5.043282   5.665530   1.495271   2.098991   2.137356
    18  C    4.888886   5.391799   4.662419   4.953280   5.481705
    19  H    5.114613   5.272177   4.691357   5.208815   5.404981
    20  H    4.954635   5.403818   5.625430   5.861025   6.498059
    21  H    5.817157   6.426817   4.846348   5.070393   5.550681
    22  C    2.446739   2.815415   5.795304   5.952462   6.828075
    23  H    3.495686   3.752647   6.152318   6.355549   7.151974
    24  H    2.654497   2.606886   6.673804   6.850479   7.692235
    25  H    2.267725   3.269909   5.679885   5.635792   6.758275
    26  C    3.315436   2.522632   5.346876   5.925226   6.168866
    27  H    3.517698   2.325232   6.307832   6.854285   7.130851
    28  H    4.149626   3.564331   5.673395   6.271065   6.465359
    29  H    3.685858   2.752518   4.899629   5.624510   5.593626
    30  C    5.988424   6.852530   2.415032   2.461412   2.819497
    31  H    6.881283   7.712745   2.638579   2.673832   2.613173
    32  H    6.396892   7.178047   3.361591   3.508828   3.758159
    33  H    5.678134   6.789184   2.676379   2.279691   3.270390
    34  C    5.944554   6.181013   2.423473   3.324581   2.533334
    35  H    6.295516   6.479486   3.371592   4.158001   3.575163
    36  H    6.871615   7.141484   2.684181   3.531179   2.341115
    37  H    5.636504   5.601039   2.646716   3.691559   2.760007
    38  H    3.788949   4.831699   3.877352   3.821420   4.875089
    39  Rh   3.339058   3.917915   2.930993   3.313454   3.897247
    40  H    5.270151   4.941162   5.658561   5.975320   5.885288
                   16         17         18         19         20
    16  N    0.000000
    17  N    4.211196   0.000000
    18  C    3.263186   3.358027   0.000000
    19  H    3.234442   3.368537   1.101166   0.000000
    20  H    3.304921   4.396294   1.089678   1.722824   0.000000
    21  H    4.311452   3.433915   1.089638   1.760652   1.806115
    22  C    1.472321   5.219235   3.446096   3.713207   3.050783
    23  H    2.095446   5.326903   2.886570   3.170389   2.229396
    24  H    2.123212   6.198777   4.463905   4.623672   3.971369
    25  H    2.100106   5.207392   3.652193   4.180747   3.320891
    26  C    1.477168   4.761909   3.656615   3.189176   3.651279
    27  H    2.123672   5.821639   4.597566   4.168765   4.411141
    28  H    2.103942   4.817512   3.092727   2.495942   2.977320
    29  H    2.111252   4.448863   4.076013   3.440987   4.318559
    30  C    5.226585   1.472289   3.578805   3.881337   4.610364
    31  H    6.202898   2.123103   4.606379   4.810684   5.653772
    32  H    5.342102   2.095523   3.046429   3.362583   4.059760
    33  H    5.214623   2.100004   3.757647   4.310267   4.666165
    34  C    4.766132   1.477233   3.764173   3.355850   4.810103
    35  H    4.829599   2.104072   3.215960   2.694975   4.232832
    36  H    5.824020   2.123649   4.721494   4.354161   5.790017
    37  H    4.449813   2.111242   4.147857   3.557265   5.096691
    38  H    2.930472   2.988159   1.842530   2.690564   2.319887
    39  Rh   2.146580   2.135223   2.212876   2.317936   2.937349
    40  H    6.209726   6.735340   8.654637   8.425975   9.188289
                   21         22         23         24         25
    21  H    0.000000
    22  C    4.473496   0.000000
    23  H    3.882146   1.086488   0.000000
    24  H    5.504822   1.093997   1.774816   0.000000
    25  H    4.554037   1.086820   1.769581   1.782455   0.000000
    26  C    4.705902   2.407809   2.614321   2.682662   3.353559
    27  H    5.666464   2.639529   2.936195   2.445416   3.653773
    28  H    4.099663   2.663318   2.402981   3.070008   3.635361
    29  H    5.033387   3.358054   3.626116   3.665787   4.186819
    30  C    3.230341   5.962951   5.932365   7.019542   5.779827
    31  H    4.171620   7.017368   7.009741   8.060097   6.834263
    32  H    2.439953   5.943216   5.714780   7.020466   5.839620
    33  H    3.462060   5.776420   5.821688   6.834512   5.400953
    34  C    3.790470   5.902374   5.885378   6.816287   6.127674
    35  H    3.116309   5.815071   5.599771   6.747973   6.118408
    36  H    4.580371   6.969116   6.961509   7.888662   7.142728
    37  H    4.417422   5.742740   5.824886   6.541098   6.097522
    38  H    2.327625   3.070145   3.017801   4.157027   2.758825
    39  Rh   2.937425   3.094282   3.263077   4.072642   3.213897
    40  H    9.391287   7.361943   8.263651   7.466491   7.457076
                   26         27         28         29         30
    26  C    0.000000
    27  H    1.093694   0.000000
    28  H    1.087097   1.777362   0.000000
    29  H    1.088776   1.776951   1.771301   0.000000
    30  C    5.901589   6.969898   5.804893   5.743781   0.000000
    31  H    6.814038   7.887789   6.738310   6.540151   1.093975
    32  H    5.888392   6.965101   5.593214   5.827524   1.086519
    33  H    6.126978   7.144558   6.106070   6.100258   1.086826
    34  C    4.871258   5.933089   4.790756   4.351272   2.403179
    35  H    4.795623   5.866041   4.473775   4.410506   2.657987
    36  H    5.932678   6.980328   5.862118   5.346510   2.633386
    37  H    4.350217   5.346111   4.406181   3.642502   3.354644
    38  H    3.989260   4.877131   3.904403   4.403772   3.158674
    39  Rh   2.923272   3.942932   3.052989   2.984249   3.089944
    40  H    6.514481   6.681479   7.505676   5.873216   7.990819
                   31         32         33         34         35
    31  H    0.000000
    32  H    1.774941   0.000000
    33  H    1.782360   1.769636   0.000000
    34  C    2.677801   2.607721   3.350161   0.000000
    35  H    3.065438   2.394590   3.630200   1.087098   0.000000
    36  H    2.438052   2.927925   3.648767   1.093673   1.777398
    37  H    3.661118   3.620608   4.185452   1.088761   1.771464
    38  H    4.244602   3.117145   2.841835   4.044612   3.963938
    39  Rh   4.065684   3.266703   3.209147   2.918311   3.055604
    40  H    8.284771   8.806432   8.031917   7.085680   7.968374
                   36         37         38         39         40
    36  H    0.000000
    37  H    1.776739   0.000000
    38  H    4.940846   4.439752   0.000000
    39  Rh   3.936028   2.978780   1.720510   0.000000
    40  H    7.463188   6.346844   7.780971   6.483869   0.000000
 Stoichiometry    C12H23N3ORh(1+)
 Framework group  C1[X(C12H23N3ORh)]
 Deg. of freedom   114
 Full point group                 C1      NOp   1
 Largest Abelian subgroup         C1      NOp   1
 Largest concise Abelian subgroup C1      NOp   1
                         Standard orientation:                         
 ---------------------------------------------------------------------
 Center     Atomic      Atomic             Coordinates (Angstroms)
 Number     Number       Type             X           Y           Z
 ---------------------------------------------------------------------
      1          6           0       -1.520153   -1.157545   -0.205577
      2          6           0       -1.501084    1.167760   -0.216048
      3          6           0       -2.885364   -1.190848   -0.028507
      4          6           0       -2.863885    1.222267   -0.039150
      5          6           0       -3.564426    0.021891    0.090490
      6          1           0       -3.415469   -2.131954    0.020148
      7          1           0       -3.391006    2.163579    0.006705
      8          8           0       -4.893094    0.097390    0.224107
      9          7           0       -0.864340   -0.006562   -0.272733
     10          6           0       -0.635570   -2.337121   -0.449267
     11          1           0       -0.586824   -2.483078   -1.529270
     12          1           0       -1.044460   -3.250141   -0.011501
     13          6           0       -0.599831    2.347169   -0.462146
     14          1           0       -0.543238    2.484775   -1.542862
     15          1           0       -1.006089    3.265361   -0.033005
     16          7           0        0.754432   -2.101290    0.031459
     17          7           0        0.790685    2.109749    0.033770
     18          6           0        3.321860   -0.092358    0.175970
     19          1           0        3.012174   -0.120841    1.232308
     20          1           0        3.877595   -1.020468    0.044941
     21          1           0        3.958214    0.783819    0.054813
     22          6           0        1.667417   -2.980081   -0.718150
     23          1           0        2.674370   -2.859816   -0.328227
     24          1           0        1.369256   -4.027682   -0.615868
     25          1           0        1.658010   -2.698472   -1.767810
     26          6           0        0.825710   -2.430353    1.469743
     27          1           0        0.581408   -3.483632    1.634324
     28          1           0        1.831405   -2.235948    1.833837
     29          1           0        0.122221   -1.812074    2.024961
     30          6           0        1.717312    2.982648   -0.705853
     31          1           0        1.425553    4.032212   -0.605482
     32          1           0        2.719562    2.854742   -0.306279
     33          1           0        1.716047    2.702155   -1.755860
     34          6           0        0.857567    2.440800    1.471876
     35          1           0        1.859471    2.237732    1.841652
     36          1           0        0.622134    3.496577    1.633203
     37          1           0        0.145198    1.830355    2.024405
     38          1           0        2.312016   -0.048796   -1.364561
     39         45           0        1.130471    0.007003   -0.115164
     40          1           0       -5.306750   -0.751333    0.051190
 ---------------------------------------------------------------------
 Rotational constants (GHZ):           0.5379954           0.3568624           0.2365730
 Standard basis: def2TZVPP (5D, 7F)
 There are   992 symmetry adapted cartesian basis functions of A   symmetry.
 There are   874 symmetry adapted basis functions of A   symmetry.
   874 basis functions,  1306 primitive gaussians,   992 cartesian basis functions
    70 alpha electrons       70 beta electrons
       nuclear repulsion energy      1552.2881011280 Hartrees.
 NAtoms=   40 NActive=   40 NUniq=   40 SFac= 1.00D+00 NAtFMM=   60 NAOKFM=F Big=F
 Integral buffers will be    131072 words long.
 Raffenetti 2 integral format.
 Two-electron integral symmetry is turned on.
 Nuclear repulsion after empirical dispersion term =     1552.2472951503 Hartrees.
 ------------------------------------------------------------------------------
 Polarizable Continuum Model (PCM)
 =================================
 Model                : PCM.
 Atomic radii         : UFF (Universal Force Field).
 Polarization charges : Total charges.
 Charge compensation  : None.
 Solution method      : On-the-fly selection.
 Cavity type          : Scaled VdW (van der Waals Surface) (Alpha=1.100).
 Cavity algorithm     : GePol (No added spheres)
                        Default sphere list used, NSphG=   40.
                        Lebedev-Laikov grids with approx.  5.0 points / Ang**2.
                        Smoothing algorithm: York/Karplus (Gamma=1.0000).
                        Polarization charges: spherical gaussians, with
                                              point-specific exponents (IZeta= 3).
                        Self-potential: point-specific (ISelfS= 7).
                        Self-field    : sphere-specific E.n sum rule (ISelfD= 2).
 1st derivatives      : Analytical E(r).r(x)/FMM algorithm (CHGder, D1EAlg=3).
                        Cavity 1st derivative terms included.
 Solvent              : Dichloromethane, Eps=   8.930000 Eps(inf)=   2.028346
 ------------------------------------------------------------------------------
 One-electron integrals computed using PRISM.
   1 Symmetry operations used in ECPInt.
 ECPInt:  NShTT=   54615 NPrTT=  139562 LenC2=   49232 LenP2D=   96157.
 LDataN:  DoStor=T MaxTD1= 8 Len=  415
 NBasis=   874 RedAO= T EigKep=  1.73D-05  NBF=   874
 NBsUse=   874 1.00D-06 EigRej= -1.00D+00 NBFU=   874
 Defaulting to unpruned grid for atomic number  45.
 ExpMin= 3.70D-02 ExpMax= 2.70D+04 ExpMxC= 9.22D+02 IAcc=3 IRadAn=         5 AccDes= 0.00D+00
 Harris functional with IExCor= 4639 and IRadAn=       5 diagonalized for initial guess.
 HarFok:  IExCor= 4639 AccDes= 0.00D+00 IRadAn=         5 IDoV= 1 UseB2=F ITyADJ=14
 ICtDFT=  3500011 ScaDFX=  1.000000  1.000000  1.000000  1.000000
 Defaulting to unpruned grid for atomic number  45.
 FoFCou: FMM=F IPFlag=           0 FMFlag=      100000 FMFlg1=           0
         NFxFlg=           0 DoJE=T BraDBF=F KetDBF=T FulRan=T
         wScrn=  0.000000 ICntrl=       500 IOpCl=  0 I1Cent=   200000004 NGrid=           0
         NMat0=    1 NMatS0=      1 NMatT0=    0 NMatD0=    1 NMtDS0=    0 NMtDT0=    0
 Petite list used in FoFCou.
 Requested convergence on RMS density matrix=1.00D-08 within 128 cycles.
 Requested convergence on MAX density matrix=1.00D-06.
 Requested convergence on             energy=1.00D-06.
 No special actions if energy rises.
 Defaulting to unpruned grid for atomic number  45.
 Defaulting to unpruned grid for atomic number  45.
 Defaulting to unpruned grid for atomic number  45.
 Defaulting to unpruned grid for atomic number  45.
 Defaulting to unpruned grid for atomic number  45.
 Defaulting to unpruned grid for atomic number  45.
 Defaulting to unpruned grid for atomic number  45.
 Defaulting to unpruned grid for atomic number  45.
 Defaulting to unpruned grid for atomic number  45.
 Defaulting to unpruned grid for atomic number  45.
 Defaulting to unpruned grid for atomic number  45.
 Defaulting to unpruned grid for atomic number  45.
 Defaulting to unpruned grid for atomic number  45.
 Defaulting to unpruned grid for atomic number  45.
 Defaulting to unpruned grid for atomic number  45.
 Defaulting to unpruned grid for atomic number  45.
 Defaulting to unpruned grid for atomic number  45.
 Defaulting to unpruned grid for atomic number  45.
 Defaulting to unpruned grid for atomic number  45.
 Defaulting to unpruned grid for atomic number  45.
 Defaulting to unpruned grid for atomic number  45.
 Defaulting to unpruned grid for atomic number  45.
 Defaulting to unpruned grid for atomic number  45.
 Defaulting to unpruned grid for atomic number  45.
 Defaulting to unpruned grid for atomic number  45.
 Defaulting to unpruned grid for atomic number  45.
 Defaulting to unpruned grid for atomic number  45.
 Defaulting to unpruned grid for atomic number  45.
 Defaulting to unpruned grid for atomic number  45.
 Defaulting to unpruned grid for atomic number  45.
 Defaulting to unpruned grid for atomic number  45.
 Defaulting to unpruned grid for atomic number  45.
 Defaulting to unpruned grid for atomic number  45.
 Defaulting to unpruned grid for atomic number  45.
 Defaulting to unpruned grid for atomic number  45.
 Defaulting to unpruned grid for atomic number  45.
 Defaulting to unpruned grid for atomic number  45.
 Defaulting to unpruned grid for atomic number  45.
 Defaulting to unpruned grid for atomic number  45.
 Defaulting to unpruned grid for atomic number  45.
 Defaulting to unpruned grid for atomic number  45.
 Defaulting to unpruned grid for atomic number  45.
 Defaulting to unpruned grid for atomic number  45.
 Defaulting to unpruned grid for atomic number  45.
 Defaulting to unpruned grid for atomic number  45.
 Defaulting to unpruned grid for atomic number  45.
 Defaulting to unpruned grid for atomic number  45.
 Defaulting to unpruned grid for atomic number  45.
 Inv3:  Mode=1 IEnd=    19507500.
 Iteration    1 A*A^-1 deviation from unit magnitude is 3.55D-15 for    422.
 Iteration    1 A*A^-1 deviation from orthogonality  is 2.27D-15 for   1907     99.
 Iteration    1 A^-1*A deviation from unit magnitude is 3.33D-15 for    422.
 Iteration    1 A^-1*A deviation from orthogonality  is 2.05D-15 for   1770    367.
 Error on total polarization charges =  0.01810
 SCF Done:  E(RwB97XD) =  -821.118196889     A.U. after   18 cycles
            NFock= 18  Conv=0.41D-08     -V/T= 2.0984

 **********************************************************************

            Population analysis using the SCF Density.

 **********************************************************************

 Orbital symmetries:
       Occupied  (A) (A) (A) (A) (A) (A) (A) (A) (A) (A) (A) (A)
                 (A) (A) (A) (A) (A) (A) (A) (A) (A) (A) (A) (A)
                 (A) (A) (A) (A) (A) (A) (A) (A) (A) (A) (A) (A)
                 (A) (A) (A) (A) (A) (A) (A) (A) (A) (A) (A) (A)
                 (A) (A) (A) (A) (A) (A) (A) (A) (A) (A) (A) (A)
                 (A) (A) (A) (A) (A) (A) (A) (A) (A) (A)
       Virtual   (A) (A) (A) (A) (A) (A) (A) (A) (A) (A) (A) (A)
                 (A) (A) (A) (A) (A) (A) (A) (A) (A) (A) (A) (A)
                 (A) (A) (A) (A) (A) (A) (A) (A) (A) (A) (A) (A)
                 (A) (A) (A) (A) (A) (A) (A) (A) (A) (A) (A) (A)
                 (A) (A) (A) (A) (A) (A) (A) (A) (A) (A) (A) (A)
                 (A) (A) (A) (A) (A) (A) (A) (A) (A) (A) (A) (A)
                 (A) (A) (A) (A) (A) (A) (A) (A) (A) (A) (A) (A)
                 (A) (A) (A) (A) (A) (A) (A) (A) (A) (A) (A) (A)
                 (A) (A) (A) (A) (A) (A) (A) (A) (A) (A) (A) (A)
                 (A) (A) (A) (A) (A) (A) (A) (A) (A) (A) (A) (A)
                 (A) (A) (A) (A) (A) (A) (A) (A) (A) (A) (A) (A)
                 (A) (A) (A) (A) (A) (A) (A) (A) (A) (A) (A) (A)
                 (A) (A) (A) (A) (A) (A) (A) (A) (A) (A) (A) (A)
                 (A) (A) (A) (A) (A) (A) (A) (A) (A) (A) (A) (A)
                 (A) (A) (A) (A) (A) (A) (A) (A) (A) (A) (A) (A)
                 (A) (A) (A) (A) (A) (A) (A) (A) (A) (A) (A) (A)
                 (A) (A) (A) (A) (A) (A) (A) (A) (A) (A) (A) (A)
                 (A) (A) (A) (A) (A) (A) (A) (A) (A) (A) (A) (A)
                 (A) (A) (A) (A) (A) (A) (A) (A) (A) (A) (A) (A)
                 (A) (A) (A) (A) (A) (A) (A) (A) (A) (A) (A) (A)
                 (A) (A) (A) (A) (A) (A) (A) (A) (A) (A) (A) (A)
                 (A) (A) (A) (A) (A) (A) (A) (A) (A) (A) (A) (A)
                 (A) (A) (A) (A) (A) (A) (A) (A) (A) (A) (A) (A)
                 (A) (A) (A) (A) (A) (A) (A) (A) (A) (A) (A) (A)
                 (A) (A) (A) (A) (A) (A) (A) (A) (A) (A) (A) (A)
                 (A) (A) (A) (A) (A) (A) (A) (A) (A) (A) (A) (A)
                 (A) (A) (A) (A) (A) (A) (A) (A) (A) (A) (A) (A)
                 (A) (A) (A) (A) (A) (A) (A) (A) (A) (A) (A) (A)
                 (A) (A) (A) (A) (A) (A) (A) (A) (A) (A) (A) (A)
                 (A) (A) (A) (A) (A) (A) (A) (A) (A) (A) (A) (A)
                 (A) (A) (A) (A) (A) (A) (A) (A) (A) (A) (A) (A)
                 (A) (A) (A) (A) (A) (A) (A) (A) (A) (A) (A) (A)
                 (A) (A) (A) (A) (A) (A) (A) (A) (A) (A) (A) (A)
                 (A) (A) (A) (A) (A) (A) (A) (A) (A) (A) (A) (A)
                 (A) (A) (A) (A) (A) (A) (A) (A) (A) (A) (A) (A)
                 (A) (A) (A) (A) (A) (A) (A) (A) (A) (A) (A) (A)
                 (A) (A) (A) (A) (A) (A) (A) (A) (A) (A) (A) (A)
                 (A) (A) (A) (A) (A) (A) (A) (A) (A) (A) (A) (A)
                 (A) (A) (A) (A) (A) (A) (A) (A) (A) (A) (A) (A)
                 (A) (A) (A) (A) (A) (A) (A) (A) (A) (A) (A) (A)
                 (A) (A) (A) (A) (A) (A) (A) (A) (A) (A) (A) (A)
                 (A) (A) (A) (A) (A) (A) (A) (A) (A) (A) (A) (A)
                 (A) (A) (A) (A) (A) (A) (A) (A) (A) (A) (A) (A)
                 (A) (A) (A) (A) (A) (A) (A) (A) (A) (A) (A) (A)
                 (A) (A) (A) (A) (A) (A) (A) (A) (A) (A) (A) (A)
                 (A) (A) (A) (A) (A) (A) (A) (A) (A) (A) (A) (A)
                 (A) (A) (A) (A) (A) (A) (A) (A) (A) (A) (A) (A)
                 (A) (A) (A) (A) (A) (A) (A) (A) (A) (A) (A) (A)
                 (A) (A) (A) (A) (A) (A) (A) (A) (A) (A) (A) (A)
                 (A) (A) (A) (A) (A) (A) (A) (A) (A) (A) (A) (A)
                 (A) (A) (A) (A) (A) (A) (A) (A) (A) (A) (A) (A)
                 (A) (A) (A) (A) (A) (A) (A) (A) (A) (A) (A) (A)
                 (A) (A) (A) (A) (A) (A) (A) (A) (A) (A) (A) (A)
                 (A) (A) (A) (A) (A) (A) (A) (A) (A) (A) (A) (A)
                 (A) (A) (A) (A) (A) (A) (A) (A) (A) (A) (A) (A)
                 (A) (A) (A) (A) (A) (A) (A) (A) (A) (A) (A) (A)
                 (A) (A) (A) (A) (A) (A) (A) (A) (A) (A) (A) (A)
                 (A) (A) (A) (A) (A) (A) (A) (A) (A) (A) (A) (A)
                 (A) (A) (A) (A) (A) (A) (A) (A) (A) (A) (A) (A)
                 (A) (A) (A) (A) (A) (A) (A) (A) (A) (A) (A) (A)
                 (A) (A) (A) (A) (A) (A) (A) (A) (A) (A) (A) (A)
                 (A) (A) (A) (A) (A) (A) (A) (A) (A) (A) (A) (A)
                 (A) (A) (A) (A) (A) (A) (A) (A) (A) (A) (A) (A)
                 (A) (A) (A) (A) (A) (A) (A) (A) (A) (A) (A) (A)
                 (A) (A) (A) (A) (A) (A) (A) (A) (A) (A) (A) (A)
                 (A) (A) (A) (A) (A) (A) (A) (A) (A) (A) (A) (A)
                 (A) (A) (A) (A) (A) (A) (A) (A) (A) (A) (A) (A)
 The electronic state is 1-A.
 Alpha  occ. eigenvalues --  -19.31963 -14.51862 -14.51831 -14.49684 -10.40454
 Alpha  occ. eigenvalues --  -10.37518 -10.37508 -10.35546 -10.35472 -10.33261
 Alpha  occ. eigenvalues --  -10.33234 -10.32768 -10.32763 -10.32735 -10.32417
 Alpha  occ. eigenvalues --  -10.28863  -3.33517  -2.09291  -2.09118  -2.06966
 Alpha  occ. eigenvalues --   -1.21318  -1.12045  -1.08256  -1.07439  -0.94412
 Alpha  occ. eigenvalues --   -0.93778  -0.86514  -0.84324  -0.84082  -0.83965
 Alpha  occ. eigenvalues --   -0.77960  -0.77657  -0.76348  -0.73335  -0.73095
 Alpha  occ. eigenvalues --   -0.67463  -0.65126  -0.62375  -0.61821  -0.60692
 Alpha  occ. eigenvalues --   -0.60538  -0.59554  -0.59219  -0.58545  -0.56227
 Alpha  occ. eigenvalues --   -0.54560  -0.53936  -0.53191  -0.52656  -0.51572
 Alpha  occ. eigenvalues --   -0.51227  -0.50502  -0.49721  -0.49601  -0.49247
 Alpha  occ. eigenvalues --   -0.48582  -0.48299  -0.48065  -0.47514  -0.46850
 Alpha  occ. eigenvalues --   -0.46172  -0.43894  -0.42336  -0.39479  -0.38020
 Alpha  occ. eigenvalues --   -0.37324  -0.32706  -0.32594  -0.32019  -0.29412
 Alpha virt. eigenvalues --   -0.00668   0.01219   0.02600   0.04987   0.07122
 Alpha virt. eigenvalues --    0.07969   0.09241   0.10377   0.10991   0.12460
 Alpha virt. eigenvalues --    0.13084   0.13548   0.14208   0.14415   0.15131
 Alpha virt. eigenvalues --    0.15304   0.15475   0.15573   0.16595   0.16895
 Alpha virt. eigenvalues --    0.17448   0.17960   0.19024   0.19316   0.19715
 Alpha virt. eigenvalues --    0.20117   0.20545   0.20919   0.21151   0.21698
 Alpha virt. eigenvalues --    0.21804   0.22230   0.23075   0.23707   0.23808
 Alpha virt. eigenvalues --    0.24311   0.25285   0.25338   0.26413   0.27094
 Alpha virt. eigenvalues --    0.28096   0.28530   0.28807   0.29419   0.29888
 Alpha virt. eigenvalues --    0.30591   0.30841   0.31342   0.31501   0.31988
 Alpha virt. eigenvalues --    0.33007   0.33199   0.33913   0.33979   0.35196
 Alpha virt. eigenvalues --    0.35626   0.36003   0.36865   0.37093   0.37537
 Alpha virt. eigenvalues --    0.38059   0.38863   0.39111   0.39559   0.40098
 Alpha virt. eigenvalues --    0.40491   0.41344   0.41867   0.42222   0.42579
 Alpha virt. eigenvalues --    0.43641   0.44167   0.44431   0.44686   0.45161
 Alpha virt. eigenvalues --    0.45736   0.46234   0.46677   0.47241   0.47409
 Alpha virt. eigenvalues --    0.47785   0.48612   0.48932   0.49303   0.49700
 Alpha virt. eigenvalues --    0.50019   0.50309   0.50526   0.50830   0.51007
 Alpha virt. eigenvalues --    0.51158   0.52052   0.52363   0.52768   0.53303
 Alpha virt. eigenvalues --    0.53485   0.54540   0.55182   0.55436   0.55666
 Alpha virt. eigenvalues --    0.56785   0.57470   0.57799   0.58726   0.59517
[...]
 ,-0.00031782,0.00009271,-0.00007436,-0.00003213,0.00005079,-0.00003065
 ,0.00003918,-0.00004154,-0.00001563,0.00003845,0.00005871,-0.00002002,
 -0.00012489,0.00006010,-0.00010878,0.00000995,0.00001441,-0.00000036,0
 .00001010,-0.00006286,0.00001589,0.00000340,0.00001513,0.,-0.00005142,
 -0.00012256,0.00015532,-0.00000774,-0.00005890,-0.00006657,0.00000440,
 0.00001903,0.00000108,0.00000417,0.00001575,0.00000133,-0.00073246,0.0
 0188444,-0.00105988,0.00065473,0.00016408,0.00053706,0.00006333,-0.000
 17956,0.00003786,-0.00002536,0.00031563,-0.00003068,0.05219378,-0.2931
 9958,0.02218639,-0.00004426,-0.00401116,-0.00012905,-0.05758723,0.3179
 0589,0.00003491,0.00003443,0.00001310,0.00025151,-0.00015756,0.0000362
 9,-0.00000469,-0.00003195,-0.00000058,0.00009006,0.00006225,0.00004641
 ,-0.00002459,-0.00003181,0.00000504,0.00000554,0.00000342,-0.00000345,
 0.00000944,0.00000214,0.00000688,0.00006154,0.00000511,0.00000928,-0.0
 0027775,-0.00011604,0.00001870,-0.00018900,-0.00001302,0.00008159,0.00
 000818,-0.00000650,-0.00001210,0.00004566,0.00001736,-0.00000549,-0.00
 324206,0.00215898,0.00071902,-0.00014682,-0.00020755,0.00023074,0.0006
 9664,-0.00061036,0.00055449,0.00001160,0.00068617,0.00071263,-0.006148
 51,0.03753507,-0.01706089,0.00023530,-0.00036343,-0.00004692,-0.000128
 33,0.00010426,0.00019453,-0.00001588,0.00001472,0.00008482,-0.00012496
 ,0.00002230,0.00000766,0.00013118,-0.00007860,0.00012641,-0.00001459,-
 0.00000018,-0.00000126,-0.00001873,0.00005383,-0.00002547,-0.00000567,
 -0.00001339,-0.00001969,0.00006525,0.00020817,-0.00018305,0.00000904,0
 .00006675,0.00010866,-0.00001089,0.00000194,0.00000109,0.00001410,0.00
 000403,0.00000340,0.00104758,0.00337578,0.00188684,0.00018424,-0.00125
 842,0.00002827,-0.00007264,-0.00025042,-0.00011447,0.00017390,-0.00045
 000,0.00025100,-0.00360691,0.01719535,-0.05162693,0.00071019,-0.009879
 71,0.00175250,0.00479276,-0.03111208,0.06209020,0.00021370,0.00019661,
 0.00008958,0.00009833,-0.00043233,0.00018081,-0.00018623,0.00010868,-0
 .00004246,0.00021712,0.00024316,-0.00000362,-0.00008486,-0.00031105,0.
 00000721,-0.00000112,0.00000708,-0.00001240,-0.00000870,0.00000503,0.0
 0000296,0.00006901,0.00004783,0.00001094,-0.00085437,-0.00013365,0.000
 36470,0.00002165,0.00000482,-0.00001185,-0.00000898,0.00000864,0.00000
 213,-0.00000122,0.00000352,-0.00000522,0.00053743,0.00064195,0.0004355
 9,0.00008989,0.00004397,-0.00016998,0.00005355,0.00009153,0.00003886,-
 0.00000431,0.00008936,0.00005940,0.00202379,0.00285739,0.00310320,-0.0
 0017393,-0.00007811,-0.00021453,-0.00001373,-0.00004937,0.00004720,0.0
 0002484,0.00009081,0.00002470,0.00013901,0.00003862,0.00006207,-0.0000
 0406,0.00000018,0.00002073,-0.00000395,-0.00000047,-0.00000125,-0.0000
 0059,-0.00000146,-0.00000849,0.00000086,-0.00000012,-0.00000812,-0.000
 01585,-0.00000703,-0.00002768,0.00000642,-0.00000520,0.00001489,-0.000
 01283,0.00001015,-0.00000749,0.00002309,0.00001493,-0.00000829,0.00038
 153,0.00034417,0.00049453,-0.00005195,-0.00013481,-0.00000836,0.000483
 10,0.00002419,0.00009432,0.00048180,-0.00020052,-0.00002320,-0.1684116
 0,-0.09937029,-0.09408491,-0.01612894,-0.01661485,-0.01558622,0.005350
 26,0.00477239,0.00477198,0.17537278,-0.00002477,-0.00002352,0.00000213
 ,-0.00013852,0.00033526,0.00048480,0.00001198,-0.00003403,0.00000174,0
 .00008492,-0.00000705,0.00003320,-0.00003094,0.00001346,-0.00000921,0.
 00000503,-0.00000067,-0.00000275,0.00002682,-0.00000310,-0.00002525,0.
 00004565,-0.00000823,0.00001631,-0.00076453,0.00028023,0.00083614,-0.0
 0004484,-0.00000098,0.00001169,0.00000473,-0.00000132,-0.00000292,0.00
 000899,0.00000442,0.00000207,-0.00014941,0.00037610,-0.00036755,0.0001
 4706,-0.00012287,0.00002987,-0.00012308,-0.00036997,0.00004049,-0.0000
 2315,0.00017342,-0.00003419,0.00876001,0.00594820,0.00662336,-0.000053
 72,0.00002453,0.00011425,0.00000862,-0.00000249,-0.00005420,-0.0000029
 8,-0.00000348,-0.00004245,-0.00005401,-0.00001043,0.00002585,0.0000327
 2,0.00000946,0.00001702,-0.00000140,-0.00000291,0.00000125,-0.00000897
 ,0.00001764,-0.00000545,-0.00000132,0.00000111,-0.00000376,0.00001948,
 -0.00001539,-0.00003547,0.00000193,0.00001640,-0.00000480,0.00000041,-
 0.00000346,0.00000050,-0.00001599,0.00000036,0.00000488,-0.00023834,0.
 00021488,0.00116661,0.00008753,0.00044818,0.00040720,-0.00008895,-0.00
 017758,0.00006552,0.00006837,0.00053796,0.00034979,-0.10115917,-0.1331
 4158,-0.07979758,0.00488403,0.00366165,0.00434284,-0.02054139,-0.01458
 624,-0.01557387,0.10750267,0.13707795,0.00002739,0.00017306,-0.0000289
 5,0.00066840,0.00038277,-0.00046579,-0.00003326,-0.00005400,-0.0000325
 5,0.00003080,-0.00003712,0.00004261,0.00024614,0.00008551,0.00001920,-
 0.00000872,-0.00000588,0.00000206,-0.00000897,0.00000046,0.00000716,-0
 .00019108,-0.00002179,-0.00003096,-0.00006648,0.00007780,0.00032408,-0
 .00006776,0.00003855,0.00004517,0.00002076,-0.00000776,-0.00000270,0.0
 0002189,-0.00000632,-0.00000611,-0.00149631,-0.00059226,0.00074829,-0.
 00012425,0.00002489,0.00017408,0.00023778,-0.00011117,-0.00008566,0.00
 003470,0.00023660,-0.00003396,-0.02381479,-0.01778930,-0.02225617,-0.0
 0004529,0.00002213,-0.00010470,0.00001809,0.00004409,-0.00004140,0.000
 00465,-0.00001069,0.00000009,0.00001938,-0.00002888,-0.00000233,0.0000
 2547,0.00001527,0.00000815,0.00000067,0.00000057,0.00000234,-0.0000110
 1,0.00000789,-0.00001183,-0.00000309,0.00000101,-0.00001234,0.00000262
 ,-0.00001967,-0.00003370,0.00000626,-0.00000173,0.00000324,0.00000390,
 -0.00000111,0.00000301,-0.00000948,-0.00000387,0.00001411,0.00228051,0
 .00301912,-0.00568409,0.00013140,-0.00008493,0.00005175,-0.00002708,0.
 00016326,0.00023522,-0.00124487,-0.00116005,-0.00104814,-0.08632038,-0
 .07274006,-0.11974238,0.00649120,0.00662542,0.00690204,0.00264121,0.00
 151390,0.00279786,0.10093878,0.08049822,0.13882814,-0.00048965,0.00035
 347,-0.00009994,-0.00047762,-0.00034926,-0.00008444,0.00035227,-0.0005
 9682,-0.00028886,0.00030102,0.00057129,-0.00028975,-0.00084273,0.00007
 136,-0.00002582,-0.00001088,0.00002369,-0.00004942,-0.00001948,-0.0000
 2113,-0.00005037,0.00111508,0.00004243,0.00019566,-0.00973199,0.000116
 10,0.00683831,-0.00030587,-0.00029616,0.00038511,-0.00002724,-0.000041
 18,-0.00002710,0.00009920,0.00011635,0.00001468,-0.00029955,0.00029598
 ,0.00038145,-0.00002349,0.00004289,-0.00002670,0.00009633,-0.00011659,
 0.00001465,0.00032837,-0.00036627,0.00010543,0.00037404,0.00042642,0.0
 0014113,-0.02855740,0.00016504,-0.01879193,0.01113007,-0.00009279,-0.0
 0252264,-0.00501694,-0.00171493,0.00581864,-0.00503477,0.00178451,0.00
 588479,0.00071092,-0.00044782,0.00010079,-0.00021199,0.00026770,0.0000
 4292,-0.00019427,0.00019055,0.00000887,0.00003754,-0.00003505,-0.00005
 484,0.00048723,-0.00029295,-0.00034723,-0.00012235,0.00028828,0.000070
 51,0.00001093,0.00019169,0.00019682,-0.00018983,-0.00002173,-0.0001842
 7,0.00074121,0.00044248,0.00008478,-0.00020309,-0.00018310,0.00001330,
 -0.00023387,-0.00026974,0.00005041,0.00004593,-0.00000299,-0.00002916,
 0.00049469,0.00027104,-0.00033032,0.00000995,-0.00019007,0.00019615,-0
 .00012721,-0.00028828,0.00007000,-0.00020233,0.00002504,-0.00018919,0.
 12672483,-0.00013574,-0.00077386,-0.00034396,0.00011660,-0.00077185,0.
 00035307,0.00060133,-0.00015126,0.00024082,-0.00060125,-0.00015270,-0.
 00023263,0.00002177,0.00075420,-0.00000318,0.00002336,0.00000083,0.000
 07184,-0.00002035,0.00000064,-0.00006961,-0.00001521,-0.00008300,0.000
 00531,0.00008928,0.00382951,-0.00007116,-0.00039674,0.00029811,-0.0000
 6600,0.00000897,0.00005691,0.00003056,0.00007816,0.00002379,0.00005742
 ,0.00039879,0.00029007,0.00005582,-0.00000835,0.00005308,-0.00003016,-
 0.00008042,0.00002669,-0.00005586,-0.00257054,0.00484996,-0.00327727,0
 .00263345,0.00479931,0.00328457,0.00018241,-0.00329803,0.00014210,-0.0
 0008732,-0.00134967,0.00001976,0.00325921,0.00029691,-0.00410066,-0.00
 319823,0.00030620,0.00402421,0.00005364,-0.00023274,0.00040149,0.00007
 731,-0.00006692,-0.00001795,-0.00007331,0.00030752,-0.00018491,-0.0000
 1455,-0.00013286,-0.00007067,-0.00026135,-0.00004449,-0.00015721,0.000
 16836,-0.00010995,0.00003772,0.00001313,0.00001668,0.00002589,0.000127
 67,-0.00000224,0.00031541,-0.00007989,-0.00023485,-0.00041475,0.000080
 69,0.00031058,0.00018597,-0.00006103,-0.00005409,0.00001422,-0.0000057
 1,-0.00011198,0.00008765,0.00025487,-0.00007055,0.00017155,-0.00001232
 ,0.00002060,-0.00003099,-0.00016863,-0.00010463,-0.00003670,-0.0001289
 8,-0.00000003,-0.00031163,0.00015231,0.01574784,0.00107976,0.00068891,
 0.00021357,0.00106264,-0.00069195,0.00020125,-0.00024567,0.00013377,-0
 .00002147,-0.00024841,-0.00014062,-0.00002208,0.00033596,0.00001193,0.
 00004601,0.00002150,-0.00000425,-0.00001965,0.00002537,0.00000232,-0.0
 0001898,-0.00021238,-0.00001426,-0.00003090,0.00184274,-0.00003932,0.0
 0163044,0.00050468,-0.00011050,-0.00022227,-0.00005131,-0.00004994,-0.
 00001408,-0.00016746,-0.00011993,-0.00005287,0.00050566,0.00010094,-0.
 00022312,-0.00005123,0.00004950,-0.00001152,-0.00016387,0.00012302,-0.
 00005265,-0.00048163,-0.00053653,-0.00079205,-0.00048680,0.00055323,-0
 .00080320,0.00934193,-0.00006137,0.00036296,-0.00179366,0.00001669,0.0
 0360248,0.00174165,0.00024624,-0.00162763,0.00174579,-0.00027022,-0.00
 164513,-0.00086674,0.00039854,-0.00033014,0.00023855,-0.00029704,-0.00
 008507,0.00032238,-0.00025291,0.00011123,-0.00004017,-0.00001746,0.000
 24638,-0.00078582,-0.00008406,0.00003336,0.00019447,-0.00059300,-0.000
 02714,-0.00011450,-0.00006419,-0.00017524,0.00044035,-0.00009991,0.000
 29596,-0.00089347,-0.00037956,-0.00032567,0.00033011,0.00024876,0.0001
 0802,0.00023627,0.00029032,-0.00008802,-0.00001282,0.00002753,0.000249
 53,-0.00078793,0.00011315,0.00000890,-0.00011634,0.00006287,-0.0001726
 5,0.00020128,0.00059046,-0.00002764,0.00045667,0.00008936,0.00029572,0
 .09599201,-0.00015877,0.06830773,-0.01439971,-0.01746642,-0.00001065,-
 0.01392603,0.01754390,0.00007484,0.00192347,0.00167569,0.00050173,0.00
 199475,-0.00169111,0.00050794,-0.00114964,-0.00013877,-0.00015651,0.00
 060941,0.00010187,0.00001818,0.00056489,-0.00008510,0.00000748,-0.0000
 0539,-0.00000129,0.00006976,-0.08851535,0.00057747,0.00600821,-0.00528
 990,-0.01175019,-0.00228488,0.00010520,0.00040196,0.00021357,-0.002931
 80,-0.00005785,0.00103965,-0.00481094,0.01194493,-0.00233384,0.0000892
 4,-0.00039970,0.00020305,-0.00295699,0.00010387,0.00104215,-0.03857715
 ,0.01123172,0.00071843,-0.03899935,-0.01132268,0.00070281,-0.04688953,
 -0.00013363,0.05429538,-0.01597894,0.00011638,0.01156143,-0.00536311,0
 .00264114,0.00057000,-0.00552345,-0.00251066,0.00070082,0.00246675,0.0
 0840821,0.00134114,-0.00009449,0.00049319,0.00012675,-0.00088598,0.001
 69605,-0.00120031,0.00009354,0.00015723,0.00000494,0.00052909,0.000555
 41,-0.00042542,0.00085748,-0.00039137,0.00065208,-0.00019582,0.0007974
 3,0.00024921,0.00055275,-0.00177994,-0.00023338,0.00232523,-0.00865044
 ,0.00129165,-0.00091799,-0.00168049,-0.00118502,-0.00011426,-0.0004730
 4,0.00013915,0.00010184,-0.00016454,0.00002563,0.00033686,-0.00078453,
 -0.00042087,-0.00019405,-0.00081431,0.00025883,0.00087237,0.00041060,0
 .00061334,0.00058209,0.00174154,-0.00021229,-0.09064939,-0.00041047,-0
 .10913834,0.36446399,-0.01330931,0.00230775,-0.00038175,0.01358674,0.0
 0197920,0.00035664,-0.00147138,-0.00361689,-0.00053147,0.00136455,-0.0
 0366763,0.00050170,0.00001128,-0.00057834,-0.00000666,-0.00070721,0.00
 020474,-0.00038705,0.00066196,0.00021533,0.00038678,0.00002841,-0.0001
 1377,0.00001758,0.00041821,-0.04149969,-0.00010035,-0.01428560,-0.0067
 4199,0.00426239,0.00061891,-0.00006641,-0.00046938,0.00172426,0.000597
 53,0.00006963,0.01416032,-0.00729559,-0.00427055,-0.00061691,-0.000056
 88,0.00047264,-0.00165839,0.00062370,-0.00007299,0.00567350,-0.0469748
 0,0.00333341,-0.00565524,-0.04708800,-0.00331795,-0.00014588,-0.055637
 57,-0.00045436,0.00014280,0.00165253,-0.00010392,0.01307354,0.00426402
 ,-0.01007926,-0.01294828,0.00447209,0.01005811,0.00399605,-0.01116850,
 0.00398301,-0.00113644,0.00046847,-0.00046613,-0.00063848,0.00084378,-
 0.00045730,-0.00066543,0.00002732,-0.00121656,0.00050591,-0.00673164,-
 0.00993961,-0.00046335,0.00130770,0.00134200,-0.00046444,-0.00067370,0
 .00052209,-0.00030476,-0.00055750,-0.00001238,-0.00418948,-0.01102179,
 -0.00396747,0.00066012,0.00086540,0.00046507,0.00110467,0.00048550,0.0
 0046572,0.00067317,0.00001819,0.00122336,-0.00062922,-0.00659553,0.010
 09288,0.00045791,-0.00062751,-0.00057185,0.00046247,0.00130056,-0.0013
 5586,0.00032744,-0.00062369,0.00004335,-0.00041458,-0.02424913,0.00022
 179,0.00005807,0.25396400,-0.00044477,0.00311623,0.00282766,-0.0005574
 1,-0.00307217,0.00282124,-0.00202076,0.00080060,0.00180765,-0.00183598
 ,-0.00066510,0.00177429,0.00299923,-0.00028417,0.00006275,-0.00034317,
 -0.00008186,0.00008756,-0.00029761,0.00007338,0.00007663,-0.00379353,-
 0.00012894,-0.00073577,0.01239782,-0.00025094,-0.02471983,0.00083396,0
 .00526462,0.00058464,-0.00001176,0.00030665,0.00016186,0.00150522,0.00
 010925,0.00002623,0.00074505,-0.00536016,0.00062346,-0.00001412,-0.000
 31045,0.00016181,0.00150944,-0.00013619,0.00001992,0.00290335,0.000774
 25,-0.03255975,0.00291545,-0.00079528,-0.03264035,0.03215085,-0.000190
 14,-0.02497772,0.01134319,-0.00009035,-0.01032987,0.00098046,-0.000997
 27,-0.00067785,0.00100379,0.00097565,-0.00068638,0.00187694,0.00692543
 ,0.00019201,0.00015245,-0.00017362,0.00005722,-0.00102589,0.00153963,-
 0.00025643,0.00005346,0.00077422,0.00006008,-0.00152124,-0.01367703,-0
 .00083011,-0.00052521,-0.00089575,-0.00263080,0.00015520,-0.00118750,-
 0.00029641,-0.00096961,-0.00074120,-0.00085391,0.00179673,-0.00689703,
 0.00019616,-0.00104662,-0.00152403,-0.00024257,0.00014629,0.00017454,0
 .00005403,0.00003398,-0.00078773,0.00006531,-0.00148492,0.01375063,-0.
 00150253,0.00016798,0.00117930,-0.00028330,-0.00052970,0.00088799,-0.0
 0263506,-0.00099152,0.00079758,-0.00088251,-0.09320226,0.00011553,-0.0
 6891997,0.03468470,0.00035416,0.19495153,-0.00130352,-0.00103593,-0.00
 016094,-0.00020277,-0.00204885,-0.00053092,0.00413901,-0.00179917,0.00
 136046,-0.00486954,0.00306675,-0.00146477,-0.03010399,-0.04606220,-0.0
 0438320,0.00077422,0.00161838,-0.00040236,0.00009250,0.00010631,0.0001
 2767,-0.11126258,-0.14143224,-0.01676081,0.00114347,0.00114952,0.00017
 537,0.00003565,0.00030130,0.00009763,0.00010368,-0.00005038,-0.0000048
 4,0.00001253,0.00000664,-0.00002345,-0.00030435,0.00019783,0.00019458,
 0.00007396,0.00004038,-0.00002824,0.00003145,0.00003661,-0.00000731,0.
 00014726,-0.00015159,0.00004611,-0.00006997,0.00000371,-0.00004944,-0.
 00002515,-0.00001401,-0.00016835,0.00007115,-0.00000116,-0.00003463,0.
 00003215,-0.00001471,-0.00000882,0.00003150,0.00001765,-0.00000492,0.0
 0001238,0.00008591,-0.00012500,0.00003701,-0.00001573,0.00001110,-0.00
 001088,-0.00002173,0.00000376,-0.00000826,-0.00000171,0.00000078,0.000
 02693,0.00005235,0.00008905,-0.00001171,-0.00002498,-0.00000400,0.0000
 1876,-0.00000161,-0.00001343,-0.00001818,-0.00000380,0.00002624,-0.000
 05302,-0.00003206,-0.00003466,-0.00000048,0.00002037,0.00000409,0.0000
 0601,-0.00000674,-0.00000391,-0.00000198,0.00000065,0.00000109,-0.0000
 0105,-0.00002613,0.00003589,0.00000839,-0.00000477,-0.00000144,-0.0000
 0356,0.00002328,-0.00000190,-0.00000068,-0.00000208,0.00002230,-0.0000
 8766,-0.00001091,0.00003880,-0.00009965,-0.00000591,0.00026051,0.14164
 098,-0.00077055,-0.00124282,-0.00014409,-0.00118200,0.00029525,-0.0002
 1397,0.00574316,0.00287133,0.00080709,0.00259666,0.00251602,0.00040608
 ,0.00109179,0.00300369,-0.00003073,-0.00072680,-0.00112083,0.00029991,
 0.00016288,0.00033930,0.00004225,-0.19394689,-0.45676404,-0.03045258,0
 .00084203,-0.00007269,0.00009951,0.00005497,0.00010067,0.00003648,0.00
 001453,0.00000833,-0.00001083,0.00002573,-0.00005165,-0.00001042,-0.00
 000213,-0.00002681,0.00003768,0.00001557,-0.00001149,-0.00001097,0.000
 00438,0.00000296,-0.00000662,0.00000552,-0.00006839,-0.00000712,0.0000
 2027,0.00004170,-0.00000272,-0.00005632,0.00001003,-0.00022115,0.00008
 991,0.00000017,-0.00003080,0.00001955,-0.00001401,0.00000507,0.0000210
 5,0.00001082,0.00000149,-0.00001530,0.00002690,-0.00004207,0.00000807,
 0.00000037,0.00000249,0.00000075,-0.00001843,0.00000263,-0.00000133,0.
 00000226,-0.00000005,-0.00000282,0.00001789,0.00004378,0.00000129,-0.0
 0002355,-0.00000503,0.00000261,0.00000320,-0.00000212,-0.00000095,0.00
 000921,0.00001254,-0.00001477,-0.00003022,-0.00004368,-0.00000204,0.00
 001349,0.00000270,0.00001103,-0.00000013,0.00000150,-0.00000251,-0.000
 00028,0.00000162,0.00000387,-0.00001491,0.00004173,0.00000718,-0.00000
 327,-0.00000094,-0.00000494,0.00001603,-0.00000462,-0.00000688,-0.0000
 0218,0.00001432,-0.00009718,0.00000542,0.00001644,0.00004988,-0.000011
 27,0.00032723,0.18604075,0.45018194,-0.00013783,-0.00024762,-0.0007085
 7,-0.00025914,-0.00043848,0.00180339,0.00149924,-0.00021289,-0.0011153
 9,-0.00158071,0.00056015,0.00357098,-0.00466914,-0.00793558,-0.0038965
 4,-0.00043836,0.00044636,-0.00064295,0.00011625,0.00003354,-0.00057427
 ,-0.01647444,-0.02156269,-0.00963672,0.00021288,0.00029670,-0.00002086
 ,-0.00002035,0.00005952,0.00014455,0.00002666,-0.00003036,-0.00000568,
 -0.00000778,-0.00000138,0.00000203,0.00002423,0.00000494,-0.00043100,-
 0.00007824,-0.00007946,-0.00001335,0.00001980,0.00003827,0.00001483,0.
 00001821,-0.00001842,0.00000049,0.00000752,0.00004195,-0.00004326,-0.0
 0000570,-0.00000310,-0.00002564,0.00001727,0.00000121,-0.00000841,0.00
 000607,-0.00000165,-0.00000051,0.00000715,0.00000326,-0.00000153,0.000
 00947,0.00001180,-0.00001694,0.00000756,-0.00000177,0.00000117,-0.0000
 0369,-0.00000316,0.00000304,-0.00000493,-0.00000068,-0.00000509,0.0000
 0964,0.00001148,0.00004017,0.00000097,-0.00000982,0.00000102,0.0000015
 2,-0.00000050,-0.00000755,0.00000063,0.00001012,0.00000218,-0.00000534
 ,-0.00000354,-0.00001494,0.00000006,0.00000415,0.00000213,0.00000331,-
 0.00000081,0.00000345,-0.00000128,-0.00000028,0.00000195,0.00001425,0.
 00000374,0.00003317,0.00000132,-0.00000092,-0.00000393,0.00000015,0.00
 000745,-0.00000442,-0.00000564,-0.00000321,0.00000192,-0.00001217,-0.0
 0000683,-0.00000439,-0.00002130,-0.00000946,0.00004908,0.02172190,0.02
 903795,0.01150636\\0.00001162,0.00001123,0.00001226,-0.00000530,0.0000
 0741,0.00000812,-0.00000965,0.00000191,0.00001033,0.00000397,0.0000035
 4,0.00001444,0.00000210,-0.00000679,0.00000444,-0.00000023,0.00000104,
 0.00000977,-0.00000022,0.00000049,0.00001065,-0.00000116,0.00000230,0.
 00001644,0.00000032,-0.00000544,-0.00001486,-0.00000265,-0.00000006,0.
 00000724,-0.00000319,-0.00000053,0.00000166,-0.00000236,0.00000159,0.0
 0000192,-0.00000250,-0.00000523,0.00001690,-0.00000743,-0.00000130,0.0
 0000497,-0.00000271,-0.00000289,0.00000572,0.00000159,-0.00000202,-0.0
 0003034,0.00000590,-0.00000219,-0.00001443,0.00000465,0.00000119,-0.00
 000176,-0.00001442,0.00000123,-0.00000928,0.,0.00000049,-0.00000758,0.
 00000145,-0.00000387,-0.00000866,0.00000858,0.00000341,-0.00000727,0.0
 0000045,0.00000092,-0.00000916,0.00000134,-0.00000177,-0.00000559,0.00
 000177,0.00000017,-0.00000743,-0.00000052,-0.00000700,0.00000519,-0.00
 000373,0.00000135,-0.00000175,-0.00000339,0.00000035,-0.00000944,-0.00
 000581,0.00000118,0.00000296,0.00000873,-0.00000026,-0.00001947,0.0000
 0142,-0.00000052,-0.00000248,0.00000557,-0.00000120,-0.00000691,-0.000
 00036,-0.00000730,-0.00000943,0.00001568,0.00000517,0.00000669,0.00000
 003,0.00000073,-0.00001271,-0.00000182,0.00000026,0.00000151,-0.000003
 43,-0.00000082,0.00001234,0.00000626,0.00000351,-0.00001227,-0.0000092
 4,-0.00000223,0.00002331,-0.00000129,0.00000196,0.00001394\\\@
 The archive entry for this job was punched.


 NATURE REVEALS EVERY SECRET ONCE.
                    - RALPH WALDO EMERSON
 Job cpu time:       2 days 21 hours  4 minutes 57.4 seconds.
 Elapsed time:       0 days  1 hours 26 minutes 59.0 seconds.
 File lengths (MBytes):  RWF=   2367 Int=      0 D2E=      0 Chk=     72 Scr=      1
 Normal termination of Gaussian 16 at Fri Apr  5 18:46:45 2024.
