 Entering Gaussian System, Link 0=/cm/shared/apps//g16/g16
 Input=ZHIrMe.gjf
 Output=ZHIrMe.log
 Initial command:
 /cm/shared/apps//g16/l1.exe "/local/mvanvleet/pbs.14048.josephine/Gau-1993613.inp" -scrdir="/local/mvanvleet/pbs.14048.josephine/"
 Entering Link 1 = /cm/shared/apps//g16/l1.exe PID=   1993619.
  
 Copyright (c) 1988-2019, Gaussian, Inc.  All Rights Reserved.
  
 This is part of the Gaussian(R) 16 program.  It is based on
 the Gaussian(R) 09 system (copyright 2009, Gaussian, Inc.),
 the Gaussian(R) 03 system (copyright 2003, Gaussian, Inc.),
 the Gaussian(R) 98 system (copyright 1998, Gaussian, Inc.),
 the Gaussian(R) 94 system (copyright 1995, Gaussian, Inc.),
 the Gaussian 92(TM) system (copyright 1992, Gaussian, Inc.),
 the Gaussian 90(TM) system (copyright 1990, Gaussian, Inc.),
 the Gaussian 88(TM) system (copyright 1988, Gaussian, Inc.),
 the Gaussian 86(TM) system (copyright 1986, Carnegie Mellon
 University), and the Gaussian 82(TM) system (copyright 1983,
 Carnegie Mellon University). Gaussian is a federally registered
 trademark of Gaussian, Inc.
  
 This software contains proprietary and confidential information,
 including trade secrets, belonging to Gaussian, Inc.
  
 This software is provided under written license and may be
 used, copied, transmitted, or stored only in accord with that
 written license.
  
 The following legend is applicable only to US Government
 contracts under FAR:
  
                    RESTRICTED RIGHTS LEGEND
  
 Use, reproduction and disclosure by the US Government is
 subject to restrictions as set forth in subparagraphs (a)
 and (c) of the Commercial Computer Software - Restricted
 Rights clause in FAR 52.227-19.
  
 Gaussian, Inc.
 340 Quinnipiac St., Bldg. 40, Wallingford CT 06492
  
  
 ---------------------------------------------------------------
 Warning -- This program may not be used in any manner that
 competes with the business of Gaussian, Inc. or will provide
 assistance to any competitor of Gaussian, Inc.  The licensee
 of this program is prohibited from giving any competitor of
 Gaussian, Inc. access to this program.  By using this program,
 the user acknowledges that Gaussian, Inc. is engaged in the
 business of creating and licensing software in the field of
 computational chemistry and represents and warrants to the
 licensee that it is not a competitor of Gaussian, Inc. and that
 it will not use this program in any manner prohibited above.
 ---------------------------------------------------------------
  

 Cite this work as:
 Gaussian 16, Revision C.01,
 M. J. Frisch, G. W. Trucks, H. B. Schlegel, G. E. Scuseria, 
 M. A. Robb, J. R. Cheeseman, G. Scalmani, V. Barone, 
 G. A. Petersson, H. Nakatsuji, X. Li, M. Caricato, A. V. Marenich, 
 J. Bloino, B. G. Janesko, R. Gomperts, B. Mennucci, H. P. Hratchian, 
 J. V. Ortiz, A. F. Izmaylov, J. L. Sonnenberg, D. Williams-Young, 
 F. Ding, F. Lipparini, F. Egidi, J. Goings, B. Peng, A. Petrone, 
 T. Henderson, D. Ranasinghe, V. G. Zakrzewski, J. Gao, N. Rega, 
 G. Zheng, W. Liang, M. Hada, M. Ehara, K. Toyota, R. Fukuda, 
 J. Hasegawa, M. Ishida, T. Nakajima, Y. Honda, O. Kitao, H. Nakai, 
 T. Vreven, K. Throssell, J. A. Montgomery, Jr., J. E. Peralta, 
 F. Ogliaro, M. J. Bearpark, J. J. Heyd, E. N. Brothers, K. N. Kudin, 
 V. N. Staroverov, T. A. Keith, R. Kobayashi, J. Normand, 
 K. Raghavachari, A. P. Rendell, J. C. Burant, S. S. Iyengar, 
 J. Tomasi, M. Cossi, J. M. Millam, M. Klene, C. Adamo, R. Cammi, 
 J. W. Ochterski, R. L. Martin, K. Morokuma, O. Farkas, 
 J. B. Foresman, and D. J. Fox, Gaussian, Inc., Wallingford CT, 2019.
 
 ******************************************
 Gaussian 16:  ES64L-G16RevC.01  3-Jul-2019
                 7-Mar-2024 
 ******************************************
 %nprocshared=8
 Will use up to    8 processors via shared memory.
 %chk=ZHIrMe.chk
 %mem=1GB
 ----------------------------------------------------------
 # wb97xd def2TZVPP SCRF=(solvent=dichloromethane) opt freq
 ----------------------------------------------------------
 1/18=20,19=15,26=3,38=1/1,3;
 2/9=110,12=2,17=6,18=5,40=1/2;
 3/5=44,7=202,11=2,25=1,30=1,70=2201,71=1,72=9,74=-58/1,2,3;
 4//1;
 5/5=2,38=5,53=9/2;
 6/7=2,8=2,9=2,10=2,28=1/1;
 7//1,2,3,16;
 1/18=20,19=15,26=3/3(2);
 2/9=110/2;
 99//99;
 2/9=110/2;
 3/5=44,7=202,11=2,25=1,30=1,70=2205,71=1,72=9,74=-58/1,2,3;
 4/5=5,16=3,69=1/1;
 5/5=2,38=5,53=9/2;
 7//1,2,3,16;
 1/18=20,19=15,26=3/3(-5);
 2/9=110/2;
 6/7=2,8=2,9=2,10=2,19=2,28=1/1;
 99/9=1/99;
 ------
 ZHIrMe
 ------
 Symbolic Z-matrix:
 Charge =  0 Multiplicity = 1
 C                    -1.54395  -1.20579  -0.65081 
 C                    -1.54423   1.20545  -0.65082 
 C                    -2.70832  -1.23153   0.05341 
 C                    -2.7086    1.23093   0.0534 
 C                    -3.45547  -0.00039   0.36374 
 H                    -3.05848  -2.17203   0.49048 
 H                    -3.05898   2.17135   0.49047 
 O                    -4.5505   -0.00051   0.93119 
 N                    -1.04208  -0.00011  -1.19184 
 C                    -0.59799  -2.35245  -0.89216 
 H                    -0.27311  -2.3658   -1.95089 
 H                    -1.05739  -3.33159  -0.64702 
 C                    -0.59853   2.35232  -0.89217 
 H                    -0.27361   2.36574  -1.95089 
 H                    -1.05815   3.33135  -0.64704 
 N                     0.62651  -2.11019  -0.05587 
 N                     0.62599   2.11034  -0.05584 
 C                     2.47233   0.00019   1.16034 
 H                     2.18158   0.00021   2.23855 
 H                     3.13929  -0.8821    1.03386 
 H                     3.13925   0.8825    1.03381 
 C                     1.76934  -2.8434   -0.65132 
 H                     2.6462   -2.73081   0.00073 
 H                     1.51987  -3.92165  -0.74945 
 H                     1.99309  -2.4095   -1.6376 
 C                     0.38941  -2.62489   1.31664 
 H                     0.25575  -3.72883   1.29283 
 H                     1.25783  -2.3624    1.93889 
 H                    -0.50916  -2.14128   1.72873 
 C                     1.76865   2.84383  -0.65129 
 H                     1.5189    3.92202  -0.74942 
 H                     2.64553   2.73148   0.00076 
 H                     1.99252   2.41     -1.63756 
 C                     0.38865   2.62499   1.31665 
 H                     1.25708   2.36274   1.93898 
 H                     0.2547    3.7289    1.29281 
 H                    -0.50984   2.14115   1.72868 
 H                    -0.77182  -0.00008  -2.18312 
 Ir                    0.77808   0.00009  -0.00825 
 

 GradGradGradGradGradGradGradGradGradGradGradGradGradGradGradGradGradGrad
 Berny optimization.
 Initialization pass.
                           ----------------------------
                           !    Initial Parameters    !
                           ! (Angstroms and Degrees)  !
 --------------------------                            --------------------------
 ! Name  Definition              Value          Derivative Info.                !
 --------------------------------------------------------------------------------
 ! R1    R(1,3)                  1.361          estimate D2E/DX2                !
 ! R2    R(1,9)                  1.4136         estimate D2E/DX2                !
 ! R3    R(1,10)                 1.506          estimate D2E/DX2                !
 ! R4    R(2,4)                  1.361          estimate D2E/DX2                !
 ! R5    R(2,9)                  1.4136         estimate D2E/DX2                !
 ! R6    R(2,13)                 1.506          estimate D2E/DX2                !
 ! R7    R(3,5)                  1.4732         estimate D2E/DX2                !
 ! R8    R(3,6)                  1.0946         estimate D2E/DX2                !
 ! R9    R(4,5)                  1.4732         estimate D2E/DX2                !
 ! R10   R(4,7)                  1.0946         estimate D2E/DX2                !
 ! R11   R(5,8)                  1.2333         estimate D2E/DX2                !
 ! R12   R(9,38)                 1.0275         estimate D2E/DX2                !
 ! R13   R(9,39)                 2.1711         estimate D2E/DX2                !
 ! R14   R(10,11)                1.1075         estimate D2E/DX2                !
 ! R15   R(10,12)                1.109          estimate D2E/DX2                !
 ! R16   R(10,16)                1.5025         estimate D2E/DX2                !
 ! R17   R(13,14)                1.1075         estimate D2E/DX2                !
 ! R18   R(13,15)                1.109          estimate D2E/DX2                !
 ! R19   R(13,17)                1.5025         estimate D2E/DX2                !
 ! R20   R(16,22)                1.4826         estimate D2E/DX2                !
 ! R21   R(16,26)                1.4849         estimate D2E/DX2                !
 ! R22   R(16,39)                2.1163         estimate D2E/DX2                !
 ! R23   R(17,30)                1.4826         estimate D2E/DX2                !
 ! R24   R(17,34)                1.4849         estimate D2E/DX2                !
 ! R25   R(17,39)                2.1163         estimate D2E/DX2                !
 ! R26   R(18,19)                1.1167         estimate D2E/DX2                !
 ! R27   R(18,20)                1.1132         estimate D2E/DX2                !
 ! R28   R(18,21)                1.1132         estimate D2E/DX2                !
 ! R29   R(18,39)                2.0582         estimate D2E/DX2                !
 ! R30   R(22,23)                1.0985         estimate D2E/DX2                !
 ! R31   R(22,24)                1.1111         estimate D2E/DX2                !
 ! R32   R(22,25)                1.1005         estimate D2E/DX2                !
 ! R33   R(26,27)                1.1123         estimate D2E/DX2                !
 ! R34   R(26,28)                1.1001         estimate D2E/DX2                !
 ! R35   R(26,29)                1.1005         estimate D2E/DX2                !
 ! R36   R(30,31)                1.1111         estimate D2E/DX2                !
 ! R37   R(30,32)                1.0985         estimate D2E/DX2                !
 ! R38   R(30,33)                1.1005         estimate D2E/DX2                !
 ! R39   R(34,35)                1.1001         estimate D2E/DX2                !
 ! R40   R(34,36)                1.1123         estimate D2E/DX2                !
 ! R41   R(34,37)                1.1005         estimate D2E/DX2                !
 ! A1    A(3,1,9)              121.1917         estimate D2E/DX2                !
 ! A2    A(3,1,10)             127.2946         estimate D2E/DX2                !
 ! A3    A(9,1,10)             111.4122         estimate D2E/DX2                !
 ! A4    A(4,2,9)              121.192          estimate D2E/DX2                !
 ! A5    A(4,2,13)             127.2945         estimate D2E/DX2                !
 ! A6    A(9,2,13)             111.4119         estimate D2E/DX2                !
 ! A7    A(1,3,5)              121.8088         estimate D2E/DX2                !
 ! A8    A(1,3,6)              119.7705         estimate D2E/DX2                !
 ! A9    A(5,3,6)              118.1441         estimate D2E/DX2                !
 ! A10   A(2,4,5)              121.8086         estimate D2E/DX2                !
 ! A11   A(2,4,7)              119.771          estimate D2E/DX2                !
 ! A12   A(5,4,7)              118.1438         estimate D2E/DX2                !
 ! A13   A(3,5,4)              113.3908         estimate D2E/DX2                !
 ! A14   A(3,5,8)              123.171          estimate D2E/DX2                !
 ! A15   A(4,5,8)              123.1706         estimate D2E/DX2                !
 ! A16   A(1,9,2)              117.052          estimate D2E/DX2                !
 ! A17   A(1,9,38)             117.5593         estimate D2E/DX2                !
 ! A18   A(1,9,39)              95.1101         estimate D2E/DX2                !
 ! A19   A(2,9,38)             117.5592         estimate D2E/DX2                !
 ! A20   A(2,9,39)              95.1109         estimate D2E/DX2                !
 ! A21   A(38,9,39)            107.7843         estimate D2E/DX2                !
 ! A22   A(1,10,11)            110.2817         estimate D2E/DX2                !
 ! A23   A(1,10,12)            112.1249         estimate D2E/DX2                !
 ! A24   A(1,10,16)            107.4548         estimate D2E/DX2                !
 ! A25   A(11,10,12)           108.7948         estimate D2E/DX2                !
 ! A26   A(11,10,16)           107.1549         estimate D2E/DX2                !
 ! A27   A(12,10,16)           110.9118         estimate D2E/DX2                !
 ! A28   A(2,13,14)            110.2829         estimate D2E/DX2                !
 ! A29   A(2,13,15)            112.1249         estimate D2E/DX2                !
 ! A30   A(2,13,17)            107.4538         estimate D2E/DX2                !
 ! A31   A(14,13,15)           108.7954         estimate D2E/DX2                !
 ! A32   A(14,13,17)           107.1546         estimate D2E/DX2                !
 ! A33   A(15,13,17)           110.9112         estimate D2E/DX2                !
 ! A34   A(10,16,22)           108.9605         estimate D2E/DX2                !
 ! A35   A(10,16,26)           109.175          estimate D2E/DX2                !
 ! A36   A(10,16,39)           103.396          estimate D2E/DX2                !
 ! A37   A(22,16,26)           108.8372         estimate D2E/DX2                !
 ! A38   A(22,16,39)           116.5491         estimate D2E/DX2                !
 ! A39   A(26,16,39)           109.6506         estimate D2E/DX2                !
 ! A40   A(13,17,30)           108.9585         estimate D2E/DX2                !
 ! A41   A(13,17,34)           109.1723         estimate D2E/DX2                !
 ! A42   A(13,17,39)           103.3963         estimate D2E/DX2                !
 ! A43   A(30,17,34)           108.8403         estimate D2E/DX2                !
 ! A44   A(30,17,39)           116.5486         estimate D2E/DX2                !
 ! A45   A(34,17,39)           109.652          estimate D2E/DX2                !
 ! A46   A(19,18,20)           105.4085         estimate D2E/DX2                !
 ! A47   A(19,18,21)           105.4089         estimate D2E/DX2                !
 ! A48   A(19,18,39)           109.5041         estimate D2E/DX2                !
 ! A49   A(20,18,21)           104.8514         estimate D2E/DX2                !
 ! A50   A(20,18,39)           115.3813         estimate D2E/DX2                !
 ! A51   A(21,18,39)           115.3828         estimate D2E/DX2                !
 ! A52   A(16,22,23)           109.0385         estimate D2E/DX2                !
 ! A53   A(16,22,24)           110.0183         estimate D2E/DX2                !
 ! A54   A(16,22,25)           108.764          estimate D2E/DX2                !
 ! A55   A(23,22,24)           109.3365         estimate D2E/DX2                !
 ! A56   A(23,22,25)           109.2244         estimate D2E/DX2                !
 ! A57   A(24,22,25)           110.4339         estimate D2E/DX2                !
 ! A58   A(16,26,27)           110.0862         estimate D2E/DX2                !
 ! A59   A(16,26,28)           108.3042         estimate D2E/DX2                !
 ! A60   A(16,26,29)           108.9151         estimate D2E/DX2                !
 ! A61   A(27,26,28)           110.1078         estimate D2E/DX2                !
 ! A62   A(27,26,29)           110.246          estimate D2E/DX2                !
 ! A63   A(28,26,29)           109.1407         estimate D2E/DX2                !
 ! A64   A(17,30,31)           110.0174         estimate D2E/DX2                !
 ! A65   A(17,30,32)           109.0392         estimate D2E/DX2                !
 ! A66   A(17,30,33)           108.765          estimate D2E/DX2                !
 ! A67   A(31,30,32)           109.3358         estimate D2E/DX2                !
 ! A68   A(31,30,33)           110.4337         estimate D2E/DX2                !
 ! A69   A(32,30,33)           109.2245         estimate D2E/DX2                !
 ! A70   A(17,34,35)           108.3051         estimate D2E/DX2                !
 ! A71   A(17,34,36)           110.0856         estimate D2E/DX2                !
 ! A72   A(17,34,37)           108.9152         estimate D2E/DX2                !
 ! A73   A(35,34,36)           110.1078         estimate D2E/DX2                !
 ! A74   A(35,34,37)           109.1405         estimate D2E/DX2                !
 ! A75   A(36,34,37)           110.2457         estimate D2E/DX2                !
 ! A76   A(9,39,16)             85.848          estimate D2E/DX2                !
 ! A77   A(9,39,17)             85.8472         estimate D2E/DX2                !
 ! A78   A(16,39,18)            94.1164         estimate D2E/DX2                !
 ! A79   A(17,39,18)            94.1219         estimate D2E/DX2                !
 ! A80   L(9,39,18,17,-1)      179.9691         estimate D2E/DX2                !
 ! A81   L(16,39,17,18,-1)     188.2383         estimate D2E/DX2                !
 ! A82   L(9,39,18,17,-2)      178.4353         estimate D2E/DX2                !
 ! A83   L(16,39,17,18,-2)     182.5528         estimate D2E/DX2                !
 ! D1    D(9,1,3,5)             -4.1227         estimate D2E/DX2                !
 ! D2    D(9,1,3,6)           -177.9687         estimate D2E/DX2                !
 ! D3    D(10,1,3,5)           171.8868         estimate D2E/DX2                !
 ! D4    D(10,1,3,6)            -1.9592         estimate D2E/DX2                !
 ! D5    D(3,1,9,2)             18.7656         estimate D2E/DX2                !
 ! D6    D(3,1,9,38)          -129.7193         estimate D2E/DX2                !
 ! D7    D(3,1,9,39)           117.1661         estimate D2E/DX2                !
 ! D8    D(10,1,9,2)          -157.8252         estimate D2E/DX2                !
 ! D9    D(10,1,9,38)           53.6899         estimate D2E/DX2                !
 ! D10   D(10,1,9,39)          -59.4247         estimate D2E/DX2                !
 ! D11   D(3,1,10,11)          135.8391         estimate D2E/DX2                !
 ! D12   D(3,1,10,12)           14.4383         estimate D2E/DX2                !
 ! D13   D(3,1,10,16)         -107.6846         estimate D2E/DX2                !
 ! D14   D(9,1,10,11)          -47.8272         estimate D2E/DX2                !
 ! D15   D(9,1,10,12)         -169.228          estimate D2E/DX2                !
 ! D16   D(9,1,10,16)           68.6491         estimate D2E/DX2                !
 ! D17   D(9,2,4,5)              4.1225         estimate D2E/DX2                !
 ! D18   D(9,2,4,7)            177.9684         estimate D2E/DX2                !
 ! D19   D(13,2,4,5)          -171.8863         estimate D2E/DX2                !
 ! D20   D(13,2,4,7)             1.9596         estimate D2E/DX2                !
 ! D21   D(4,2,9,1)            -18.7655         estimate D2E/DX2                !
 ! D22   D(4,2,9,38)           129.7194         estimate D2E/DX2                !
 ! D23   D(4,2,9,39)          -117.1656         estimate D2E/DX2                !
 ! D24   D(13,2,9,1)           157.8247         estimate D2E/DX2                !
 ! D25   D(13,2,9,38)          -53.6904         estimate D2E/DX2                !
 ! D26   D(13,2,9,39)           59.4246         estimate D2E/DX2                !
 ! D27   D(4,2,13,14)         -135.8413         estimate D2E/DX2                !
 ! D28   D(4,2,13,15)          -14.4389         estimate D2E/DX2                !
 ! D29   D(4,2,13,17)          107.6826         estimate D2E/DX2                !
 ! D30   D(9,2,13,14)           47.8256         estimate D2E/DX2                !
 ! D31   D(9,2,13,15)          169.228          estimate D2E/DX2                !
 ! D32   D(9,2,13,17)          -68.6505         estimate D2E/DX2                !
 ! D33   D(1,3,5,4)            -10.14           estimate D2E/DX2                !
 ! D34   D(1,3,5,8)            175.6376         estimate D2E/DX2                !
 ! D35   D(6,3,5,4)            163.8023         estimate D2E/DX2                !
 ! D36   D(6,3,5,8)            -10.4201         estimate D2E/DX2                !
 ! D37   D(2,4,5,3)             10.1402         estimate D2E/DX2                !
 ! D38   D(2,4,5,8)           -175.6374         estimate D2E/DX2                !
 ! D39   D(7,4,5,3)           -163.8021         estimate D2E/DX2                !
 ! D40   D(7,4,5,8)             10.4203         estimate D2E/DX2                !
 ! D41   D(1,9,39,16)           29.9356         estimate D2E/DX2                !
 ! D42   D(1,9,39,17)         -147.7373         estimate D2E/DX2                !
 ! D43   D(2,9,39,16)          147.7387         estimate D2E/DX2                !
 ! D44   D(2,9,39,17)          -29.9343         estimate D2E/DX2                !
 ! D45   D(38,9,39,16)         -91.1628         estimate D2E/DX2                !
 ! D46   D(38,9,39,17)          91.1643         estimate D2E/DX2                !
 ! D47   D(1,10,16,22)        -156.5411         estimate D2E/DX2                !
 ! D48   D(1,10,16,26)          84.7128         estimate D2E/DX2                !
 ! D49   D(1,10,16,39)         -31.9548         estimate D2E/DX2                !
 ! D50   D(11,10,16,22)        -38.0288         estimate D2E/DX2                !
 ! D51   D(11,10,16,26)       -156.7749         estimate D2E/DX2                !
 ! D52   D(11,10,16,39)         86.5575         estimate D2E/DX2                !
 ! D53   D(12,10,16,22)         80.5852         estimate D2E/DX2                !
 ! D54   D(12,10,16,26)        -38.1609         estimate D2E/DX2                !
 ! D55   D(12,10,16,39)       -154.8285         estimate D2E/DX2                !
 ! D56   D(2,13,17,30)         156.5421         estimate D2E/DX2                !
 ! D57   D(2,13,17,34)         -84.7109         estimate D2E/DX2                !
 ! D58   D(2,13,17,39)          31.9573         estimate D2E/DX2                !
 ! D59   D(14,13,17,30)         38.0289         estimate D2E/DX2                !
 ! D60   D(14,13,17,34)        156.7759         estimate D2E/DX2                !
 ! D61   D(14,13,17,39)        -86.5559         estimate D2E/DX2                !
 ! D62   D(15,13,17,30)        -80.5853         estimate D2E/DX2                !
 ! D63   D(15,13,17,34)         38.1618         estimate D2E/DX2                !
 ! D64   D(15,13,17,39)        154.8299         estimate D2E/DX2                !
 ! D65   D(10,16,22,23)       -175.6728         estimate D2E/DX2                !
 ! D66   D(10,16,22,24)        -55.7705         estimate D2E/DX2                !
 ! D67   D(10,16,22,25)         65.3078         estimate D2E/DX2                !
 ! D68   D(26,16,22,23)        -56.7154         estimate D2E/DX2                !
 ! D69   D(26,16,22,24)         63.1869         estimate D2E/DX2                !
 ! D70   D(26,16,22,25)       -175.7349         estimate D2E/DX2                !
 ! D71   D(39,16,22,23)         67.8715         estimate D2E/DX2                !
 ! D72   D(39,16,22,24)       -172.2262         estimate D2E/DX2                !
 ! D73   D(39,16,22,25)        -51.148          estimate D2E/DX2                !
 ! D74   D(10,16,26,27)         64.4432         estimate D2E/DX2                !
 ! D75   D(10,16,26,28)       -175.1241         estimate D2E/DX2                !
 ! D76   D(10,16,26,29)        -56.541          estimate D2E/DX2                !
 ! D77   D(22,16,26,27)        -54.3797         estimate D2E/DX2                !
 ! D78   D(22,16,26,28)         66.053          estimate D2E/DX2                !
 ! D79   D(22,16,26,29)       -175.3639         estimate D2E/DX2                !
 ! D80   D(39,16,26,27)        177.064          estimate D2E/DX2                !
 ! D81   D(39,16,26,28)        -62.5033         estimate D2E/DX2                !
 ! D82   D(39,16,26,29)         56.0798         estimate D2E/DX2                !
 ! D83   D(10,16,39,9)           1.5077         estimate D2E/DX2                !
 ! D84   D(10,16,39,18)        179.9431         estimate D2E/DX2                !
 ! D85   D(22,16,39,9)         121.0044         estimate D2E/DX2                !
 ! D86   D(22,16,39,18)        -60.5602         estimate D2E/DX2                !
 ! D87   D(26,16,39,9)        -114.8237         estimate D2E/DX2                !
 ! D88   D(26,16,39,18)         63.6117         estimate D2E/DX2                !
 ! D89   D(13,17,30,31)         55.7707         estimate D2E/DX2                !
 ! D90   D(13,17,30,32)        175.6721         estimate D2E/DX2                !
 ! D91   D(13,17,30,33)        -65.3072         estimate D2E/DX2                !
 ! D92   D(34,17,30,31)        -63.1839         estimate D2E/DX2                !
 ! D93   D(34,17,30,32)         56.7175         estimate D2E/DX2                !
 ! D94   D(34,17,30,33)        175.7382         estimate D2E/DX2                !
 ! D95   D(39,17,30,31)        172.2252         estimate D2E/DX2                !
 ! D96   D(39,17,30,32)        -67.8735         estimate D2E/DX2                !
 ! D97   D(39,17,30,33)         51.1472         estimate D2E/DX2                !
 ! D98   D(13,17,34,35)        175.1248         estimate D2E/DX2                !
 ! D99   D(13,17,34,36)        -64.4422         estimate D2E/DX2                !
 ! D100  D(13,17,34,37)         56.5413         estimate D2E/DX2                !
 ! D101  D(30,17,34,35)        -66.0545         estimate D2E/DX2                !
 ! D102  D(30,17,34,36)         54.3785         estimate D2E/DX2                !
 ! D103  D(30,17,34,37)        175.3621         estimate D2E/DX2                !
 ! D104  D(39,17,34,35)         62.5043         estimate D2E/DX2                !
 ! D105  D(39,17,34,36)       -177.0627         estimate D2E/DX2                !
 ! D106  D(39,17,34,37)        -56.0792         estimate D2E/DX2                !
 ! D107  D(13,17,39,9)          -1.51           estimate D2E/DX2                !
 ! D108  D(13,17,39,18)       -179.9453         estimate D2E/DX2                !
 ! D109  D(30,17,39,9)        -121.0041         estimate D2E/DX2                !
 ! D110  D(30,17,39,18)         60.5606         estimate D2E/DX2                !
 ! D111  D(34,17,39,9)         114.8191         estimate D2E/DX2                !
 ! D112  D(34,17,39,18)        -63.6162         estimate D2E/DX2                !
 ! D113  D(19,18,39,16)        -88.7281         estimate D2E/DX2                !
 ! D114  D(19,18,39,17)         88.7192         estimate D2E/DX2                !
 ! D115  D(20,18,39,16)         29.9595         estimate D2E/DX2                !
 ! D116  D(20,18,39,17)       -152.5932         estimate D2E/DX2                !
 ! D117  D(21,18,39,16)        152.5829         estimate D2E/DX2                !
 ! D118  D(21,18,39,17)        -29.9699         estimate D2E/DX2                !
 --------------------------------------------------------------------------------
 Trust Radius=3.00D-01 FncErr=1.00D-07 GrdErr=1.00D-06 EigMax=2.50D+02 EigMin=1.00D-04
 Number of steps in this run=    234 maximum allowed number of steps=    234.
 GradGradGradGradGradGradGradGradGradGradGradGradGradGradGradGradGradGrad

                          Input orientation:                          
 ---------------------------------------------------------------------
 Center     Atomic      Atomic             Coordinates (Angstroms)
 Number     Number       Type             X           Y           Z
 ---------------------------------------------------------------------
      1          6           0       -1.543950   -1.205790   -0.650810
      2          6           0       -1.544230    1.205450   -0.650820
      3          6           0       -2.708320   -1.231530    0.053410
      4          6           0       -2.708600    1.230930    0.053400
      5          6           0       -3.455470   -0.000390    0.363740
      6          1           0       -3.058480   -2.172030    0.490480
      7          1           0       -3.058980    2.171350    0.490470
      8          8           0       -4.550500   -0.000510    0.931190
      9          7           0       -1.042080   -0.000110   -1.191840
     10          6           0       -0.597990   -2.352450   -0.892160
     11          1           0       -0.273110   -2.365800   -1.950890
     12          1           0       -1.057390   -3.331590   -0.647020
     13          6           0       -0.598530    2.352320   -0.892170
     14          1           0       -0.273610    2.365740   -1.950890
     15          1           0       -1.058150    3.331350   -0.647040
     16          7           0        0.626510   -2.110190   -0.055870
     17          7           0        0.625990    2.110340   -0.055840
     18          6           0        2.472330    0.000190    1.160340
     19          1           0        2.181580    0.000210    2.238550
     20          1           0        3.139290   -0.882100    1.033860
     21          1           0        3.139250    0.882500    1.033810
     22          6           0        1.769340   -2.843400   -0.651320
     23          1           0        2.646200   -2.730810    0.000730
     24          1           0        1.519870   -3.921650   -0.749450
     25          1           0        1.993090   -2.409500   -1.637600
     26          6           0        0.389410   -2.624890    1.316640
     27          1           0        0.255750   -3.728830    1.292830
     28          1           0        1.257830   -2.362400    1.938890
     29          1           0       -0.509160   -2.141280    1.728730
     30          6           0        1.768650    2.843830   -0.651290
     31          1           0        1.518900    3.922020   -0.749420
     32          1           0        2.645530    2.731480    0.000760
     33          1           0        1.992520    2.410000   -1.637560
     34          6           0        0.388650    2.624990    1.316650
     35          1           0        1.257080    2.362740    1.938980
     36          1           0        0.254700    3.728900    1.292810
     37          1           0       -0.509840    2.141150    1.728680
     38          1           0       -0.771820   -0.000080   -2.183120
     39         77           0        0.778080    0.000090   -0.008250
 ---------------------------------------------------------------------
                    Distance matrix (angstroms):
                    1          2          3          4          5
     1  C    0.000000
     2  C    2.411240   0.000000
     3  C    1.361009   2.791042   0.000000
     4  C    2.791044   1.361004   2.462460   0.000000
     5  C    2.477137   2.477140   1.473175   1.473185   0.000000
     6  H    2.128371   3.873356   1.094615   3.448709   2.211263
     7  H    3.873359   2.128373   3.448706   1.094617   2.211271
     8  O    3.604825   3.604824   2.383178   2.383182   1.233325
     9  N    1.413595   1.413588   2.417312   2.417307   2.871286
    10  C    1.505961   3.689481   2.569836   4.264900   3.908281
    11  H    2.156587   4.007462   3.351721   4.783854   4.591306
    12  H    2.180775   4.563087   2.761598   4.902415   4.227211
    13  C    3.689474   1.505958   4.264893   2.569828   3.908281
    14  H    4.007468   2.156602   4.783867   3.351738   4.591331
    15  H    4.563075   2.180766   4.902404   2.761588   4.227211
    16  N    2.425446   4.007436   3.450373   4.722074   4.614097
    17  N    4.007412   2.425424   4.722039   3.450331   4.614059
    18  C    4.567839   4.567900   5.438894   5.438940   5.981086
    19  H    4.866458   4.866490   5.495739   5.495763   5.940644
    20  H    4.987547   5.397349   5.939522   6.294761   6.687102
    21  H    5.397338   4.987711   6.294790   5.939693   6.687213
    22  C    3.695897   5.231915   4.810843   6.094977   6.034210
    23  H    4.506390   5.786049   5.560710   6.661234   6.694576
    24  H    4.095439   5.973742   5.075325   6.713688   6.431911
    25  H    3.864366   5.153080   5.133263   6.182079   6.284583
    26  C    3.102029   4.720314   3.623967   5.104977   4.751749
    27  H    3.658195   5.600431   4.069199   5.909550   5.342062
    28  H    3.986761   5.223762   4.534782   5.674474   5.502307
    29  H    2.758286   4.234883   2.910438   4.360742   3.889389
    30  C    5.231897   3.695871   6.094951   4.810801   6.034178
    31  H    5.973710   4.095393   6.713643   5.075258   6.431857
    32  H    5.786051   4.506375   6.661226   5.560677   6.694555
    33  H    5.153080   3.864350   6.182072   5.133233   6.284567
    34  C    4.720245   3.101944   5.104875   3.623832   4.751622
    35  H    5.223714   3.986693   5.674376   4.534647   5.502172
    36  H    5.600354   3.658093   5.909439   4.069046   5.341923
    37  H    4.234780   2.758173   4.360598   2.910259   3.889215
    38  H    2.097116   2.097108   3.204461   3.204454   3.699794
    39  Ir   2.694226   2.694237   3.698064   3.698068   4.249861
                    6          7          8          9         10
     6  H    0.000000
     7  H    4.343380   0.000000
     8  O    2.671301   2.671300   0.000000
     9  N    3.407830   3.407828   4.100764   0.000000
    10  C    2.828119   5.332251   4.947581   2.412577   0.000000
    11  H    3.708924   5.857221   5.674244   2.600762   1.107535
    12  H    2.577372   5.965115   5.078253   3.375770   1.108989
    13  C    5.332243   2.828119   4.947577   2.412564   4.704770
    14  H    5.857230   3.708950   5.674268   2.600759   4.846385
    15  H    5.965104   2.577373   5.078249   3.375750   5.707663
    16  N    3.725785   5.675642   5.676836   2.920113   1.502488
    17  N    5.675604   3.725746   5.676792   2.920095   4.702558
    18  C    5.979725   5.979804   7.026568   4.228928   4.378874
    19  H    5.935706   5.935748   6.857849   4.707394   4.802329
    20  H    6.353860   6.930900   7.740841   4.818247   4.454070
    21  H    6.930889   6.354086   7.740962   4.818302   5.304830
    22  C    5.006225   7.054366   7.108216   4.034915   2.429668
    23  H    5.752866   7.537911   7.753244   4.741556   3.386027
    24  H    5.055679   7.721912   7.419520   4.705079   2.639713
    25  H    5.486663   7.143968   7.431049   3.900784   2.696782
    26  C    3.574293   5.964719   5.607018   3.902705   2.434744
    27  H    3.748535   6.814935   6.093537   4.664901   2.719830
    28  H    4.556826   6.425547   6.350644   4.546589   3.385116
    29  H    2.834297   5.160780   4.642348   3.660375   2.630883
    30  C    7.054337   5.006182   7.108176   4.034897   5.714922
    31  H    7.721865   5.055607   7.419455   4.705046   6.623486
    32  H    7.537902   5.752825   7.753213   4.741555   6.096234
    33  H    7.143959   5.486631   7.431026   3.900781   5.472412
    34  C    5.964618   3.574145   5.606874   3.902648   5.534185
    35  H    6.425445   4.556664   6.350478   4.546563   5.804279
    36  H    6.814827   3.748358   6.093375   4.664830   6.517975
    37  H    5.160642   2.834112   4.642158   3.660288   5.202789
    38  H    4.134528   4.134524   4.896667   1.027461   2.688948
    39  Ir   4.436894   4.436904   5.410759   2.171144   2.865189
                   11         12         13         14         15
    11  H    0.000000
    12  H    1.802199   0.000000
    13  C    4.846384   5.707669   0.000000
    14  H    4.731540   5.896945   1.107538   0.000000
    15  H    5.896934   6.662940   1.108981   1.802202   0.000000
    16  N    2.113233   2.162590   4.702565   4.943204   5.726947
    17  N    4.943220   5.726942   1.502482   2.113226   2.162570
    18  C    4.776516   5.179405   4.378983   4.776585   5.179531
    19  H    5.401381   5.469765   4.802379   5.401398   5.469824
    20  H    4.770175   5.141739   5.304938   5.577193   6.180379
    21  H    5.577104   6.180253   4.454298   4.770330   5.142012
    22  C    2.467506   2.868580   5.714921   5.744360   6.791337
    23  H    3.530499   3.807505   6.096208   6.189421   7.133835
    24  H    2.660621   2.645927   6.623495   6.647654   7.698226
    25  H    2.288170   3.337203   5.472393   5.295186   6.576369
    26  C    3.344071   2.539412   5.534211   6.001894   6.436479
    27  H    3.557986   2.375953   6.518006   6.924285   7.438788
    28  H    4.180213   3.603679   5.804271   6.311181   6.668552
    29  H    3.694013   2.713224   5.202840   5.823085   5.991273
    30  C    5.744388   6.791342   2.429639   2.467459   2.868535
    31  H    6.647670   7.698221   2.639668   2.660569   2.645857
    32  H    6.189480   7.133867   3.386002   3.530451   3.807458
    33  H    5.295236   6.576395   2.696752   2.288117   3.337155
    34  C    6.001894   6.436449   2.434699   3.344042   2.539341
    35  H    6.311233   6.668550   3.385086   4.180204   3.603609
    36  H    6.924272   7.438753   2.719763   3.557936   2.375845
    37  H    5.823047   5.991214   2.630839   3.693979   2.713165
    38  H    2.428842   3.679689   2.688934   2.428837   3.679667
    39  Ir   3.236709   3.857080   2.865197   3.236696   3.857083
                   16         17         18         19         20
    16  N    0.000000
    17  N    4.220530   0.000000
    18  C    3.056129   3.056272   0.000000
    19  H    3.483733   3.483782   1.116724   0.000000
    20  H    3.001630   4.056947   1.113224   1.773967   0.000000
    21  H    4.056779   3.001900   1.113222   1.773969   1.764600
    22  C    1.482639   5.118729   3.444171   4.075219   2.926310
    23  H    2.113651   5.246063   2.972085   3.561205   2.174448
    24  H    2.135540   6.137183   4.464897   4.974635   3.878348
    25  H    2.111634   4.979948   3.723539   4.568016   3.283812
    26  C    1.484896   4.935795   3.354703   3.309523   3.267893
    27  H    2.139264   6.004323   4.340089   4.302203   4.060264
    28  H    2.107426   4.937973   2.768209   2.554415   2.559347
    29  H    2.115540   4.748634   3.714599   3.476489   3.921679
    30  C    5.118723   1.482646   3.444337   4.075274   4.312881
    31  H    6.137176   2.135539   4.465083   4.974706   5.374507
    32  H    5.246086   2.113660   2.972300   3.561290   3.790654
    33  H    4.979944   2.111644   3.723660   4.568048   4.391980
    34  C    4.935820   1.484899   3.354956   3.309678   4.466058
    35  H    4.938031   2.107436   2.768529   2.554602   3.858879
    36  H    6.004344   2.139264   4.340358   4.302374   5.445111
    37  H    4.748663   2.115554   3.714843   3.476684   4.789464
    38  H    3.306521   3.306519   4.658673   5.317305   5.140399
    39  Ir   2.116252   2.116259   2.058175   2.649136   2.727557
                   21         22         23         24         25
    21  H    0.000000
    22  C    4.312615   0.000000
    23  H    3.790298   1.098512   0.000000
    24  H    5.374222   1.111075   1.802634   0.000000
    25  H    4.391740   1.100491   1.792740   1.816410   0.000000
    26  C    4.465803   2.413466   2.614563   2.688541   3.368340
    27  H    5.444817   2.618141   2.894791   2.409582   3.653273
    28  H    3.858534   2.683690   2.412418   3.118830   3.651590
    29  H    4.789265   3.368853   3.645521   3.664431   4.203020
    30  C    2.926589   5.687230   5.680831   6.770764   5.349828
    31  H    3.878676   6.770764   6.789232   7.843670   6.411074
    32  H    2.174782   5.680863   5.462290   6.789261   5.435032
    33  H    3.283971   5.349831   5.434999   6.411079   4.819500
    34  C    3.268344   5.973483   5.959259   6.957508   6.053752
    35  H    2.559884   5.837462   5.624119   6.840342   6.008986
    36  H    4.060751   7.019181   7.008323   8.018877   7.020631
    37  H    3.922104   5.975349   6.056599   6.856996   6.189096
    38  H    5.140433   4.109547   4.889678   4.762978   3.707779
    39  Ir   2.727574   3.079216   3.308741   4.059517   3.152325
                   26         27         28         29         30
    26  C    0.000000
    27  H    1.112257   0.000000
    28  H    1.100113   1.813474   0.000000
    29  H    1.100511   1.815327   1.793130   0.000000
    30  C    5.973437   7.019140   5.837362   5.975302   0.000000
    31  H    6.957470   8.018843   6.840256   6.856957   1.111080
    32  H    5.959221   7.008288   5.624026   6.056545   1.098504
    33  H    6.053708   7.020598   6.008874   6.189060   1.100479
    34  C    5.249880   6.355254   5.100658   4.867566   2.413520
    35  H    5.100648   6.207044   4.725140   4.842521   2.683775
    36  H    6.355263   7.457730   6.207062   5.935699   2.618190
    37  H    4.867604   5.935719   4.842603   4.282430   3.368907
    38  H    4.526191   5.200164   5.166333   4.467247   4.109540
    39  Ir   2.965960   3.983777   3.098850   3.042951   3.079218
                   31         32         33         34         35
    31  H    0.000000
    32  H    1.802623   0.000000
    33  H    1.816401   1.792725   0.000000
    34  C    2.688568   2.614654   3.368379   0.000000
    35  H    3.118878   2.412563   3.651677   1.100109   0.000000
    36  H    2.409606   2.894876   3.653298   1.112263   1.813476
    37  H    3.664460   3.645622   4.203053   1.100524   1.793135
    38  H    4.762957   4.889686   3.707789   4.526154   5.166339
    39  Ir   4.059517   3.308767   3.152330   2.965993   3.098913
                   36         37         38         39
    36  H    0.000000
    37  H    1.815339   0.000000
    38  H    5.200108   4.467178   0.000000
    39  Ir   3.983806   3.042992   2.670627   0.000000
 Stoichiometry    C12H22IrN3O
 Framework group  C1[X(C12H22IrN3O)]
 Deg. of freedom   111
 Full point group                 C1      NOp   1
 Largest Abelian subgroup         C1      NOp   1
 Largest concise Abelian subgroup C1      NOp   1
                         Standard orientation:                         
 ---------------------------------------------------------------------
 Center     Atomic      Atomic             Coordinates (Angstroms)
 Number     Number       Type             X           Y           Z
 ---------------------------------------------------------------------
      1          6           0       -1.543955   -1.205784   -0.650808
      2          6           0       -1.544224    1.205456   -0.650818
      3          6           0       -2.708325   -1.231519    0.053412
      4          6           0       -2.708594    1.230941    0.053402
      5          6           0       -3.455469   -0.000375    0.363742
      6          1           0       -3.058489   -2.172017    0.490482
      7          1           0       -3.058970    2.171363    0.490472
      8          8           0       -4.550499   -0.000491    0.931192
      9          7           0       -1.042079   -0.000106   -1.191838
     10          6           0       -0.598000   -2.352448   -0.892158
     11          1           0       -0.273120   -2.365799   -1.950888
     12          1           0       -1.057404   -3.331586   -0.647018
     13          6           0       -0.598519    2.352322   -0.892168
     14          1           0       -0.273599    2.365741   -1.950888
     15          1           0       -1.058135    3.331354   -0.647038
     16          7           0        0.626501   -2.110193   -0.055868
     17          7           0        0.626000    2.110337   -0.055838
     18          6           0        2.472331    0.000179    1.160342
     19          1           0        2.181581    0.000200    2.238552
     20          1           0        3.139287   -0.882114    1.033862
     21          1           0        3.139254    0.882486    1.033812
     22          6           0        1.769328   -2.843408   -0.651318
     23          1           0        2.646189   -2.730822    0.000732
     24          1           0        1.519854   -3.921657   -0.749448
     25          1           0        1.993080   -2.409509   -1.637598
     26          6           0        0.389399   -2.624892    1.316642
     27          1           0        0.255735   -3.728831    1.292832
     28          1           0        1.257820   -2.362406    1.938892
     29          1           0       -0.509169   -2.141278    1.728732
     30          6           0        1.768663    2.843822   -0.651288
     31          1           0        1.518917    3.922013   -0.749418
     32          1           0        2.645542    2.731468    0.000762
     33          1           0        1.992531    2.409991   -1.637558
     34          6           0        0.388662    2.624988    1.316652
     35          1           0        1.257091    2.362734    1.938982
     36          1           0        0.254717    3.728899    1.292812
     37          1           0       -0.509830    2.141152    1.728682
     38          1           0       -0.771819   -0.000077   -2.183118
     39         77           0        0.778081    0.000086   -0.008248
 ---------------------------------------------------------------------
 Rotational constants (GHZ):           0.4972381           0.3994777           0.2622402
 Standard basis: def2TZVPP (5D, 7F)
 There are   977 symmetry adapted cartesian basis functions of A   symmetry.
 There are   860 symmetry adapted basis functions of A   symmetry.
   860 basis functions,  1290 primitive gaussians,   977 cartesian basis functions
    70 alpha electrons       70 beta electrons
       nuclear repulsion energy      1551.3131125226 Hartrees.
 NAtoms=   39 NActive=   39 NUniq=   39 SFac= 1.00D+00 NAtFMM=   60 NAOKFM=F Big=F
 Integral buffers will be    131072 words long.
 Raffenetti 2 integral format.
 Two-electron integral symmetry is turned on.
 Nuclear repulsion after empirical dispersion term =     1551.2672568129 Hartrees.
 ------------------------------------------------------------------------------
 Polarizable Continuum Model (PCM)
 =================================
 Model                : PCM.
 Atomic radii         : UFF (Universal Force Field).
 Polarization charges : Total charges.
 Charge compensation  : None.
 Solution method      : On-the-fly selection.
 Cavity type          : Scaled VdW (van der Waals Surface) (Alpha=1.100).
 Cavity algorithm     : GePol (No added spheres)
                        Default sphere list used, NSphG=   39.
                        Lebedev-Laikov grids with approx.  5.0 points / Ang**2.
                        Smoothing algorithm: York/Karplus (Gamma=1.0000).
                        Polarization charges: spherical gaussians, with
                                              point-specific exponents (IZeta= 3).
                        Self-potential: point-specific (ISelfS= 7).
                        Self-field    : sphere-specific E.n sum rule (ISelfD= 2).
 1st derivatives      : Analytical E(r).r(x)/FMM algorithm (CHGder, D1EAlg=3).
                        Cavity 1st derivative terms included.
 Solvent              : Dichloromethane, Eps=   8.930000 Eps(inf)=   2.028346
 ------------------------------------------------------------------------------
 One-electron integrals computed using PRISM.
 PrsmSu:  requested number of processors reduced to:   5 ShMem   1 Linda.
   1 Symmetry operations used in ECPInt.
 ECPInt:  NShTT=   52650 NPrTT=  135893 LenC2=   48283 LenP2D=   95448.
 LDataN:  DoStor=T MaxTD1= 9 Len=  602
 NBasis=   860 RedAO= T EigKep=  2.40D-05  NBF=   860
 NBsUse=   860 1.00D-06 EigRej= -1.00D+00 NBFU=   860
 Defaulting to unpruned grid for atomic number  77.
 ExpMin= 5.00D-02 ExpMax= 2.70D+04 ExpMxC= 9.22D+02 IAcc=3 IRadAn=         5 AccDes= 0.00D+00
 Harris functional with IExCor= 4639 and IRadAn=       5 diagonalized for initial guess.
 HarFok:  IExCor= 4639 AccDes= 0.00D+00 IRadAn=         5 IDoV= 1 UseB2=F ITyADJ=14
 ICtDFT=  3500011 ScaDFX=  1.000000  1.000000  1.000000  1.000000
 Defaulting to unpruned grid for atomic number  77.
 FoFCou: FMM=F IPFlag=           0 FMFlag=      100000 FMFlg1=           0
         NFxFlg=           0 DoJE=T BraDBF=F KetDBF=T FulRan=T
         wScrn=  0.000000 ICntrl=       500 IOpCl=  0 I1Cent=   200000004 NGrid=           0
         NMat0=    1 NMatS0=      1 NMatT0=    0 NMatD0=    1 NMtDS0=    0 NMtDT0=    0
 Petite list used in FoFCou.
 Requested convergence on RMS density matrix=1.00D-08 within 128 cycles.
 Requested convergence on MAX density matrix=1.00D-06.
 Requested convergence on             energy=1.00D-06.
 No special actions if energy rises.
 Defaulting to unpruned grid for atomic number  77.
 Defaulting to unpruned grid for atomic number  77.
 Defaulting to unpruned grid for atomic number  77.
 Defaulting to unpruned grid for atomic number  77.
 Defaulting to unpruned grid for atomic number  77.
 Defaulting to unpruned grid for atomic number  77.
 Defaulting to unpruned grid for atomic number  77.
 Defaulting to unpruned grid for atomic number  77.
 Inv3:  Mode=1 IEnd=    18735003.
 Iteration    1 A*A^-1 deviation from unit magnitude is 3.44D-15 for    245.
 Iteration    1 A*A^-1 deviation from orthogonality  is 1.86D-15 for   1765    116.
 Iteration    1 A^-1*A deviation from unit magnitude is 3.11D-15 for    225.
 Iteration    1 A^-1*A deviation from orthogonality  is 2.17D-15 for   1824     45.
 Error on total polarization charges =  0.01751
 SCF Done:  E(RwB97XD) =  -814.434754027     A.U. after   20 cycles
            NFock= 20  Conv=0.12D-08     -V/T= 2.0985

 **********************************************************************

            Population analysis using the SCF Density.

 **********************************************************************

 Orbital symmetries:
       Occupied  (A) (A) (A) (A) (A) (A) (A) (A) (A) (A) (A) (A)
                 (A) (A) (A) (A) (A) (A) (A) (A) (A) (A) (A) (A)
                 (A) (A) (A) (A) (A) (A) (A) (A) (A) (A) (A) (A)
                 (A) (A) (A) (A) (A) (A) (A) (A) (A) (A) (A) (A)
                 (A) (A) (A) (A) (A) (A) (A) (A) (A) (A) (A) (A)
                 (A) (A) (A) (A) (A) (A) (A) (A) (A) (A)
       Virtual   (A) (A) (A) (A) (A) (A) (A) (A) (A) (A) (A) (A)
                 (A) (A) (A) (A) (A) (A) (A) (A) (A) (A) (A) (A)
                 (A) (A) (A) (A) (A) (A) (A) (A) (A) (A) (A) (A)
                 (A) (A) (A) (A) (A) (A) (A) (A) (A) (A) (A) (A)
                 (A) (A) (A) (A) (A) (A) (A) (A) (A) (A) (A) (A)
                 (A) (A) (A) (A) (A) (A) (A) (A) (A) (A) (A) (A)
                 (A) (A) (A) (A) (A) (A) (A) (A) (A) (A) (A) (A)
                 (A) (A) (A) (A) (A) (A) (A) (A) (A) (A) (A) (A)
                 (A) (A) (A) (A) (A) (A) (A) (A) (A) (A) (A) (A)
                 (A) (A) (A) (A) (A) (A) (A) (A) (A) (A) (A) (A)
                 (A) (A) (A) (A) (A) (A) (A) (A) (A) (A) (A) (A)
                 (A) (A) (A) (A) (A) (A) (A) (A) (A) (A) (A) (A)
                 (A) (A) (A) (A) (A) (A) (A) (A) (A) (A) (A) (A)
                 (A) (A) (A) (A) (A) (A) (A) (A) (A) (A) (A) (A)
                 (A) (A) (A) (A) (A) (A) (A) (A) (A) (A) (A) (A)
                 (A) (A) (A) (A) (A) (A) (A) (A) (A) (A) (A) (A)
                 (A) (A) (A) (A) (A) (A) (A) (A) (A) (A) (A) (A)
                 (A) (A) (A) (A) (A) (A) (A) (A) (A) (A) (A) (A)
                 (A) (A) (A) (A) (A) (A) (A) (A) (A) (A) (A) (A)
                 (A) (A) (A) (A) (A) (A) (A) (A) (A) (A) (A) (A)
                 (A) (A) (A) (A) (A) (A) (A) (A) (A) (A) (A) (A)
                 (A) (A) (A) (A) (A) (A) (A) (A) (A) (A) (A) (A)
                 (A) (A) (A) (A) (A) (A) (A) (A) (A) (A) (A) (A)
                 (A) (A) (A) (A) (A) (A) (A) (A) (A) (A) (A) (A)
                 (A) (A) (A) (A) (A) (A) (A) (A) (A) (A) (A) (A)
                 (A) (A) (A) (A) (A) (A) (A) (A) (A) (A) (A) (A)
                 (A) (A) (A) (A) (A) (A) (A) (A) (A) (A) (A) (A)
                 (A) (A) (A) (A) (A) (A) (A) (A) (A) (A) (A) (A)
                 (A) (A) (A) (A) (A) (A) (A) (A) (A) (A) (A) (A)
                 (A) (A) (A) (A) (A) (A) (A) (A) (A) (A) (A) (A)
                 (A) (A) (A) (A) (A) (A) (A) (A) (A) (A) (A) (A)
                 (A) (A) (A) (A) (A) (A) (A) (A) (A) (A) (A) (A)
                 (A) (A) (A) (A) (A) (A) (A) (A) (A) (A) (A) (A)
                 (A) (A) (A) (A) (A) (A) (A) (A) (A) (A) (A) (A)
                 (A) (A) (A) (A) (A) (A) (A) (A) (A) (A) (A) (A)
                 (A) (A) (A) (A) (A) (A) (A) (A) (A) (A) (A) (A)
                 (A) (A) (A) (A) (A) (A) (A) (A) (A) (A) (A) (A)
                 (A) (A) (A) (A) (A) (A) (A) (A) (A) (A) (A) (A)
                 (A) (A) (A) (A) (A) (A) (A) (A) (A) (A) (A) (A)
                 (A) (A) (A) (A) (A) (A) (A) (A) (A) (A) (A) (A)
                 (A) (A) (A) (A) (A) (A) (A) (A) (A) (A) (A) (A)
                 (A) (A) (A) (A) (A) (A) (A) (A) (A) (A) (A) (A)
                 (A) (A) (A) (A) (A) (A) (A) (A) (A) (A) (A) (A)
                 (A) (A) (A) (A) (A) (A) (A) (A) (A) (A) (A) (A)
                 (A) (A) (A) (A) (A) (A) (A) (A) (A) (A) (A) (A)
                 (A) (A) (A) (A) (A) (A) (A) (A) (A) (A) (A) (A)
                 (A) (A) (A) (A) (A) (A) (A) (A) (A) (A) (A) (A)
                 (A) (A) (A) (A) (A) (A) (A) (A) (A) (A) (A) (A)
                 (A) (A) (A) (A) (A) (A) (A) (A) (A) (A) (A) (A)
                 (A) (A) (A) (A) (A) (A) (A) (A) (A) (A) (A) (A)
                 (A) (A) (A) (A) (A) (A) (A) (A) (A) (A) (A) (A)
                 (A) (A) (A) (A) (A) (A) (A) (A) (A) (A) (A) (A)
                 (A) (A) (A) (A) (A) (A) (A) (A) (A) (A) (A) (A)
                 (A) (A) (A) (A) (A) (A) (A) (A) (A) (A) (A) (A)
                 (A) (A) (A) (A) (A) (A) (A) (A) (A) (A) (A) (A)
                 (A) (A) (A) (A) (A) (A) (A) (A) (A) (A) (A) (A)
                 (A) (A) (A) (A) (A) (A) (A) (A) (A) (A) (A) (A)
                 (A) (A) (A) (A) (A) (A) (A) (A) (A) (A) (A) (A)
                 (A) (A) (A) (A) (A) (A) (A) (A) (A) (A) (A) (A)
                 (A) (A) (A) (A) (A) (A) (A) (A) (A) (A) (A) (A)
                 (A) (A) (A) (A) (A) (A) (A) (A) (A) (A) (A) (A)
                 (A) (A) (A) (A) (A) (A) (A) (A) (A) (A) (A) (A)
                 (A) (A) (A) (A) (A) (A) (A) (A) (A) (A) (A) (A)
                 (A) (A) (A) (A) (A) (A) (A) (A) (A) (A) (A) (A)
                 (A) (A) (A) (A) (A) (A) (A) (A) (A) (A) (A) (A)
                 (A) (A) (A) (A) (A) (A) (A) (A) (A) (A)
 The electronic state is 1-A.
 Alpha  occ. eigenvalues --  -19.21665 -14.50887 -14.49545 -14.49545 -10.37079
 Alpha  occ. eigenvalues --  -10.36415 -10.36413 -10.34245 -10.34245 -10.31404
 Alpha  occ. eigenvalues --  -10.31404 -10.31172 -10.31172 -10.29620 -10.29620
 Alpha  occ. eigenvalues --  -10.22800  -3.70100  -2.04241  -2.03870  -2.01398
 Alpha  occ. eigenvalues --   -1.12267  -1.09856  -1.05499  -1.04980  -0.91645
 Alpha  occ. eigenvalues --   -0.89457  -0.84011  -0.81556  -0.81344  -0.80803
 Alpha  occ. eigenvalues --   -0.73102  -0.73066  -0.72553  -0.70447  -0.69918
 Alpha  occ. eigenvalues --   -0.64989  -0.61513  -0.61193  -0.58442  -0.58144
 Alpha  occ. eigenvalues --   -0.57205  -0.57164  -0.56429  -0.55583  -0.52440
 Alpha  occ. eigenvalues --   -0.51792  -0.50974  -0.50140  -0.49582  -0.48720
 Alpha  occ. eigenvalues --   -0.48330  -0.47618  -0.46862  -0.46363  -0.46046
 Alpha  occ. eigenvalues --   -0.45960  -0.45381  -0.45345  -0.43108  -0.42682
 Alpha  occ. eigenvalues --   -0.42219  -0.36458  -0.36231  -0.35839  -0.33418
 Alpha  occ. eigenvalues --   -0.31512  -0.24745  -0.24182  -0.23241  -0.22747
 Alpha virt. eigenvalues --    0.00515   0.04399   0.08373   0.09989   0.11252
 Alpha virt. eigenvalues --    0.11709   0.12675   0.14075   0.14288   0.14763
 Alpha virt. eigenvalues --    0.15535   0.15665   0.16372   0.16781   0.17123
 Alpha virt. eigenvalues --    0.17210   0.17712   0.18237   0.18390   0.18555
 Alpha virt. eigenvalues --    0.19062   0.19800   0.20830   0.20948   0.21872
 Alpha virt. eigenvalues --    0.22180   0.22397   0.22829   0.23043   0.23546
 Alpha virt. eigenvalues --    0.23941   0.24419   0.24698   0.25667   0.27479
 Alpha virt. eigenvalues --    0.27866   0.28005   0.29048   0.29503   0.29622
 Alpha virt. eigenvalues --    0.29725   0.31038   0.31419   0.31870   0.33390
 Alpha virt. eigenvalues --    0.33571   0.34081   0.34904   0.35917   0.36649
 Alpha virt. eigenvalues --    0.36930   0.36969   0.37511   0.37964   0.38025
 Alpha virt. eigenvalues --    0.38553   0.39259   0.39500   0.40511   0.40589
 Alpha virt. eigenvalues --    0.41026   0.42150   0.42299   0.42557   0.43155
 Alpha virt. eigenvalues --    0.43490   0.44020   0.44667   0.46262   0.46683
 Alpha virt. eigenvalues --    0.46929   0.47229   0.47470   0.48275   0.48323
 Alpha virt. eigenvalues --    0.49556   0.49593   0.49924   0.50694   0.50793
 Alpha virt. eigenvalues --    0.50907   0.51158   0.51299   0.51387   0.52164
 Alpha virt. eigenvalues --    0.52365   0.52906   0.53015   0.53139   0.53575
 Alpha virt. eigenvalues --    0.54670   0.54823   0.55269   0.56003   0.56262
 Alpha virt. eigenvalues --    0.57089   0.57101   0.57294   0.57757   0.58218
 Alpha virt. eigenvalues --    0.59481   0.59651   0.60362   0.61129   0.62142
 Alpha virt. eigenvalues --    0.62383   0.62494   0.63622   0.65091   0.65434
 Alpha virt. eigenvalues --    0.65754   0.66156   0.66169   0.66976   0.67197
 Alpha virt. eigenvalues --    0.67576   0.68124   0.69592   0.70315   0.71349
 Alpha virt. eigenvalues --    0.72539   0.73226   0.74149   0.74714   0.75718
 Alpha virt. eigenvalues --    0.76103   0.76726   0.78357   0.79455   0.79625
 Alpha virt. eigenvalues --    0.80127   0.80994   0.81962   0.83478   0.83839
 Alpha virt. eigenvalues --    0.84640   0.85255   0.86668   0.87909   0.88340
 Alpha virt. eigenvalues --    0.88969   0.89921   0.90030   0.90930   0.90964
 Alpha virt. eigenvalues --    0.91808   0.92259   0.93234   0.94468   0.94817
 Alpha virt. eigenvalues --    0.95582   0.96298   0.96645   0.96966   0.97526
 Alpha virt. eigenvalues --    0.98170   0.99823   1.01469   1.01549   1.02225
 Alpha virt. eigenvalues --    1.03356   1.03825   1.03991   1.04489   1.05567
 Alpha virt. eigenvalues --    1.05869   1.06282   1.06431   1.07690   1.08371
 Alpha virt. eigenvalues --    1.08501   1.08686   1.08982   1.09351   1.11332
 Alpha virt. eigenvalues --    1.11471   1.11930   1.12141   1.12309   1.12985
 Alpha virt. eigenvalues --    1.14065   1.14139   1.15315   1.15382   1.15802
 Alpha virt. eigenvalues --    1.15885   1.17204   1.18793   1.19642   1.19748
 Alpha virt. eigenvalues --    1.20420   1.20461   1.22197   1.22410   1.22508
 Alpha virt. eigenvalues --    1.23112   1.24800   1.25137   1.25862   1.26051
 Alpha virt. eigenvalues --    1.27353   1.27869   1.28362   1.29230   1.30032
 Alpha virt. eigenvalues --    1.30342   1.30609   1.31014   1.31336   1.31472
 Alpha virt. eigenvalues --    1.32627   1.34839   1.35200   1.35530   1.36416
 Alpha virt. eigenvalues --    1.36868   1.37357   1.37412   1.38671   1.39119
 Alpha virt. eigenvalues --    1.39956   1.40930   1.41149   1.41871   1.42498
 Alpha virt. eigenvalues --    1.42571   1.43168   1.43266   1.44068   1.44671
 Alpha virt. eigenvalues --    1.45671   1.46151   1.47126   1.47750   1.47806
 Alpha virt. eigenvalues --    1.48607   1.48741   1.49698   1.49983   1.51596
 Alpha virt. eigenvalues --    1.52296   1.52687   1.52831   1.54221   1.55025
 Alpha virt. eigenvalues --    1.55096   1.55730   1.56105   1.56404   1.57463
 Alpha virt. eigenvalues --    1.58056   1.58303   1.60566   1.61453   1.61575
 Alpha virt. eigenvalues --    1.62247   1.62664   1.63306   1.63774   1.64838
 Alpha virt. eigenvalues --    1.65614   1.67251   1.67460   1.68472   1.68942
 Alpha virt. eigenvalues --    1.69618   1.69909   1.71057   1.71907   1.72690
 Alpha virt. eigenvalues --    1.73481   1.73644   1.75012   1.75580   1.75885
 Alpha virt. eigenvalues --    1.76009   1.77208   1.78692   1.79923   1.80655
 Alpha virt. eigenvalues --    1.81371   1.81614   1.82585   1.84080   1.84492
 Alpha virt. eigenvalues --    1.84619   1.84976   1.86927   1.87448   1.88034
 Alpha virt. eigenvalues --    1.89800   1.90933   1.92154   1.92709   1.93827
 Alpha virt. eigenvalues --    1.94204   1.95602   1.97109   1.99086   1.99921
 Alpha virt. eigenvalues --    2.01353   2.02328   2.02400   2.04177   2.04440
 Alpha virt. eigenvalues --    2.04781   2.08212   2.09542   2.10800   2.11882
 Alpha virt. eigenvalues --    2.12734   2.13313   2.15525   2.18055   2.18577
 Alpha virt. eigenvalues --    2.19075   2.21001   2.21649   2.22258   2.23200
 Alpha virt. eigenvalues --    2.24872   2.25313   2.27692   2.29494   2.29543
 Alpha virt. eigenvalues --    2.31704   2.32046   2.33335   2.33972   2.35295
 Alpha virt. eigenvalues --    2.36525   2.38996   2.39591   2.41977   2.44704
 Alpha virt. eigenvalues --    2.45063   2.45154   2.49156   2.49495   2.51522
 Alpha virt. eigenvalues --    2.52328   2.59061   2.59162   2.59408   2.60484
 Alpha virt. eigenvalues --    2.61869   2.64319   2.65066   2.66445   2.67684
 Alpha virt. eigenvalues --    2.67972   2.68028   2.68903   2.70035   2.71241
 Alpha virt. eigenvalues --    2.72558   2.72575   2.73656   2.74307   2.74970
 Alpha virt. eigenvalues --    2.75495   2.75651   2.76007   2.77465   2.79776
 Alpha virt. eigenvalues --    2.80521   2.81288   2.82423   2.83509   2.84259
 Alpha virt. eigenvalues --    2.84700   2.85456   2.85976   2.86797   2.87156
 Alpha virt. eigenvalues --    2.88480   2.89056   2.89223   2.90161   2.90398
 Alpha virt. eigenvalues --    2.91551   2.91668   2.92465   2.93194   2.93564
 Alpha virt. eigenvalues --    2.93814   2.94913   2.95457   2.95543   2.96766
 Alpha virt. eigenvalues --    2.97211   2.97527   2.97694   2.98192   2.99091
 Alpha virt. eigenvalues --    3.00242   3.01265   3.02476   3.02745   3.03024
 Alpha virt. eigenvalues --    3.03370   3.04368   3.04918   3.05690   3.05995
 Alpha virt. eigenvalues --    3.07006   3.07042   3.07987   3.08456   3.09527
 Alpha virt. eigenvalues --    3.10019   3.11351   3.11452   3.12508   3.12630
 Alpha virt. eigenvalues --    3.12833   3.13800   3.14868   3.15360   3.16073
 Alpha virt. eigenvalues --    3.16563   3.18013   3.18113   3.18602   3.18837
 Alpha virt. eigenvalues --    3.19591   3.20349   3.20817   3.21735   3.21894
 Alpha virt. eigenvalues --    3.22805   3.23802   3.24256   3.24696   3.25993
 Alpha virt. eigenvalues --    3.26926   3.27059   3.27839   3.28089   3.28584
 Alpha virt. eigenvalues --    3.29748   3.29911   3.31129   3.31181   3.33599
 Alpha virt. eigenvalues --    3.34176   3.34878   3.35674   3.35968   3.36851
 Alpha virt. eigenvalues --    3.37617   3.38804   3.39361   3.39451   3.40129
 Alpha virt. eigenvalues --    3.40562   3.41191   3.42251   3.42700   3.43288
 Alpha virt. eigenvalues --    3.43959   3.44246   3.44856   3.45185   3.45727
 Alpha virt. eigenvalues --    3.46929   3.47098   3.47824   3.47962   3.48210
 Alpha virt. eigenvalues --    3.49141   3.49273   3.49553   3.50406   3.51283
 Alpha virt. eigenvalues --    3.52315   3.52702   3.53482   3.53681   3.54467
 Alpha virt. eigenvalues --    3.54526   3.55242   3.55705   3.57735   3.58035
 Alpha virt. eigenvalues --    3.58264   3.59166   3.59207   3.61756   3.62015
 Alpha virt. eigenvalues --    3.62710   3.62838   3.64110   3.64672   3.64940
 Alpha virt. eigenvalues --    3.65170   3.65349   3.66181   3.67556   3.68154
 Alpha virt. eigenvalues --    3.68387   3.69102   3.69848   3.70358   3.71220
 Alpha virt. eigenvalues --    3.71984   3.73037   3.73744   3.74582   3.74712
 Alpha virt. eigenvalues --    3.75397   3.75477   3.76759   3.77710   3.78420
 Alpha virt. eigenvalues --    3.79140   3.79403   3.79614   3.81114   3.81205
 Alpha virt. eigenvalues --    3.81919   3.82947   3.83627   3.83992   3.84376
 Alpha virt. eigenvalues --    3.85437   3.85558   3.86465   3.87884   3.88518
 Alpha virt. eigenvalues --    3.88945   3.90678   3.91161   3.91911   3.92096
 Alpha virt. eigenvalues --    3.93218   3.94375   3.95033   3.97040   3.97585
 Alpha virt. eigenvalues --    3.98197   3.98551   3.99599   3.99684   4.00890
 Alpha virt. eigenvalues --    4.01356   4.02850   4.03398   4.03930   4.04557
 Alpha virt. eigenvalues --    4.05824   4.06731   4.06768   4.07241   4.08605
 Alpha virt. eigenvalues --    4.08776   4.09356   4.10708   4.11459   4.12029
 Alpha virt. eigenvalues --    4.13610   4.14156   4.14839   4.15008   4.15561
 Alpha virt. eigenvalues --    4.17988   4.18692   4.18832   4.19259   4.19745
 Alpha virt. eigenvalues --    4.21439   4.21701   4.22440   4.22516   4.22915
 Alpha virt. eigenvalues --    4.23658   4.24188   4.24619   4.25062   4.25348
 Alpha virt. eigenvalues --    4.25684   4.26060   4.26553   4.27098   4.27443
 Alpha virt. eigenvalues --    4.27817   4.28539   4.28894   4.29773   4.32063
 Alpha virt. eigenvalues --    4.32165   4.32916   4.33000   4.34112   4.34302
 Alpha virt. eigenvalues --    4.34576   4.34946   4.35226   4.35373   4.35491
 Alpha virt. eigenvalues --    4.37542   4.37940   4.38679   4.39629   4.41489
 Alpha virt. eigenvalues --    4.41698   4.41938   4.43325   4.45095   4.45365
 Alpha virt. eigenvalues --    4.46644   4.47902   4.48911   4.50141   4.51346
 Alpha virt. eigenvalues --    4.52712   4.53460   4.53917   4.54190   4.55905
 Alpha virt. eigenvalues --    4.56168   4.57603   4.58914   4.59249   4.63379
 Alpha virt. eigenvalues --    4.63641   4.64746   4.67079   4.68901   4.70109
 Alpha virt. eigenvalues --    4.71309   4.72107   4.73230   4.74174   4.74783
 Alpha virt. eigenvalues --    4.75519   4.76376   4.77155   4.78019   4.78670
 Alpha virt. eigenvalues --    4.80028   4.80308   4.81629   4.83011   4.84060
 Alpha virt. eigenvalues --    4.84405   4.88042   4.88357   4.90370   4.91417
 Alpha virt. eigenvalues --    4.92199   4.92252   4.94275   4.97127   4.97377
 Alpha virt. eigenvalues --    4.99574   5.00723   5.02523   5.02600   5.05424
 Alpha virt. eigenvalues --    5.05520   5.07234   5.07665   5.08469   5.08611
 Alpha virt. eigenvalues --    5.12246   5.13581   5.13639   5.13708   5.16525
 Alpha virt. eigenvalues --    5.17075   5.17212   5.17869   5.19537   5.21285
 Alpha virt. eigenvalues --    5.21754   5.22642   5.23494   5.23871   5.24025
 Alpha virt. eigenvalues --    5.24322   5.24971   5.25054   5.26637   5.27616
 Alpha virt. eigenvalues --    5.28020   5.29399   5.29763   5.29821   5.29950
 Alpha virt. eigenvalues --    5.31554   5.31907   5.32890   5.33180   5.33826
 Alpha virt. eigenvalues --    5.34710   5.36524   5.36701   5.38084   5.40206
 Alpha virt. eigenvalues --    5.40257   5.41684   5.42108   5.42218   5.44371
 Alpha virt. eigenvalues --    5.45038   5.46949   5.48209   5.48974   5.49884
 Alpha virt. eigenvalues --    5.51437   5.52569   5.52859   5.52920   5.53669
 Alpha virt. eigenvalues --    5.54576   5.55616   5.56544   5.59621   5.62321
 Alpha virt. eigenvalues --    5.63459   5.63559   5.64553   5.66093   5.67034
 Alpha virt. eigenvalues --    5.67260   5.67905   5.69582   5.70202   5.71661
 Alpha virt. eigenvalues --    5.72538   5.74426   5.75559   5.75827   5.77406
 Alpha virt. eigenvalues --    5.77507   5.78262   5.78815   5.79618   5.81611
 Alpha virt. eigenvalues --    5.81698   5.82686   5.82801   5.84265   5.85627
 Alpha virt. eigenvalues --    5.89300   5.89927   5.95812   5.97652   6.00279
 Alpha virt. eigenvalues --    6.01372   6.03637   6.12908   6.13625   6.15518
 Alpha virt. eigenvalues --    6.19176   6.24506   6.27768   6.31210   6.32098
 Alpha virt. eigenvalues --    6.32903   6.50008   6.53715   6.71473   6.76085
 Alpha virt. eigenvalues --    6.92857   6.93697   7.19573   7.23554  22.86688
 Alpha virt. eigenvalues --   23.06090  23.27602  23.33273  23.46694  23.50449
 Alpha virt. eigenvalues --   23.51431  23.66217  23.71233  23.76711  23.82041
 Alpha virt. eigenvalues --   23.85779  32.91476  32.93115  33.14237  34.51931
 Alpha virt. eigenvalues --   41.30809  41.77755  44.09162  59.89929 363.56531
          Condensed to atoms (all electrons):
               1          2          3          4          5          6
     1  C    5.550135  -0.106904   0.104930   0.093786   0.032846  -0.027258
     2  C   -0.106904   5.550196   0.093787   0.104879   0.032855  -0.004976
     3  C    0.104930   0.093787   5.807541  -0.248981   0.263918   0.400903
     4  C    0.093786   0.104879  -0.248981   5.807615   0.263901   0.018433
     5  C    0.032846   0.032855   0.263918   0.263901   4.544981  -0.028841
     6  H   -0.027258  -0.004976   0.400903   0.018433  -0.028841   0.511441
     7  H   -0.004976  -0.027261   0.018433   0.400906  -0.028841  -0.000143
     8  O    0.022292   0.022294  -0.124086  -0.124088   0.647229   0.006733
     9  N    0.238199   0.238198  -0.065334  -0.065333  -0.015223   0.003827
    10  C    0.191134  -0.017613  -0.015607   0.004305  -0.007333   0.002886
    11  H   -0.028083   0.001176   0.004697   0.000293  -0.000172   0.000064
    12  H   -0.042232  -0.000146  -0.004778  -0.000349   0.000481   0.000641
    13  C   -0.017613   0.191116   0.004304  -0.015607  -0.007332   0.000143
    14  H    0.001176  -0.028081   0.000293   0.004696  -0.000172  -0.000002
    15  H   -0.000146  -0.042233  -0.000349  -0.004776   0.000481  -0.000002
    16  N   -0.015209   0.003443  -0.006346  -0.000996   0.001068  -0.000166
    17  N    0.003443  -0.015208  -0.000996  -0.006345   0.001068  -0.000011
    18  C   -0.001520  -0.001520   0.001317   0.001318  -0.000280   0.000007
    19  H    0.000904   0.000904  -0.000300  -0.000300   0.000099  -0.000007
    20  H   -0.000709  -0.000258  -0.000022   0.000011  -0.000006   0.000000
    21  H   -0.000258  -0.000709   0.000011  -0.000022  -0.000006   0.000000
    22  C    0.016225   0.000055   0.001836  -0.000051  -0.000021  -0.000133
    23  H   -0.000848  -0.000029   0.000018   0.000005  -0.000003   0.000002
    24  H    0.001209   0.000026  -0.000101  -0.000008   0.000005   0.000022
    25  H   -0.002341   0.000005  -0.000097   0.000005  -0.000001  -0.000005
    26  C   -0.008069  -0.000160   0.000029   0.000074  -0.000659  -0.001140
    27  H   -0.000811  -0.000101  -0.000890   0.000000  -0.000042   0.000287
    28  H    0.000654   0.000108   0.000270  -0.000003   0.000054  -0.000024
    29  H    0.008575  -0.000979  -0.002658   0.000639   0.000460  -0.000695
    30  C    0.000055   0.016225  -0.000051   0.001836  -0.000021   0.000001
    31  H    0.000026   0.001209  -0.000008  -0.000101   0.000005  -0.000000
    32  H   -0.000029  -0.000848   0.000005   0.000018  -0.000003   0.000000
    33  H    0.000005  -0.002341   0.000005  -0.000097  -0.000001   0.000000
    34  C   -0.000160  -0.008070   0.000074   0.000029  -0.000659   0.000014
    35  H    0.000108   0.000653  -0.000003   0.000270   0.000054  -0.000001
    36  H   -0.000101  -0.000811   0.000000  -0.000890  -0.000042  -0.000000
    37  H   -0.000979   0.008576   0.000639  -0.002661   0.000460  -0.000008
    38  H    0.001020   0.001022   0.005782   0.005781   0.001437  -0.000286
    39  Ir  -0.003403  -0.003408  -0.053116  -0.053114   0.017373   0.000059
               7          8          9         10         11         12
     1  C   -0.004976   0.022292   0.238199   0.191134  -0.028083  -0.042232
     2  C   -0.027261   0.022294   0.238198  -0.017613   0.001176  -0.000146
     3  C    0.018433  -0.124086  -0.065334  -0.015607   0.004697  -0.004778
     4  C    0.400906  -0.124088  -0.065333   0.004305   0.000293  -0.000349
     5  C   -0.028841   0.647229  -0.015223  -0.007333  -0.000172   0.000481
     6  H   -0.000143   0.006733   0.003827   0.002886   0.000064   0.000641
     7  H    0.511438   0.006733   0.003827   0.000143  -0.000002  -0.000002
     8  O    0.006733   8.020026   0.000568  -0.000574   0.000003   0.000018
     9  N    0.003827   0.000568   6.224375   0.031766  -0.009494   0.003692
    10  C    0.000143  -0.000574   0.031766   4.994739   0.436881   0.428162
    11  H   -0.000002   0.000003  -0.009494   0.436881   0.523135  -0.010054
    12  H   -0.000002   0.000018   0.003692   0.428162  -0.010054   0.530062
    13  C    0.002887  -0.000574   0.031770   0.001269  -0.000489   0.000113
    14  H    0.000064   0.000003  -0.009493  -0.000489   0.000031  -0.000004
    15  H    0.000641   0.000018   0.003692   0.000113  -0.000004  -0.000001
    16  N   -0.000011   0.000005  -0.018382   0.232354  -0.039804  -0.027084
    17  N   -0.000166   0.000005  -0.018388   0.001373   0.000043  -0.000034
    18  C    0.000007  -0.000000  -0.010558  -0.000008   0.000024  -0.000025
    19  H   -0.000007   0.000000   0.000275  -0.000494   0.000014   0.000000
    20  H    0.000000  -0.000000   0.000559   0.000334  -0.000027   0.000029
    21  H    0.000000  -0.000000   0.000559   0.000366  -0.000022  -0.000000
    22  C    0.000001  -0.000001  -0.003975  -0.047124  -0.005385  -0.004904
    23  H    0.000000   0.000000   0.000114   0.008485   0.000353  -0.000371
    24  H   -0.000000   0.000000   0.000051  -0.010890  -0.002422   0.003963
    25  H    0.000000   0.000000  -0.000049  -0.002862   0.001861  -0.000166
    26  C    0.000014  -0.000048   0.001578  -0.012794   0.005064  -0.012208
    27  H   -0.000000   0.000001  -0.000030  -0.014422  -0.000085   0.006460
    28  H   -0.000001   0.000000   0.000039   0.006425  -0.000111  -0.000371
    29  H   -0.000008   0.000106  -0.000451  -0.002247   0.000042  -0.003037
    30  C   -0.000133  -0.000001  -0.003974  -0.000124   0.000014   0.000001
    31  H    0.000022   0.000000   0.000051  -0.000003  -0.000000   0.000000
    32  H    0.000002   0.000000   0.000114   0.000007  -0.000000   0.000000
    33  H   -0.000005   0.000000  -0.000049  -0.000071  -0.000004   0.000000
    34  C   -0.001141  -0.000048   0.001578   0.000005  -0.000014   0.000005
    35  H   -0.000024   0.000000   0.000039  -0.000021   0.000000   0.000000
    36  H    0.000287   0.000001  -0.000031   0.000008   0.000000   0.000000
    37  H   -0.000695   0.000106  -0.000451  -0.000002  -0.000001  -0.000000
    38  H   -0.000286   0.000024   0.320744  -0.019006   0.005780  -0.000402
    39  Ir   0.000059   0.000254   0.116351  -0.085020  -0.010258   0.017871
              13         14         15         16         17         18
     1  C   -0.017613   0.001176  -0.000146  -0.015209   0.003443  -0.001520
     2  C    0.191116  -0.028081  -0.042233   0.003443  -0.015208  -0.001520
     3  C    0.004304   0.000293  -0.000349  -0.006346  -0.000996   0.001317
     4  C   -0.015607   0.004696  -0.004776  -0.000996  -0.006345   0.001318
     5  C   -0.007332  -0.000172   0.000481   0.001068   0.001068  -0.000280
     6  H    0.000143  -0.000002  -0.000002  -0.000166  -0.000011   0.000007
     7  H    0.002887   0.000064   0.000641  -0.000011  -0.000166   0.000007
     8  O   -0.000574   0.000003   0.000018   0.000005   0.000005  -0.000000
     9  N    0.031770  -0.009493   0.003692  -0.018382  -0.018388  -0.010558
    10  C    0.001269  -0.000489   0.000113   0.232354   0.001373  -0.000008
    11  H   -0.000489   0.000031  -0.000004  -0.039804   0.000043   0.000024
    12  H    0.000113  -0.000004  -0.000001  -0.027084  -0.000034  -0.000025
    13  C    4.994763   0.436881   0.428169   0.001373   0.232348  -0.000007
    14  H    0.436881   0.523134  -0.010053   0.000043  -0.039804   0.000024
    15  H    0.428169  -0.010053   0.530057  -0.000034  -0.027086  -0.000025
    16  N    0.001373   0.000043  -0.000034   6.358189  -0.005995  -0.012035
    17  N    0.232348  -0.039804  -0.027086  -0.005995   6.358184  -0.012029
    18  C   -0.000007   0.000024  -0.000025  -0.012035  -0.012029   5.246930
    19  H   -0.000494   0.000014   0.000000  -0.000000  -0.000000   0.392188
    20  H    0.000366  -0.000022  -0.000000  -0.001218   0.001113   0.389280
    21  H    0.000334  -0.000027   0.000029   0.001113  -0.001219   0.389272
    22  C   -0.000124   0.000014   0.000001   0.263021   0.000546  -0.007531
    23  H    0.000007  -0.000000   0.000000  -0.030329   0.000052  -0.004233
    24  H   -0.000003  -0.000000   0.000000  -0.021322  -0.000014   0.000351
    25  H   -0.000071  -0.000004   0.000000  -0.040063   0.000125   0.000081
    26  C    0.000005  -0.000014   0.000005   0.248376   0.000496  -0.006154
    27  H    0.000008   0.000000   0.000000  -0.022730  -0.000026   0.000419
    28  H   -0.000021   0.000000   0.000000  -0.033332   0.000209  -0.003601
    29  H   -0.000002  -0.000001  -0.000000  -0.033471   0.000220  -0.000677
    30  C   -0.047129  -0.005386  -0.004905   0.000546   0.263022  -0.007526
    31  H   -0.010890  -0.002423   0.003964  -0.000014  -0.021322   0.000351
    32  H    0.008485   0.000353  -0.000371   0.000052  -0.030327  -0.004229
    33  H   -0.002863   0.001860  -0.000166   0.000125  -0.040060   0.000080
    34  C   -0.012801   0.005065  -0.012210   0.000496   0.248379  -0.006149
    35  H    0.006425  -0.000112  -0.000371   0.000209  -0.033330  -0.003599
    36  H   -0.014423  -0.000085   0.006460  -0.000026  -0.022730   0.000419
    37  H   -0.002247   0.000042  -0.003037   0.000220  -0.033471  -0.000678
    38  H   -0.019008   0.005780  -0.000402  -0.000075  -0.000074   0.000363
    39  Ir  -0.085008  -0.010259   0.017872   0.186033   0.186034   0.277989
              19         20         21         22         23         24
     1  C    0.000904  -0.000709  -0.000258   0.016225  -0.000848   0.001209
     2  C    0.000904  -0.000258  -0.000709   0.000055  -0.000029   0.000026
     3  C   -0.000300  -0.000022   0.000011   0.001836   0.000018  -0.000101
     4  C   -0.000300   0.000011  -0.000022  -0.000051   0.000005  -0.000008
     5  C    0.000099  -0.000006  -0.000006  -0.000021  -0.000003   0.000005
     6  H   -0.000007   0.000000   0.000000  -0.000133   0.000002   0.000022
     7  H   -0.000007   0.000000   0.000000   0.000001   0.000000  -0.000000
     8  O    0.000000  -0.000000  -0.000000  -0.000001   0.000000   0.000000
     9  N    0.000275   0.000559   0.000559  -0.003975   0.000114   0.000051
    10  C   -0.000494   0.000334   0.000366  -0.047124   0.008485  -0.010890
    11  H    0.000014  -0.000027  -0.000022  -0.005385   0.000353  -0.002422
    12  H    0.000000   0.000029  -0.000000  -0.004904  -0.000371   0.003963
    13  C   -0.000494   0.000366   0.000334  -0.000124   0.000007  -0.000003
    14  H    0.000014  -0.000022  -0.000027   0.000014  -0.000000  -0.000000
    15  H    0.000000  -0.000000   0.000029   0.000001   0.000000   0.000000
    16  N   -0.000000  -0.001218   0.001113   0.263021  -0.030329  -0.021322
    17  N   -0.000000   0.001113  -0.001219   0.000546   0.000052  -0.000014
    18  C    0.392188   0.389280   0.389272  -0.007531  -0.004233   0.000351
    19  H    0.622541  -0.026582  -0.026575   0.001120   0.000306  -0.000040
    20  H   -0.026582   0.644902  -0.018320  -0.005822   0.003852  -0.000241
    21  H   -0.026575  -0.018320   0.644879   0.000084   0.000220   0.000001
    22  C    0.001120  -0.005822   0.000084   4.857322   0.421878   0.408352
    23  H    0.000306   0.003852   0.000220   0.421878   0.545048  -0.021467
    24  H   -0.000040  -0.000241   0.000001   0.408352  -0.021467   0.547446
    25  H   -0.000021   0.000729  -0.000083   0.421750  -0.015694  -0.022007
    26  C   -0.003972  -0.000438   0.000542  -0.051334  -0.002897  -0.010647
    27  H   -0.000056  -0.000415   0.000015  -0.008129  -0.001759   0.006001
    28  H    0.001151   0.000704   0.000373  -0.004429   0.002889  -0.001290
    29  H    0.000374   0.000342  -0.000052   0.007360   0.000133  -0.000462
    30  C    0.001120   0.000084  -0.005817  -0.000145  -0.000018   0.000004
    31  H   -0.000040   0.000001  -0.000241   0.000004   0.000000  -0.000000
    32  H    0.000305   0.000220   0.003851  -0.000018  -0.000000   0.000000
    33  H   -0.000021  -0.000083   0.000729  -0.000012  -0.000003   0.000001
    34  C   -0.003970   0.000541  -0.000435  -0.000052  -0.000003   0.000000
    35  H    0.001150   0.000373   0.000702  -0.000008   0.000001   0.000000
    36  H   -0.000056   0.000015  -0.000415  -0.000002  -0.000000   0.000000
[...]
 52,0.00000439,-0.00000137,-0.00000213,0.00000322,0.00000136,-0.0000021
 3,0.00002265,-0.00002268,0.00000251,0.00028138,-0.00000147,0.00000800,
 -0.00004828,0.00001394,-0.00003063,0.00000263,-0.00000339,0.00000397,0
 .00001392,0.00000343,-0.00000045,0.00103849,-0.00004972,-0.00147169,-0
 .00057681,0.00043977,-0.00022480,-0.00035195,0.00036169,-0.00003997,0.
 00008837,-0.00003757,0.00004486,-0.00979034,0.00021496,-0.00595130,0.0
 0001319,0.00009695,-0.00028924,0.00027359,-0.00022437,0.00028859,-0.00
 008326,0.00008960,0.00017629,0.00005163,-0.00001568,0.00002926,0.00001
 833,-0.00001187,-0.00001144,-0.00000099,-0.00001844,-0.00000033,0.0000
 0345,0.00000983,-0.00000230,0.00000023,-0.00000253,-0.00000007,-0.0000
 0013,0.00002162,0.00000702,0.00000326,0.00001985,0.00000734,0.00001193
 ,-0.00002418,0.00000420,-0.00002065,-0.00000590,0.00000391,0.00021306,
 -0.00018814,0.00061771,0.00018217,-0.00003601,-0.00007567,-0.00007741,
 0.00023492,0.00034755,-0.00008638,-0.00014243,-0.00006907,0.04450938,-
 0.05776713,0.02273634,-0.04560043,0.05711156,0.00000258,-0.00001930,-0
 .00001984,0.00029824,0.00062280,-0.00017210,-0.00000245,-0.00006135,0.
 00000382,-0.00009552,-0.00027121,0.00011494,0.00004708,0.00009442,0.00
 000700,0.00000017,-0.00000654,-0.00000090,0.00000659,0.00000973,-0.000
 01690,-0.00007741,-0.00003715,0.00000981,0.00008344,-0.00027245,0.0000
 5713,-0.00002200,-0.00002228,0.00000010,-0.00000081,-0.00000449,0.0000
 0027,0.00000020,-0.00000776,-0.00000179,0.00240245,-0.00109417,-0.0057
 7855,-0.00184890,0.00003049,-0.00090373,0.00020191,0.00003050,0.000089
 28,-0.00002581,-0.00026165,-0.00007980,-0.03107840,0.00338342,-0.02029
 213,-0.00001463,0.00008027,0.00024277,0.00016222,-0.00008029,0.0000274
 4,-0.00005600,0.00016166,0.00000242,0.00026497,-0.00002511,-0.00006133
 ,-0.00002760,-0.00000638,0.00000992,0.00000610,-0.00001383,0.00000133,
 0.00001400,-0.00000836,-0.00000457,0.00000180,-0.00000531,-0.00000470,
 -0.00000106,0.00001751,-0.00002151,0.00000164,0.00000257,-0.00000241,-
 0.00000379,-0.00000421,0.00001428,0.00000489,0.00000011,0.00000828,-0.
 00226966,-0.00026239,0.00094616,0.00019848,0.00003817,-0.00005631,0.00
 089213,0.00027964,-0.00034628,0.00015262,-0.00021998,0.00033075,-0.097
 65653,0.01968385,-0.09758497,0.11440261,-0.01932690,0.11399896,-0.0000
 0594,0.00006459,0.00005456,-0.00018991,-0.00014432,0.00002320,0.000002
 17,-0.00001116,0.00000683,0.00011985,0.00009044,0.00001384,-0.00008459
 ,-0.00008638,0.00001452,0.00000305,0.00000764,-0.00000300,-0.00001212,
 0.00000071,-0.00001040,0.00009146,0.00002686,-0.00001170,-0.00000497,0
 .00006459,-0.00022877,-0.00004571,-0.00001661,-0.00002539,-0.00000206,
 -0.00000175,0.00000300,0.00001230,0.00001588,0.00000500,0.00069729,-0.
 00199012,-0.00071903,0.00001095,0.00000701,0.00008778,0.00000269,-0.00
 004400,-0.00028375,-0.00008183,0.00021741,-0.00013941,-0.00147082,0.00
 280086,0.00154079,0.00007865,0.00011194,0.00009587,0.00010780,-0.00004
 688,0.00010977,-0.00006906,0.00002858,0.00003489,0.00003517,-0.0001087
 7,-0.00002002,0.00004771,0.00000004,-0.00004565,-0.00000148,-0.0000034
 5,-0.00000065,-0.00000540,0.00002871,0.00001351,-0.00000001,-0.0000037
 3,0.00000680,-0.00001838,0.00002991,0.00008643,0.00001718,0.00001290,-
 0.00003133,-0.00000617,-0.00000326,0.00000163,0.00001381,-0.00000019,-
 0.00001059,0.00016649,0.00135155,0.00005929,0.00011388,-0.00025499,0.0
 0023410,-0.00008577,0.00013035,-0.00013505,-0.00004344,-0.00026888,-0.
 00010017,-0.06522547,0.06026783,0.00278929,-0.00432159,0.02689199,0.00
 227000,0.06350492,0.00013312,0.00013369,-0.00009569,0.00016776,-0.0003
 4945,0.00000963,-0.00013295,0.00007678,0.00002094,-0.00011794,-0.00009
 470,0.00003656,0.00026081,-0.00001004,-0.00000920,-0.00001331,-0.00000
 859,0.00000670,-0.00003292,0.00001509,-0.00001958,-0.00026419,0.000008
 50,0.00003453,-0.00010117,0.00029918,0.00004975,0.00017721,0.00002570,
 0.00011436,-0.00000430,0.00000853,-0.00001292,-0.00004676,-0.00003769,
 -0.00000526,0.00075684,0.00057612,0.00117200,-0.00022062,0.00037862,0.
 00009236,-0.00097573,0.00024427,-0.00056109,-0.00004978,-0.00048941,0.
 00056887,0.00272458,-0.01055773,-0.00611286,-0.00016149,0.00012007,0.0
 0002652,-0.00000833,0.00000839,0.00003609,0.00006519,-0.00004715,0.000
 01270,0.00006943,0.00006479,-0.00001252,-0.00017761,0.00007597,0.00011
 091,0.00001165,0.00000772,0.00000170,0.00001868,-0.00007531,-0.0000167
 4,0.00000359,0.00001871,-0.00000923,-0.00006391,-0.00019631,-0.0001804
 1,-0.00001289,-0.00009059,0.00008526,-0.00000130,0.00001979,-0.0000025
 5,0.00001972,0.00000697,-0.00001929,-0.00088143,0.00167124,0.00110729,
 0.00065394,0.00051531,-0.00061616,0.00006010,-0.00015961,-0.00004079,-
 0.00005400,0.00031866,0.00000254,0.06042751,-0.29384889,-0.01383513,-0
 .00016409,-0.00312420,0.00020813,-0.06720306,0.31728043,-0.00001818,-0
 .00001964,-0.00002756,-0.00026566,0.00016160,-0.00001565,-0.00004222,0
 .00005986,0.00000258,-0.00008709,-0.00003817,0.00003600,0.00004197,-0.
 00001500,0.00001215,-0.00000576,-0.00000134,0.00000008,-0.00001369,-0.
 00000087,-0.00000180,-0.00006891,0.00000784,0.00000490,0.00030105,0.00
 002827,0.00010104,0.00020617,0.00002128,0.00012115,-0.00001091,0.00000
 666,-0.00001451,-0.00005183,-0.00002303,-0.00001049,0.00303391,-0.0022
 1100,0.00105968,0.00011619,0.00023890,0.00025348,-0.00073241,0.0006903
 5,0.00028586,-0.00011354,-0.00079666,0.00080743,0.00880219,-0.03683599
 ,-0.01404688,-0.00012617,0.00034493,-0.00001019,0.00015675,-0.00006030
 ,0.00016228,0.00000698,-0.00003237,0.00006333,0.00014345,-0.00002611,0
 .00001621,-0.00017275,0.00008103,0.00012004,0.00001570,-0.00000063,0.0
 0000084,0.00002670,-0.00006829,-0.00002201,0.00000755,0.00001363,-0.00
 001775,-0.00003700,-0.00020809,-0.00022623,-0.00003133,-0.00008524,0.0
 0012662,0.00000862,-0.00000732,-0.00000240,-0.00001544,-0.00000818,0.0
 0000579,-0.00110344,-0.00310731,0.00171820,-0.00018180,0.00092375,0.00
 011058,0.00007088,0.00026281,-0.00010692,-0.00023182,0.00035859,0.0002
 2336,0.00155611,-0.00775762,-0.05019230,-0.00166346,0.01338100,0.00177
 839,-0.00477076,0.02080976,0.05961083,0.00006657,0.00010534,-0.0000013
 2,0.00032620,-0.00044462,-0.00025453,-0.00005886,0.00002562,0.00002622
 ,0.00006355,0.00022785,0.00010895,-0.00013315,-0.00023076,-0.00001699,
 -0.00000136,0.00001152,0.00000270,-0.00000102,0.00000502,0.00000510,0.
 00012675,0.00006402,-0.00001319,0.00013619,0.00002612,-0.00031341,0.00
 002071,0.00000501,0.00001009,-0.00000934,0.00000686,-0.00000043,0.0000
 0259,0.00000557,0.00000597,0.00027190,0.00044888,-0.00060068,0.0000548
 8,0.00003703,0.00013523,0.00006238,0.00006227,0.00003648,-0.00001924,0
 .00012787,0.00003372,-0.00108655,0.00049265,-0.00010512,0.00000502,-0.
 00004990,0.00015629,-0.00003625,-0.00002660,-0.00005544,0.00001277,0.0
 0008130,-0.00002024,0.00011412,0.00002830,-0.00005056,-0.00000369,0.00
 001346,-0.00002028,-0.00000456,-0.00000202,0.00000151,-0.00000304,0.00
 000304,0.00000897,-0.00000095,0.00000337,0.00000451,-0.00003447,-0.000
 05846,0.00004591,0.00001380,-0.00001973,-0.00001542,-0.00001779,0.0000
 2058,0.00000487,0.00003259,0.00001673,-0.00000775,0.00057927,0.0007265
 9,0.00035153,-0.00003472,-0.00016098,-0.00001767,0.00049322,0.00005567
 ,-0.00005380,0.00030140,-0.00034723,0.00017754,-0.18593889,-0.10744600
 ,0.08419130,-0.01646368,-0.01582107,0.01261328,0.00648853,0.00519600,-
 0.00454186,0.19510085,-0.00001586,-0.00001956,0.00005622,-0.00014297,0
 .00023348,-0.00026059,0.00003172,-0.00004004,-0.00000183,0.00008713,-0
 .00006138,-0.00006775,0.00000448,0.00004959,-0.00000389,0.00000425,-0.
 00000376,0.00000046,0.00003114,-0.00001457,0.00004789,0.00002037,-0.00
 001998,-0.00001446,-0.00013549,0.00107621,-0.00080765,-0.00004832,0.00
 000006,-0.00001828,0.00000637,-0.00000447,0.00000294,0.00000837,0.0000
 0138,0.00000158,-0.00017475,0.00029046,0.00041663,0.00016996,-0.000114
 40,-0.00001658,-0.00012386,-0.00033247,-0.00004055,-0.00006015,0.00014
 598,0.00004913,0.00946971,0.00595938,-0.00577831,-0.00004401,0.0000247
 9,-0.00005760,0.00002145,0.00000560,0.00003584,-0.00001371,0.00000364,
 0.00002308,-0.00003926,-0.00000926,-0.00001647,0.00002859,0.00002346,-
 0.00000516,-0.00000024,-0.00000411,-0.00000061,-0.00001002,0.00001685,
 0.00000428,-0.00000076,0.00000140,0.00000074,0.00000664,0.00000349,0.0
 0004438,0.00000019,0.00000696,0.00000818,0.00000126,-0.00000587,-0.000
 00012,-0.00001672,-0.00002553,0.00001040,-0.00008330,0.00004019,-0.001
 24128,0.00010360,0.00045677,-0.00036951,-0.00006279,-0.00017226,-0.000
 07482,0.00012301,0.00061246,-0.00034584,-0.10832375,-0.13660698,0.0663
 1029,0.00501761,0.00359668,-0.00360966,-0.02228574,-0.01491217,0.01303
 065,0.11611085,0.13912551,-0.00009094,-0.00015781,-0.00003804,-0.00070
 046,-0.00015221,-0.00042283,0.00005549,0.00003966,-0.00002257,-0.00001
 239,0.00007570,0.00009609,-0.00031357,-0.00013571,0.00002019,0.0000081
 1,0.00001566,0.00000265,0.00001295,-0.00000632,0.00000945,0.00025036,0
 .00003773,-0.00003545,-0.00035238,-0.00047620,0.00011798,0.00004394,-0
 .00003788,0.00003017,-0.00001610,0.00000773,-0.00000124,-0.00001679,0.
 00000847,-0.00000818,0.00143140,0.00062600,0.00092472,0.00009503,-0.00
 001536,0.00020936,-0.00019698,0.00011062,-0.00009887,-0.00003061,-0.00
 029361,-0.00011169,0.02614141,0.01847092,-0.01982582,-0.00002414,-0.00
 002504,-0.00010821,-0.00004072,-0.00003582,-0.00002214,-0.00000715,0.0
 0001020,0.00000730,-0.00004567,0.00002127,-0.00000498,-0.00001419,-0.0
 0002425,0.00000473,-0.00000020,-0.00000288,0.00000166,0.00001097,-0.00
 000727,-0.00001089,0.00000458,-0.00000471,-0.00001120,0.00001733,0.000
 00851,-0.00002423,-0.00001059,0.00001927,0.00000577,0.00000242,-0.0000
 0391,0.00000827,-0.00000774,-0.00001041,0.00004542,-0.00137881,-0.0031
 2559,-0.00595438,-0.00016532,0.00005474,0.00006041,0.00006550,-0.00013
 772,0.00023119,0.00142564,0.00117697,-0.00089983,0.07662188,0.06025586
 ,-0.09862464,-0.00933122,-0.00889555,0.00775589,-0.00188133,-0.0007504
 3,0.00175199,-0.09253804,-0.06714840,0.11515068,0.00193385,0.00248324,
 -0.00082641,0.00193442,-0.00248268,-0.00082660,-0.00102392,0.00048691,
 0.00011270,-0.00102367,-0.00048725,0.00011285,0.00143486,0.00000019,-0
 .00005061,-0.00005265,-0.00004400,-0.00003756,-0.00005269,0.00004401,-
 0.00003756,-0.00142413,-0.00000020,0.00016390,-0.00354855,-0.00000046,
 0.00048961,0.00009008,0.00013647,0.00030226,0.00004522,-0.00013260,0.0
 0003476,0.00001808,-0.00003964,-0.00001539,0.00009033,-0.00013664,0.00
 030224,0.00004517,0.00013264,0.00003471,0.00001812,0.00003965,-0.00001
 541,-0.00019351,-0.00013206,0.00055564,-0.00019373,0.00013158,0.000557
 45,0.00291216,0.00000594,-0.00641087,-0.00046174,-0.00000139,0.0006139
 8,0.00070310,-0.00024400,0.00090464,0.00070315,0.00024211,0.00090419,-
 0.00004906,0.00004394,0.00023017,0.00002215,-0.00002398,-0.00002737,0.
 00004511,-0.00003819,-0.00011710,0.00002990,-0.00002418,-0.00016049,-0
 .00048701,-0.00029849,-0.00028918,0.00016585,0.00004598,0.00015219,0.0
 0023401,-0.00006653,0.00001024,-0.00001627,-0.00004252,-0.00030107,-0.
 00004901,-0.00004372,0.00023003,0.00004513,0.00003814,-0.00011715,0.00
 002217,0.00002397,-0.00002731,0.00002980,0.00002419,-0.00016060,-0.000
 48731,0.00029819,-0.00028950,0.00023418,0.00006672,0.00001016,0.000165
 96,-0.00004584,0.00015230,-0.00001634,0.00004254,-0.00030107,0.0387518
 5,-0.00007754,-0.00015099,0.00018665,0.00007795,-0.00015137,-0.0001870
 6,0.00024522,0.00001422,-0.00009051,-0.00024548,0.00001388,0.00009080,
 0.00000019,0.00020582,-0.00000004,-0.00000402,-0.00000337,-0.00001091,
 0.00000403,-0.00000341,0.00001081,-0.00000019,-0.00003253,-0.00000001,
 -0.00000054,0.00027796,-0.00000010,0.00021314,0.00039685,0.00013303,-0
 .00005755,0.00001430,-0.00009440,0.00011020,0.00006671,-0.00005725,-0.
 00021297,0.00039679,-0.00013269,0.00005752,0.00001431,0.00009433,-0.00
 011029,0.00006676,0.00005726,-0.00164950,0.00272526,0.00581174,0.00164
 890,0.00272508,-0.00581211,0.00000247,0.00019389,-0.00000160,-0.000000
 29,0.00009149,-0.00000003,-0.00015169,0.00017202,0.00020284,0.00015206
 ,0.00017267,-0.00020215,0.00001220,0.00008383,-0.00018885,0.00000897,0
 .00004917,-0.00002879,-0.00003225,0.00028557,0.00003952,0.00007968,-0.
 00039599,0.00003826,-0.00023776,0.00015840,-0.00069433,0.00013214,-0.0
 0053908,0.00008088,-0.00013051,0.00014024,-0.00017114,0.00039155,-0.00
 008300,-0.00052335,-0.00001241,0.00008359,0.00018866,0.00003225,0.0002
 8570,-0.00003969,-0.00000903,0.00004914,0.00002878,-0.00007956,-0.0003
 9638,-0.00003823,0.00023779,0.00015936,0.00069398,0.00013057,0.0001405
 2,0.00017109,-0.00013197,-0.00053906,-0.00008059,-0.00039158,-0.000082
 94,0.00052320,0.00000767,0.01281627,0.00043922,0.00032329,-0.00033046,
 0.00043912,-0.00032323,-0.00033036,-0.00005660,0.00012188,0.00002964,-
 0.00005615,-0.00012144,0.00002927,0.00002001,-0.00000050,0.00001193,0.
 00002550,0.00000179,-0.00002501,0.00002562,-0.00000187,-0.00002504,-0.
 00003419,0.00000020,0.00000903,-0.00113901,0.00000006,0.00143968,-0.00
 013601,0.00026318,-0.00024552,0.00008205,0.00001610,0.00005767,0.00013
 761,0.00007231,0.00005266,-0.00013623,-0.00026326,-0.00024550,0.000082
 04,-0.00001612,0.00005766,0.00013765,-0.00007229,0.00005265,0.00034375
 ,0.00048414,0.00007782,0.00034416,-0.00048341,0.00007821,0.00044115,-0
 .00000001,-0.00196420,-0.00096776,-0.00000070,0.00067498,-0.00039365,0
 .00014853,0.00007575,-0.00039325,-0.00014825,0.00007435,0.00026109,-0.
 00033157,-0.00057281,0.00000771,-0.00000858,-0.00004584,-0.00011963,0.
 00009824,0.00024088,-0.00001773,0.00007308,0.00033405,-0.00007210,-0.0
 0018449,0.00001620,0.00005359,0.00018277,0.00004100,0.00013848,-0.0001
 2529,0.00002282,-0.00017220,0.00006007,-0.00002262,0.00026075,0.000331
 64,-0.00057281,-0.00011967,-0.00009820,0.00024102,0.00000766,0.0000084
 6,-0.00004600,-0.00001761,-0.00007286,0.00033421,-0.00007247,0.0001844
 0,0.00001617,0.00013855,0.00012556,0.00002281,0.00005365,-0.00018280,0
 .00004111,-0.00017216,-0.00005999,-0.00002264,-0.07389598,-0.00002283,
 0.18442253,-0.01837396,-0.02041837,-0.00331919,-0.01838242,0.02041286,
 -0.00331899,0.00311423,0.00084928,-0.00109081,0.00311381,-0.00084763,-
 0.00109059,-0.00444654,-0.00000034,0.00080757,0.00076716,0.00036248,-0
 .00010546,0.00076700,-0.00036225,-0.00010536,0.00381762,0.00000048,-0.
 00063378,-0.09160528,-0.00000731,-0.01252670,-0.00503810,-0.01517710,0
 .00154467,-0.00014686,0.00019544,-0.00019107,-0.00312402,0.00036527,-0
 .00172727,-0.00504533,0.01517907,0.00154252,-0.00014690,-0.00019537,-0
 .00019107,-0.00312356,-0.00036643,-0.00172717,-0.04439613,0.00997446,-
 0.00179525,-0.04439316,-0.00997756,-0.00179581,-0.09901627,-0.00001460
 ,-0.00181762,0.00422407,0.00000739,-0.00484826,-0.00987219,0.00095455,
 -0.00522203,-0.00986181,-0.00095772,-0.00521115,0.00469073,0.00992433,
 -0.00118720,-0.00065524,0.00122022,-0.00019361,-0.00171626,0.00262398,
 0.00111701,0.00017091,0.00043622,-0.00001291,0.00212772,-0.00457201,0.
 00289068,-0.00000497,0.00001169,-0.00035928,-0.00043317,0.00141902,-0.
 00085702,-0.00040942,-0.00029124,0.00128936,0.00469449,-0.00991825,-0.
 00118780,-0.00171580,-0.00262431,0.00111721,-0.00065610,-0.00121907,-0
 .00019398,0.00017092,-0.00043601,-0.00001255,0.00213762,0.00457541,0.0
 0288178,-0.00043329,-0.00141982,-0.00085699,-0.00000511,-0.00001251,-0
 .00036046,-0.00040939,0.00029247,0.00128937,-0.04059504,-0.00000938,0.
 07453304,0.37421004,-0.01564419,0.00154562,-0.00142850,0.01564053,0.00
 155240,0.00142701,-0.00032233,-0.00451137,0.00053382,0.00032297,-0.004
 51094,-0.00053404,0.00000018,0.00111806,-0.00000002,-0.00070716,0.0001
 4258,0.00054731,0.00070740,0.00014240,-0.00054706,-0.00000059,-0.00037
 368,-0.00000003,-0.00000721,-0.04631806,-0.00000164,-0.01591611,-0.010
 18189,-0.00624710,0.00071223,-0.00010489,0.00060014,0.00134620,0.00082
 326,-0.00018429,0.01591675,-0.01017191,0.00624717,-0.00071223,-0.00010
 495,-0.00060013,-0.00134775,0.00082270,0.00018360,0.00297691,-0.050700
 76,-0.00598301,-0.00297981,-0.05068699,0.00597861,-0.00000324,-0.06584
 507,0.00000118,0.00002362,0.00038890,0.00000491,0.01645263,0.00470830,
 0.00952875,-0.01647893,0.00471695,-0.00953161,0.00527990,-0.01366030,-
 0.00362420,-0.00111842,0.00031242,0.00034690,-0.00065466,0.00088343,0.
 00037455,-0.00109781,0.00018209,0.00143219,-0.00177662,-0.01042671,0.0
 1041513,-0.00045563,0.00266685,-0.00096375,-0.00008976,-0.00087954,-0.
 00080659,-0.00109131,0.00075346,0.00001638,-0.00527574,-0.01366132,0.0
 0362594,0.00065431,0.00088298,-0.00037452,0.00111835,0.00031257,-0.000
 34700,0.00109745,0.00018208,-0.00143250,0.00177965,-0.01043690,-0.0104
 1429,0.00009058,-0.00088088,0.00080641,0.00045545,0.00266638,0.0009628
 5,0.00109143,0.00075541,-0.00001544,-0.00000970,-0.01942166,0.00002202
 ,0.00002263,0.28731896,-0.00158494,-0.00813541,0.00239739,-0.00158632,
 0.00813506,0.00239783,0.00076540,0.00182945,0.00199449,0.00076514,-0.0
 0182968,0.00199461,-0.00115292,0.00000028,-0.00088510,0.00060820,0.000
 14868,0.00052290,0.00060813,-0.00014839,0.00052275,0.00065023,-0.00000
 006,-0.00003176,-0.01069322,-0.00000151,-0.03968268,-0.00286565,-0.006
 78923,0.00015024,0.00032001,-0.00022471,0.00006965,-0.00188253,0.00000
 330,-0.00029823,-0.00286780,0.00678735,0.00014919,0.00032018,0.0002245
 4,0.00006950,-0.00188194,-0.00000415,-0.00029819,-0.00237885,0.0002431
 2,-0.04738290,-0.00237753,-0.00024753,-0.04738508,-0.01689142,-0.00000
 215,-0.06212669,-0.01875182,-0.00000124,-0.00754019,0.00362918,0.00195
 774,0.00333328,0.00360432,-0.00195565,0.00331723,-0.00109917,-0.007076
 46,-0.00002645,-0.00022537,0.00037022,0.00008492,0.00087028,-0.0014470
 5,0.00008311,-0.00027145,-0.00101726,0.00032093,0.00544311,0.01881194,
 -0.00013052,0.00091217,0.00202318,-0.00371921,-0.00016021,0.00157071,-
 0.00007461,0.00087832,0.00010377,-0.00018762,-0.00110060,0.00707898,-0
 .00002735,0.00086991,0.00144745,0.00008238,-0.00022568,-0.00037021,0.0
 0008503,-0.00027171,0.00101717,0.00032094,0.00543371,-0.01880913,-0.00
 011812,-0.00015953,-0.00157150,-0.00007393,0.00091226,-0.00202397,-0.0
 0371919,0.00087872,-0.00010335,-0.00018608,0.07803318,0.00002486,-0.18
 400529,-0.03707379,-0.00001914,0.38000283\\0.00000636,-0.00000085,0.00
 002012,0.00000560,0.00000094,0.00002112,-0.00001498,0.00000306,0.00003
 510,-0.00001436,-0.00000269,0.00003522,0.00001473,-0.00000056,0.000045
 07,-0.00000266,0.00000085,0.00004248,-0.00000272,-0.00000092,0.0000424
 1,-0.00000397,0.00000015,0.00005850,-0.00001905,0.00000172,0.00001333,
 -0.00000699,0.00000603,0.00001252,-0.00001930,-0.00000042,0.00000752,-
 0.00000401,-0.00000048,0.00001368,-0.00000728,-0.00000660,0.00001288,-
 0.00001902,0.00000037,0.00000765,-0.00000407,0.00000045,0.00001369,-0.
 00000088,-0.00000187,-0.00000617,-0.00000132,0.00000358,-0.00000881,0.
 00000622,-0.00000092,-0.00002883,0.00002336,-0.00000038,-0.00003184,0.
 00000305,-0.00000044,-0.00004031,0.00000303,0.00000077,-0.00003953,-0.
 00000919,0.00000124,-0.00001615,-0.00000173,-0.00000029,-0.00002846,-0
 .00000725,0.00000011,-0.00001443,-0.00001936,-0.00000017,-0.00001831,0
 .00001491,-0.00000009,-0.00000487,0.00001818,0.00000059,-0.00000211,0.
 00002171,-0.00000026,-0.00001575,0.00002199,-0.00000010,0.00000330,-0.
 00000973,-0.00000195,-0.00001603,-0.00000715,0.00000005,-0.00001436,-0
 .00000180,0.00000064,-0.00002866,-0.00001925,0.,-0.00001828,0.00001483
 ,-0.00000054,-0.00000496,0.00002178,0.00000020,-0.00001580,0.00001839,
 -0.00000056,-0.00000215,0.00002190,0.00000031,0.00000311,-0.00002142,0
 .00000091,-0.00001176,0.00000143,-0.00000184,-0.00002016\\\@
 The archive entry for this job was punched.


 IF AT FIRST YOU DON'T SUCCEED, TRY, TRY AGAIN.
 THEN GIVE UP;
 THERE'S NO USE BEING A DAMN FOOL ABOUT IT.

                                 -- W. C. FIELDS
 Job cpu time:       3 days  3 hours 18 minutes 25.7 seconds.
 Elapsed time:       0 days  9 hours 54 minutes  7.8 seconds.
 File lengths (MBytes):  RWF=   1937 Int=      0 D2E=      0 Chk=     70 Scr=      1
 Normal termination of Gaussian 16 at Fri Mar  8 22:16:57 2024.
