 Entering Gaussian System, Link 0=/cm/shared/apps//g16/g16
 Input=ZHRhMe.gjf
 Output=ZHRhMe.log
 Initial command:
 /cm/shared/apps//g16/l1.exe "/local/mvanvleet/pbs.14052.josephine/Gau-3398755.inp" -scrdir="/local/mvanvleet/pbs.14052.josephine/"
 Entering Link 1 = /cm/shared/apps//g16/l1.exe PID=   3398757.
  
 Copyright (c) 1988-2019, Gaussian, Inc.  All Rights Reserved.
  
 This is part of the Gaussian(R) 16 program.  It is based on
 the Gaussian(R) 09 system (copyright 2009, Gaussian, Inc.),
 the Gaussian(R) 03 system (copyright 2003, Gaussian, Inc.),
 the Gaussian(R) 98 system (copyright 1998, Gaussian, Inc.),
 the Gaussian(R) 94 system (copyright 1995, Gaussian, Inc.),
 the Gaussian 92(TM) system (copyright 1992, Gaussian, Inc.),
 the Gaussian 90(TM) system (copyright 1990, Gaussian, Inc.),
 the Gaussian 88(TM) system (copyright 1988, Gaussian, Inc.),
 the Gaussian 86(TM) system (copyright 1986, Carnegie Mellon
 University), and the Gaussian 82(TM) system (copyright 1983,
 Carnegie Mellon University). Gaussian is a federally registered
 trademark of Gaussian, Inc.
  
 This software contains proprietary and confidential information,
 including trade secrets, belonging to Gaussian, Inc.
  
 This software is provided under written license and may be
 used, copied, transmitted, or stored only in accord with that
 written license.
  
 The following legend is applicable only to US Government
 contracts under FAR:
  
                    RESTRICTED RIGHTS LEGEND
  
 Use, reproduction and disclosure by the US Government is
 subject to restrictions as set forth in subparagraphs (a)
 and (c) of the Commercial Computer Software - Restricted
 Rights clause in FAR 52.227-19.
  
 Gaussian, Inc.
 340 Quinnipiac St., Bldg. 40, Wallingford CT 06492
  
  
 ---------------------------------------------------------------
 Warning -- This program may not be used in any manner that
 competes with the business of Gaussian, Inc. or will provide
 assistance to any competitor of Gaussian, Inc.  The licensee
 of this program is prohibited from giving any competitor of
 Gaussian, Inc. access to this program.  By using this program,
 the user acknowledges that Gaussian, Inc. is engaged in the
 business of creating and licensing software in the field of
 computational chemistry and represents and warrants to the
 licensee that it is not a competitor of Gaussian, Inc. and that
 it will not use this program in any manner prohibited above.
 ---------------------------------------------------------------
  

 Cite this work as:
 Gaussian 16, Revision C.01,
 M. J. Frisch, G. W. Trucks, H. B. Schlegel, G. E. Scuseria, 
 M. A. Robb, J. R. Cheeseman, G. Scalmani, V. Barone, 
 G. A. Petersson, H. Nakatsuji, X. Li, M. Caricato, A. V. Marenich, 
 J. Bloino, B. G. Janesko, R. Gomperts, B. Mennucci, H. P. Hratchian, 
 J. V. Ortiz, A. F. Izmaylov, J. L. Sonnenberg, D. Williams-Young, 
 F. Ding, F. Lipparini, F. Egidi, J. Goings, B. Peng, A. Petrone, 
 T. Henderson, D. Ranasinghe, V. G. Zakrzewski, J. Gao, N. Rega, 
 G. Zheng, W. Liang, M. Hada, M. Ehara, K. Toyota, R. Fukuda, 
 J. Hasegawa, M. Ishida, T. Nakajima, Y. Honda, O. Kitao, H. Nakai, 
 T. Vreven, K. Throssell, J. A. Montgomery, Jr., J. E. Peralta, 
 F. Ogliaro, M. J. Bearpark, J. J. Heyd, E. N. Brothers, K. N. Kudin, 
 V. N. Staroverov, T. A. Keith, R. Kobayashi, J. Normand, 
 K. Raghavachari, A. P. Rendell, J. C. Burant, S. S. Iyengar, 
 J. Tomasi, M. Cossi, J. M. Millam, M. Klene, C. Adamo, R. Cammi, 
 J. W. Ochterski, R. L. Martin, K. Morokuma, O. Farkas, 
 J. B. Foresman, and D. J. Fox, Gaussian, Inc., Wallingford CT, 2019.
 
 ******************************************
 Gaussian 16:  ES64L-G16RevC.01  3-Jul-2019
                 7-Mar-2024 
 ******************************************
 %nprocshared=8
 Will use up to    8 processors via shared memory.
 %chk=ZHRhMe.chk
 %mem=1GB
 ----------------------------------------------------------
 # wb97xd def2TZVPP SCRF=(solvent=dichloromethane) opt freq
 ----------------------------------------------------------
 1/18=20,19=15,26=3,38=1/1,3;
 2/9=110,12=2,17=6,18=5,40=1/2;
 3/5=44,7=202,11=2,25=1,30=1,70=2201,71=1,72=9,74=-58/1,2,3;
 4//1;
 5/5=2,38=5,53=9/2;
 6/7=2,8=2,9=2,10=2,28=1/1;
 7//1,2,3,16;
 1/18=20,19=15,26=3/3(2);
 2/9=110/2;
 99//99;
 2/9=110/2;
 3/5=44,7=202,11=2,25=1,30=1,70=2205,71=1,72=9,74=-58/1,2,3;
 4/5=5,16=3,69=1/1;
 5/5=2,38=5,53=9/2;
 7//1,2,3,16;
 1/18=20,19=15,26=3/3(-5);
 2/9=110/2;
 6/7=2,8=2,9=2,10=2,19=2,28=1/1;
 99/9=1/99;
 ------
 ZHRhMe
 ------
 Symbolic Z-matrix:
 Charge =  0 Multiplicity = 1
 C                    -1.42048  -1.19779  -0.67384 
 C                    -1.42044   1.19786  -0.67383 
 C                    -2.57991  -1.23148   0.04112 
 C                    -2.57985   1.23159   0.04113 
 C                    -3.32423   0.00007   0.36112 
 H                    -2.94096  -2.17906   0.45252 
 H                    -2.94087   2.17919   0.45253 
 O                    -4.41364   0.00009   0.93735 
 N                    -0.97029   0.00003  -1.2132 
 C                    -0.45968  -2.34137  -0.8959 
 H                    -0.12923  -2.35867  -1.95159 
 H                    -0.92877  -3.31708  -0.65316 
 C                    -0.45958   2.3414   -0.89589 
 H                    -0.12915   2.35869  -1.95159 
 H                    -0.92863   3.31713  -0.65314 
 N                     0.76404  -2.12148  -0.05328 
 N                     0.76413   2.12145  -0.05329 
 C                     2.65316  -0.00005   1.11136 
 H                     2.32135  -0.00004   2.17703 
 H                     3.30264  -0.88981   0.97555 
 H                     3.30266   0.8897    0.97552 
 C                     1.88138  -2.90442  -0.62316 
 H                     2.76064  -2.80184   0.02797 
 H                     1.60315  -3.9791   -0.69142 
 H                     2.12332  -2.5109   -1.62217 
 C                     0.50338  -2.58839   1.3279 
 H                     0.32106  -3.68648   1.33463 
 H                     1.3822   -2.35259   1.94716 
 H                    -0.3749   -2.06006   1.72928 
 C                     1.88152   2.90431  -0.62318 
 H                     1.60337   3.979    -0.69144 
 H                     2.76077   2.80166   0.02794 
 H                     2.1234    2.51076  -1.62219 
 C                     0.50356   2.5884    1.3279 
 H                     1.3824    2.35254   1.94713 
 H                     0.32131   3.6865    1.33463 
 H                    -0.37473   2.06012   1.72932 
 H                    -0.02464   0.00001  -1.70586 
 Rh                    0.97322  -0.00003  -0.01728 
 

 GradGradGradGradGradGradGradGradGradGradGradGradGradGradGradGradGradGrad
 Berny optimization.
 Initialization pass.
                           ----------------------------
                           !    Initial Parameters    !
                           ! (Angstroms and Degrees)  !
 --------------------------                            --------------------------
 ! Name  Definition              Value          Derivative Info.                !
 --------------------------------------------------------------------------------
 ! R1    R(1,3)                  1.3626         estimate D2E/DX2                !
 ! R2    R(1,9)                  1.3887         estimate D2E/DX2                !
 ! R3    R(1,10)                 1.51           estimate D2E/DX2                !
 ! R4    R(2,4)                  1.3625         estimate D2E/DX2                !
 ! R5    R(2,9)                  1.3887         estimate D2E/DX2                !
 ! R6    R(2,13)                 1.51           estimate D2E/DX2                !
 ! R7    R(3,5)                  1.4742         estimate D2E/DX2                !
 ! R8    R(3,6)                  1.0943         estimate D2E/DX2                !
 ! R9    R(4,5)                  1.4742         estimate D2E/DX2                !
 ! R10   R(4,7)                  1.0943         estimate D2E/DX2                !
 ! R11   R(5,8)                  1.2324         estimate D2E/DX2                !
 ! R12   R(9,38)                 1.0663         estimate D2E/DX2                !
 ! R13   R(10,11)                1.1063         estimate D2E/DX2                !
 ! R14   R(10,12)                1.1095         estimate D2E/DX2                !
 ! R15   R(10,16)                1.5019         estimate D2E/DX2                !
 ! R16   R(13,14)                1.1063         estimate D2E/DX2                !
 ! R17   R(13,15)                1.1095         estimate D2E/DX2                !
 ! R18   R(13,17)                1.5019         estimate D2E/DX2                !
 ! R19   R(16,22)                1.4786         estimate D2E/DX2                !
 ! R20   R(16,26)                1.4811         estimate D2E/DX2                !
 ! R21   R(16,39)                2.132          estimate D2E/DX2                !
 ! R22   R(17,30)                1.4786         estimate D2E/DX2                !
 ! R23   R(17,34)                1.4811         estimate D2E/DX2                !
 ! R24   R(17,39)                2.1321         estimate D2E/DX2                !
 ! R25   R(18,19)                1.1161         estimate D2E/DX2                !
 ! R26   R(18,20)                1.1099         estimate D2E/DX2                !
 ! R27   R(18,21)                1.1099         estimate D2E/DX2                !
 ! R28   R(18,39)                2.0239         estimate D2E/DX2                !
 ! R29   R(22,23)                1.0989         estimate D2E/DX2                !
 ! R30   R(22,24)                1.1122         estimate D2E/DX2                !
 ! R31   R(22,25)                1.1006         estimate D2E/DX2                !
 ! R32   R(26,27)                1.1131         estimate D2E/DX2                !
 ! R33   R(26,28)                1.1006         estimate D2E/DX2                !
 ! R34   R(26,29)                1.1007         estimate D2E/DX2                !
 ! R35   R(30,31)                1.1122         estimate D2E/DX2                !
 ! R36   R(30,32)                1.0989         estimate D2E/DX2                !
 ! R37   R(30,33)                1.1006         estimate D2E/DX2                !
 ! R38   R(34,35)                1.1007         estimate D2E/DX2                !
 ! R39   R(34,36)                1.1131         estimate D2E/DX2                !
 ! R40   R(34,37)                1.1007         estimate D2E/DX2                !
 ! A1    A(3,1,9)              120.0656         estimate D2E/DX2                !
 ! A2    A(3,1,10)             126.8595         estimate D2E/DX2                !
 ! A3    A(9,1,10)             112.9453         estimate D2E/DX2                !
 ! A4    A(4,2,9)              120.066          estimate D2E/DX2                !
 ! A5    A(4,2,13)             126.86           estimate D2E/DX2                !
 ! A6    A(9,2,13)             112.9444         estimate D2E/DX2                !
 ! A7    A(1,3,5)              121.526          estimate D2E/DX2                !
 ! A8    A(1,3,6)              119.9617         estimate D2E/DX2                !
 ! A9    A(5,3,6)              118.3733         estimate D2E/DX2                !
 ! A10   A(2,4,5)              121.5263         estimate D2E/DX2                !
 ! A11   A(2,4,7)              119.9617         estimate D2E/DX2                !
 ! A12   A(5,4,7)              118.3731         estimate D2E/DX2                !
 ! A13   A(3,5,4)              113.3187         estimate D2E/DX2                !
 ! A14   A(3,5,8)              123.2185         estimate D2E/DX2                !
 ! A15   A(4,5,8)              123.2188         estimate D2E/DX2                !
 ! A16   A(1,9,2)              119.2154         estimate D2E/DX2                !
 ! A17   A(1,9,38)             117.8368         estimate D2E/DX2                !
 ! A18   A(2,9,38)             117.8374         estimate D2E/DX2                !
 ! A19   A(1,10,11)            110.0118         estimate D2E/DX2                !
 ! A20   A(1,10,12)            111.396          estimate D2E/DX2                !
 ! A21   A(1,10,16)            108.9676         estimate D2E/DX2                !
 ! A22   A(11,10,12)           108.7417         estimate D2E/DX2                !
 ! A23   A(11,10,16)           107.1136         estimate D2E/DX2                !
 ! A24   A(12,10,16)           110.5169         estimate D2E/DX2                !
 ! A25   A(2,13,14)            110.0113         estimate D2E/DX2                !
 ! A26   A(2,13,15)            111.3955         estimate D2E/DX2                !
 ! A27   A(2,13,17)            108.9678         estimate D2E/DX2                !
 ! A28   A(14,13,15)           108.7415         estimate D2E/DX2                !
 ! A29   A(14,13,17)           107.1142         estimate D2E/DX2                !
 ! A30   A(15,13,17)           110.5172         estimate D2E/DX2                !
 ! A31   A(10,16,22)           108.7805         estimate D2E/DX2                !
 ! A32   A(10,16,26)           109.4893         estimate D2E/DX2                !
 ! A33   A(10,16,39)           103.5967         estimate D2E/DX2                !
 ! A34   A(22,16,26)           108.9952         estimate D2E/DX2                !
 ! A35   A(22,16,39)           117.3391         estimate D2E/DX2                !
 ! A36   A(26,16,39)           108.3731         estimate D2E/DX2                !
 ! A37   A(13,17,30)           108.7813         estimate D2E/DX2                !
 ! A38   A(13,17,34)           109.4909         estimate D2E/DX2                !
 ! A39   A(13,17,39)           103.5972         estimate D2E/DX2                !
 ! A40   A(30,17,34)           108.9934         estimate D2E/DX2                !
 ! A41   A(30,17,39)           117.3378         estimate D2E/DX2                !
 ! A42   A(34,17,39)           108.3737         estimate D2E/DX2                !
 ! A43   A(19,18,20)           106.9054         estimate D2E/DX2                !
 ! A44   A(19,18,21)           106.9063         estimate D2E/DX2                !
 ! A45   A(19,18,39)           106.5999         estimate D2E/DX2                !
 ! A46   A(20,18,21)           106.5721         estimate D2E/DX2                !
 ! A47   A(20,18,39)           114.6762         estimate D2E/DX2                !
 ! A48   A(21,18,39)           114.675          estimate D2E/DX2                !
 ! A49   A(16,22,23)           109.0769         estimate D2E/DX2                !
 ! A50   A(16,22,24)           110.2591         estimate D2E/DX2                !
 ! A51   A(16,22,25)           109.0639         estimate D2E/DX2                !
 ! A52   A(23,22,24)           109.0699         estimate D2E/DX2                !
 ! A53   A(23,22,25)           109.1812         estimate D2E/DX2                !
 ! A54   A(24,22,25)           110.1669         estimate D2E/DX2                !
 ! A55   A(16,26,27)           110.2092         estimate D2E/DX2                !
 ! A56   A(16,26,28)           108.4588         estimate D2E/DX2                !
 ! A57   A(16,26,29)           109.218          estimate D2E/DX2                !
 ! A58   A(27,26,28)           109.7988         estimate D2E/DX2                !
 ! A59   A(27,26,29)           109.9132         estimate D2E/DX2                !
 ! A60   A(28,26,29)           109.2143         estimate D2E/DX2                !
 ! A61   A(17,30,31)           110.2592         estimate D2E/DX2                !
 ! A62   A(17,30,32)           109.0765         estimate D2E/DX2                !
 ! A63   A(17,30,33)           109.0626         estimate D2E/DX2                !
 ! A64   A(31,30,32)           109.0704         estimate D2E/DX2                !
 ! A65   A(31,30,33)           110.1671         estimate D2E/DX2                !
 ! A66   A(32,30,33)           109.1821         estimate D2E/DX2                !
 ! A67   A(17,34,35)           108.4585         estimate D2E/DX2                !
 ! A68   A(17,34,36)           110.2097         estimate D2E/DX2                !
 ! A69   A(17,34,37)           109.2174         estimate D2E/DX2                !
 ! A70   A(35,34,36)           109.7992         estimate D2E/DX2                !
 ! A71   A(35,34,37)           109.2138         estimate D2E/DX2                !
 ! A72   A(36,34,37)           109.9138         estimate D2E/DX2                !
 ! A73   A(16,39,18)            95.2123         estimate D2E/DX2                !
 ! A74   A(17,39,18)            95.2115         estimate D2E/DX2                !
 ! A75   L(16,39,17,18,-1)     190.4238         estimate D2E/DX2                !
 ! A76   L(16,39,17,18,-2)     184.6827         estimate D2E/DX2                !
 ! D1    D(9,1,3,5)             -5.2814         estimate D2E/DX2                !
 ! D2    D(9,1,3,6)            179.0734         estimate D2E/DX2                !
 ! D3    D(10,1,3,5)           170.2751         estimate D2E/DX2                !
 ! D4    D(10,1,3,6)            -5.37           estimate D2E/DX2                !
 ! D5    D(3,1,9,2)             21.4903         estimate D2E/DX2                !
 ! D6    D(3,1,9,38)           175.694          estimate D2E/DX2                !
 ! D7    D(10,1,9,2)          -154.65           estimate D2E/DX2                !
 ! D8    D(10,1,9,38)           -0.4462         estimate D2E/DX2                !
 ! D9    D(3,1,10,11)          136.9284         estimate D2E/DX2                !
 ! D10   D(3,1,10,12)           16.2673         estimate D2E/DX2                !
 ! D11   D(3,1,10,16)         -105.9209         estimate D2E/DX2                !
 ! D12   D(9,1,10,11)          -47.2471         estimate D2E/DX2                !
 ! D13   D(9,1,10,12)         -167.9082         estimate D2E/DX2                !
 ! D14   D(9,1,10,16)           69.9036         estimate D2E/DX2                !
 ! D15   D(9,2,4,5)              5.2806         estimate D2E/DX2                !
 ! D16   D(9,2,4,7)           -179.0728         estimate D2E/DX2                !
 ! D17   D(13,2,4,5)          -170.2753         estimate D2E/DX2                !
 ! D18   D(13,2,4,7)             5.3713         estimate D2E/DX2                !
 ! D19   D(4,2,9,1)            -21.4899         estimate D2E/DX2                !
 ! D20   D(4,2,9,38)          -175.6935         estimate D2E/DX2                !
 ! D21   D(13,2,9,1)           154.6498         estimate D2E/DX2                !
 ! D22   D(13,2,9,38)            0.4463         estimate D2E/DX2                !
 ! D23   D(4,2,13,14)         -136.9279         estimate D2E/DX2                !
 ! D24   D(4,2,13,15)          -16.2676         estimate D2E/DX2                !
 ! D25   D(4,2,13,17)          105.9209         estimate D2E/DX2                !
 ! D26   D(9,2,13,14)           47.2482         estimate D2E/DX2                !
 ! D27   D(9,2,13,15)          167.9085         estimate D2E/DX2                !
 ! D28   D(9,2,13,17)          -69.9031         estimate D2E/DX2                !
 ! D29   D(1,3,5,4)             -9.8616         estimate D2E/DX2                !
 ! D30   D(1,3,5,8)            175.6553         estimate D2E/DX2                !
 ! D31   D(6,3,5,4)            165.8506         estimate D2E/DX2                !
 ! D32   D(6,3,5,8)             -8.6325         estimate D2E/DX2                !
 ! D33   D(2,4,5,3)              9.8621         estimate D2E/DX2                !
 ! D34   D(2,4,5,8)           -175.6549         estimate D2E/DX2                !
 ! D35   D(7,4,5,3)           -165.8515         estimate D2E/DX2                !
 ! D36   D(7,4,5,8)              8.6315         estimate D2E/DX2                !
 ! D37   D(1,10,16,22)        -158.6439         estimate D2E/DX2                !
 ! D38   D(1,10,16,26)          82.3413         estimate D2E/DX2                !
 ! D39   D(1,10,16,39)         -33.1009         estimate D2E/DX2                !
 ! D40   D(11,10,16,22)        -39.6675         estimate D2E/DX2                !
 ! D41   D(11,10,16,26)       -158.6822         estimate D2E/DX2                !
 ! D42   D(11,10,16,39)         85.8756         estimate D2E/DX2                !
 ! D43   D(12,10,16,22)         78.6384         estimate D2E/DX2                !
 ! D44   D(12,10,16,26)        -40.3764         estimate D2E/DX2                !
 ! D45   D(12,10,16,39)       -155.8186         estimate D2E/DX2                !
 ! D46   D(2,13,17,30)         158.6426         estimate D2E/DX2                !
 ! D47   D(2,13,17,34)         -82.3434         estimate D2E/DX2                !
 ! D48   D(2,13,17,39)          33.1004         estimate D2E/DX2                !
 ! D49   D(14,13,17,30)         39.6663         estimate D2E/DX2                !
 ! D50   D(14,13,17,34)        158.6803         estimate D2E/DX2                !
 ! D51   D(14,13,17,39)        -85.8759         estimate D2E/DX2                !
 ! D52   D(15,13,17,30)        -78.6399         estimate D2E/DX2                !
 ! D53   D(15,13,17,34)         40.3741         estimate D2E/DX2                !
 ! D54   D(15,13,17,39)        155.8179         estimate D2E/DX2                !
 ! D55   D(10,16,22,23)       -176.1708         estimate D2E/DX2                !
 ! D56   D(10,16,22,24)        -56.4251         estimate D2E/DX2                !
 ! D57   D(10,16,22,25)         64.6637         estimate D2E/DX2                !
 ! D58   D(26,16,22,23)        -56.8471         estimate D2E/DX2                !
 ! D59   D(26,16,22,24)         62.8986         estimate D2E/DX2                !
 ! D60   D(26,16,22,25)       -176.0125         estimate D2E/DX2                !
 ! D61   D(39,16,22,23)         66.7427         estimate D2E/DX2                !
 ! D62   D(39,16,22,24)       -173.5116         estimate D2E/DX2                !
 ! D63   D(39,16,22,25)        -52.4227         estimate D2E/DX2                !
 ! D64   D(10,16,26,27)         63.8617         estimate D2E/DX2                !
 ! D65   D(10,16,26,28)       -175.9138         estimate D2E/DX2                !
 ! D66   D(10,16,26,29)        -56.9808         estimate D2E/DX2                !
 ! D67   D(22,16,26,27)        -55.0203         estimate D2E/DX2                !
 ! D68   D(22,16,26,28)         65.2043         estimate D2E/DX2                !
 ! D69   D(22,16,26,29)       -175.8627         estimate D2E/DX2                !
 ! D70   D(39,16,26,27)        176.2149         estimate D2E/DX2                !
 ! D71   D(39,16,26,28)        -63.5606         estimate D2E/DX2                !
 ! D72   D(39,16,26,29)         55.3724         estimate D2E/DX2                !
 ! D73   D(10,16,39,18)       -178.9805         estimate D2E/DX2                !
 ! D74   D(22,16,39,18)        -59.118          estimate D2E/DX2                !
 ! D75   D(26,16,39,18)         64.7867         estimate D2E/DX2                !
 ! D76   D(13,17,30,31)         56.4257         estimate D2E/DX2                !
 ! D77   D(13,17,30,32)        176.1717         estimate D2E/DX2                !
 ! D78   D(13,17,30,33)        -64.6627         estimate D2E/DX2                !
 ! D79   D(34,17,30,31)        -62.8994         estimate D2E/DX2                !
 ! D80   D(34,17,30,32)         56.8466         estimate D2E/DX2                !
 ! D81   D(34,17,30,33)        176.0122         estimate D2E/DX2                !
 ! D82   D(39,17,30,31)        173.5125         estimate D2E/DX2                !
 ! D83   D(39,17,30,32)        -66.7414         estimate D2E/DX2                !
 ! D84   D(39,17,30,33)         52.4241         estimate D2E/DX2                !
 ! D85   D(13,17,34,35)        175.9138         estimate D2E/DX2                !
 ! D86   D(13,17,34,36)        -63.8611         estimate D2E/DX2                !
 ! D87   D(13,17,34,37)         56.9819         estimate D2E/DX2                !
 ! D88   D(30,17,34,35)        -65.2035         estimate D2E/DX2                !
 ! D89   D(30,17,34,36)         55.0216         estimate D2E/DX2                !
 ! D90   D(30,17,34,37)        175.8647         estimate D2E/DX2                !
 ! D91   D(39,17,34,35)         63.5589         estimate D2E/DX2                !
 ! D92   D(39,17,34,36)       -176.216          estimate D2E/DX2                !
 ! D93   D(39,17,34,37)        -55.3729         estimate D2E/DX2                !
 ! D94   D(13,17,39,18)        178.9811         estimate D2E/DX2                !
 ! D95   D(30,17,39,18)         59.118          estimate D2E/DX2                !
 ! D96   D(34,17,39,18)        -64.7838         estimate D2E/DX2                !
 ! D97   D(19,18,39,16)        -87.6585         estimate D2E/DX2                !
 ! D98   D(19,18,39,17)         87.6587         estimate D2E/DX2                !
 ! D99   D(20,18,39,16)         30.4341         estimate D2E/DX2                !
 ! D100  D(20,18,39,17)       -154.2486         estimate D2E/DX2                !
 ! D101  D(21,18,39,16)        154.2484         estimate D2E/DX2                !
 ! D102  D(21,18,39,17)        -30.4343         estimate D2E/DX2                !
 --------------------------------------------------------------------------------
 Trust Radius=3.00D-01 FncErr=1.00D-07 GrdErr=1.00D-06 EigMax=2.50D+02 EigMin=1.00D-04
 Number of steps in this run=    228 maximum allowed number of steps=    234.
 GradGradGradGradGradGradGradGradGradGradGradGradGradGradGradGradGradGrad

                          Input orientation:                          
 ---------------------------------------------------------------------
 Center     Atomic      Atomic             Coordinates (Angstroms)
 Number     Number       Type             X           Y           Z
 ---------------------------------------------------------------------
      1          6           0       -1.420480   -1.197790   -0.673840
      2          6           0       -1.420440    1.197860   -0.673830
      3          6           0       -2.579910   -1.231480    0.041120
      4          6           0       -2.579850    1.231590    0.041130
      5          6           0       -3.324230    0.000070    0.361120
      6          1           0       -2.940960   -2.179060    0.452520
      7          1           0       -2.940870    2.179190    0.452530
      8          8           0       -4.413640    0.000090    0.937350
      9          7           0       -0.970290    0.000030   -1.213200
     10          6           0       -0.459680   -2.341370   -0.895900
     11          1           0       -0.129230   -2.358670   -1.951590
     12          1           0       -0.928770   -3.317080   -0.653160
     13          6           0       -0.459580    2.341400   -0.895890
     14          1           0       -0.129150    2.358690   -1.951590
     15          1           0       -0.928630    3.317130   -0.653140
     16          7           0        0.764040   -2.121480   -0.053280
     17          7           0        0.764130    2.121450   -0.053290
     18          6           0        2.653160   -0.000050    1.111360
     19          1           0        2.321350   -0.000040    2.177030
     20          1           0        3.302640   -0.889810    0.975550
     21          1           0        3.302660    0.889700    0.975520
     22          6           0        1.881380   -2.904420   -0.623160
     23          1           0        2.760640   -2.801840    0.027970
     24          1           0        1.603150   -3.979100   -0.691420
     25          1           0        2.123320   -2.510900   -1.622170
     26          6           0        0.503380   -2.588390    1.327900
     27          1           0        0.321060   -3.686480    1.334630
     28          1           0        1.382200   -2.352590    1.947160
     29          1           0       -0.374900   -2.060060    1.729280
     30          6           0        1.881520    2.904310   -0.623180
     31          1           0        1.603370    3.979000   -0.691440
     32          1           0        2.760770    2.801660    0.027940
     33          1           0        2.123400    2.510760   -1.622190
     34          6           0        0.503560    2.588400    1.327900
     35          1           0        1.382400    2.352540    1.947130
     36          1           0        0.321310    3.686500    1.334630
     37          1           0       -0.374730    2.060120    1.729320
     38          1           0       -0.024640    0.000010   -1.705860
     39         45           0        0.973220   -0.000030   -0.017280
 ---------------------------------------------------------------------
                    Distance matrix (angstroms):
                    1          2          3          4          5
     1  C    0.000000
     2  C    2.395650   0.000000
     3  C    1.362564   2.785178   0.000000
     4  C    2.785176   1.362548   2.463070   0.000000
     5  C    2.475939   2.475932   1.474153   1.474156   0.000000
     6  H    2.131534   3.870947   1.094310   3.454298   2.214465
     7  H    3.870955   2.131526   3.454305   1.094318   2.214472
     8  O    3.604144   3.604137   2.383812   2.383818   1.232418
     9  N    1.388652   1.388651   2.383445   2.383436   2.831875
    10  C    1.510041   3.674034   2.570066   4.259013   3.907440
    11  H    2.155833   3.993595   3.353697   4.781886   4.595684
    12  H    2.175683   4.541679   2.749184   4.888609   4.215504
    13  C    3.674031   1.510048   4.259021   2.570064   3.907444
    14  H    3.993586   2.155836   4.781886   3.353687   4.595678
    15  H    4.541679   2.175686   4.888617   2.749184   4.215508
    16  N    2.451617   4.021822   3.461649   4.736411   4.624571
    17  N    4.021810   2.451619   4.736418   3.461642   4.624573
    18  C    4.606090   4.606095   5.481501   5.481489   6.024288
    19  H    4.854210   4.854210   5.486429   5.486414   5.930439
    20  H    5.012305   5.420914   5.966095   6.322750   6.714523
    21  H    5.420891   5.012284   6.322748   5.966062   6.714507
    22  C    3.717181   5.266240   4.810728   6.119676   6.041792
    23  H    4.532911   5.828512   5.566658   6.692501   6.707260
    24  H    4.108325   5.995275   5.058065   6.722009   6.420336
    25  H    3.896422   5.216559   5.150128   6.236394   6.317769
    26  C    3.105152   4.695071   3.606062   5.074873   4.720740
    27  H    3.641496   5.560891   4.014451   5.854557   5.275084
    28  H    4.007271   5.227817   4.537421   5.672489   5.495545
    29  H    2.758937   4.181164   2.898016   4.306578   3.848967
    30  C    5.266213   3.717187   6.119674   4.810730   6.041795
    31  H    5.995259   4.108342   6.722022   5.058088   6.420359
    32  H    5.828460   4.532899   6.692477   5.566643   6.707245
    33  H    5.216493   3.896395   6.236352   5.150094   6.317733
    34  C    4.695117   3.105205   5.074946   3.606124   4.720815
    35  H    5.227855   4.007322   5.672563   4.537487   5.495626
    36  H    5.560942   3.641556   5.854637   4.014530   5.275173
    37  H    4.181238   2.759009   4.306677   2.898103   3.849068
    38  H    2.109066   2.109073   3.331353   3.331345   3.893546
    39  Rh   2.755993   2.756013   3.760932   3.760932   4.314077
                    6          7          8          9         10
     6  H    0.000000
     7  H    4.358250   0.000000
     8  O    2.674424   2.674431   0.000000
     9  N    3.377365   3.377363   4.059744   0.000000
    10  C    2.828662   5.330106   4.947428   2.417345   0.000000
    11  H    3.703759   5.854681   5.680307   2.610760   1.106335
    12  H    2.562523   5.956516   5.067313   3.364311   1.109495
    13  C    5.330105   2.828666   4.947433   2.417338   4.682770
    14  H    5.854673   3.703753   5.680301   2.610750   4.828488
    15  H    5.956514   2.562523   5.067318   3.364306   5.683086
    16  N    3.739809   5.698944   5.682497   2.975587   1.501949
    17  N    5.698940   3.739815   5.682503   2.975572   4.703665
    18  C    6.039564   6.039563   7.068942   4.304994   4.381854
    19  H    5.950964   5.950958   6.848131   4.725310   4.760132
    20  H    6.396739   6.976656   7.767519   4.882660   4.445717
    21  H    6.976647   6.396716   7.767506   4.882633   5.300682
    22  C    4.993816   7.089026   7.106240   4.112906   2.423216
    23  H    5.751203   7.582752   7.755519   4.828128   3.381720
    24  H    5.019729   7.738299   7.395175   4.767423   2.641825
    25  H    5.482827   7.207451   7.455740   4.005303   2.688512
    26  C    3.577334   5.946339   5.570444   3.915202   2.435937
    27  H    3.700163   6.769370   6.013819   4.663623   2.719217
    28  H    4.577529   6.438935   6.336133   4.588780   3.387571
    29  H    2.868613   5.117180   4.602477   3.640968   2.641570
    30  C    7.089012   4.993836   7.106250   4.112881   5.750891
    31  H    7.738300   5.019771   7.395207   4.767406   6.651696
    32  H    7.582715   5.751212   7.755513   4.828081   6.138040
    33  H    7.207397   5.482812   7.455709   4.005241   5.544634
    34  C    5.946401   3.577405   5.570524   3.915237   5.493246
    35  H    6.438998   4.577613   6.336226   4.588806   5.788685
    36  H    6.769440   3.700257   6.013917   4.663661   6.474599
    37  H    5.117265   2.868701   4.602579   3.641028   5.125633
    38  H    4.232242   4.232242   5.123464   1.066287   2.515423
    39  Rh   4.504408   4.504422   5.470793   2.281985   2.882195
                   11         12         13         14         15
    11  H    0.000000
    12  H    1.801037   0.000000
    13  C    4.828488   5.683085   0.000000
    14  H    4.717360   5.877047   1.106339   0.000000
    15  H    5.877050   6.634210   1.109497   1.801041   0.000000
    16  N    2.111343   2.157527   4.703673   4.947049   5.727429
    17  N    4.947030   5.727422   1.501938   2.111344   2.157523
    18  C    4.763029   5.190996   4.381848   4.763042   5.190989
    19  H    5.349204   5.438383   4.760121   5.349211   5.438368
    20  H    4.743778   5.142875   5.300689   5.558604   6.185032
    21  H    5.558574   6.185030   4.445679   4.743756   5.142836
    22  C    2.470854   2.840446   5.750922   5.788548   6.826766
    23  H    3.530780   3.786972   6.138098   6.237036   7.177494
    24  H    2.686068   2.617318   6.651720   6.690028   7.723105
    25  H    2.281594   3.302145   5.544697   5.375411   6.649763
    26  C    3.347838   2.550812   5.493211   5.968982   6.391427
    27  H    3.572826   2.376939   6.474562   6.895362   7.386712
    28  H    4.181472   3.610054   5.788664   6.299253   6.651858
    29  H    3.701125   2.750071   5.125577   5.756262   5.907344
    30  C    5.788501   6.826736   2.423218   2.470864   2.840468
    31  H    6.689988   7.723081   2.641836   2.686077   2.617358
    32  H    6.236958   7.177436   3.381709   3.530779   3.786985
    33  H    5.375332   6.649698   2.688490   2.281581   3.302147
    34  C    5.969002   6.391468   2.435958   3.347857   2.550830
    35  H    6.299249   6.651887   3.387592   4.181488   3.610083
    36  H    6.895383   7.386754   2.719247   3.572847   2.376976
    37  H    5.756307   5.907406   2.641599   3.701155   2.750090
    38  H    2.373751   3.595652   2.515419   2.373747   3.595650
    39  Rh   3.243476   3.876175   2.882215   3.243507   3.876197
                   16         17         18         19         20
    16  N    0.000000
    17  N    4.242930   0.000000
    18  C    3.070118   3.070115   0.000000
    19  H    3.449638   3.449635   1.116132   0.000000
    20  H    3.003330   4.070655   1.109929   1.788344   0.000000
    21  H    4.070654   3.003297   1.109936   1.788360   1.779510
    22  C    1.478583   5.179997   3.469808   4.058332   2.938453
    23  H    2.110901   5.313327   3.005880   3.558303   2.201711
    24  H    2.135903   6.190951   4.492814   4.957493   3.900098
    25  H    2.112038   5.076165   3.749305   4.558240   3.281292
    26  C    1.481083   4.915106   3.371639   3.274995   3.293202
    27  H    2.138165   5.987878   4.367872   4.277924   4.103672
    28  H    2.106489   4.939721   2.801490   2.543489   2.602276
    29  H    2.116241   4.686147   3.714110   3.422561   3.932162
    30  C    5.179972   1.478582   3.469779   4.058309   4.355556
    31  H    6.190927   2.135896   4.492770   4.957456   5.419565
    32  H    5.313270   2.110890   3.005821   3.558258   3.849485
    33  H    5.076119   2.112019   3.749281   4.558220   4.438776
    34  C    4.915127   1.481089   3.371608   3.274966   4.478498
    35  H    4.939723   2.106500   2.801432   2.543445   3.891545
    36  H    5.987899   2.138175   4.367840   4.277894   5.473562
    37  H    4.686175   2.116238   3.714067   3.422507   4.774234
    38  H    2.802455   2.802437   3.886816   4.536574   4.364921
    39  Rh   2.132042   2.132063   2.023864   2.575355   2.683956
                   21         22         23         24         25
    21  H    0.000000
    22  C    4.355590   0.000000
    23  H    3.849559   1.098904   0.000000
    24  H    5.419616   1.112209   1.800901   0.000000
    25  H    4.438797   1.100643   1.792703   1.814520   0.000000
    26  C    4.478532   2.409439   2.613542   2.687233   3.366470
    27  H    5.473602   2.622815   2.905426   2.415421   3.656883
    28  H    3.891619   2.675863   2.405247   3.107484   3.648895
    29  H    4.774273   3.367153   3.643666   3.668131   4.204352
    30  C    2.938390   5.808730   5.810077   6.889374   5.511891
    31  H    3.900015   6.889370   6.916402   7.958100   6.576884
    32  H    2.201623   5.810044   5.603500   6.916377   5.599330
    33  H    3.281248   5.511879   5.599359   6.576874   5.021660
    34  C    3.293131   5.989666   5.986561   6.958362   6.109779
    35  H    2.602177   5.872904   5.670128   6.862969   6.077986
    36  H    4.103596   7.050318   7.053811   8.031775   7.099132
    37  H    3.932085   5.938927   6.030240   6.800307   6.194107
    38  H    4.364891   3.638800   4.314431   4.417251   3.305360
    39  Rh   2.683945   3.102793   3.323711   4.084639   3.194193
                   26         27         28         29         30
    26  C    0.000000
    27  H    1.113143   0.000000
    28  H    1.100640   1.811208   0.000000
    29  H    1.100734   1.812554   1.794560   0.000000
    30  C    5.989636   7.050289   5.872901   5.938895   0.000000
    31  H    6.958328   8.031741   6.862955   6.800271   1.112198
    32  H    5.986514   7.053764   5.670111   6.030199   1.098897
    33  H    6.109732   7.099084   6.077977   6.194050   1.100640
    34  C    5.176790   6.277537   5.056567   4.747734   2.409416
    35  H    5.056571   6.162091   4.705130   4.754640   2.675830
    36  H    6.277534   7.372980   6.162085   5.802018   2.622803
    37  H    4.747722   5.802010   4.754605   4.120180   3.367132
    38  H    4.022725   4.791064   4.567109   4.020791   3.638764
    39  Rh   2.954635   3.980312   3.092059   3.018546   3.102791
                   31         32         33         34         35
    31  H    0.000000
    32  H    1.800892   0.000000
    33  H    1.814512   1.792705   0.000000
    34  C    2.687208   2.613498   3.366443   0.000000
    35  H    3.107451   2.405183   3.648857   1.100652   0.000000
    36  H    2.415408   2.905399   3.656867   1.113141   1.811220
    37  H    3.668114   3.643616   4.204325   1.100732   1.794563
    38  H    4.417219   4.314373   3.305290   4.022743   4.567110
    39  Rh   4.084637   3.323680   3.194169   2.954667   3.092074
                   36         37         38         39
    36  H    0.000000
    37  H    1.812557   0.000000
    38  H    4.791082   4.020830   0.000000
    39  Rh   3.980346   3.018576   1.961384   0.000000
 Stoichiometry    C12H22N3ORh
 Framework group  C1[X(C12H22N3ORh)]
 Deg. of freedom   111
 Full point group                 C1      NOp   1
 Largest Abelian subgroup         C1      NOp   1
 Largest concise Abelian subgroup C1      NOp   1
                         Standard orientation:                         
 ---------------------------------------------------------------------
 Center     Atomic      Atomic             Coordinates (Angstroms)
 Number     Number       Type             X           Y           Z
 ---------------------------------------------------------------------
      1          6           0        1.420486    1.197784   -0.673839
      2          6           0        1.420438   -1.197866   -0.673829
      3          6           0        2.579916    1.231470    0.041121
      4          6           0        2.579848   -1.231600    0.041131
      5          6           0        3.324232   -0.000082    0.361121
      6          1           0        2.940969    2.179049    0.452521
      7          1           0        2.940865   -2.179201    0.452531
      8          8           0        4.413642   -0.000106    0.937351
      9          7           0        0.970292   -0.000034   -1.213199
     10          6           0        0.459690    2.341367   -0.895899
     11          1           0        0.129240    2.358669   -1.951589
     12          1           0        0.928783    3.317076   -0.653159
     13          6           0        0.459574   -2.341403   -0.895889
     14          1           0        0.129144   -2.358691   -1.951589
     15          1           0        0.928621   -3.317134   -0.653139
     16          7           0       -0.764031    2.121481   -0.053279
     17          7           0       -0.764135   -2.121449   -0.053289
     18          6           0       -2.653158    0.000058    1.111361
     19          1           0       -2.321348    0.000047    2.177031
     20          1           0       -3.302635    0.889820    0.975551
     21          1           0       -3.302661   -0.889690    0.975521
     22          6           0       -1.881369    2.904425   -0.623159
     23          1           0       -2.760629    2.801848    0.027971
     24          1           0       -1.603135    3.979104   -0.691419
     25          1           0       -2.123310    2.510906   -1.622169
     26          6           0       -0.503370    2.588391    1.327901
     27          1           0       -0.321046    3.686480    1.334631
     28          1           0       -1.382190    2.352593    1.947161
     29          1           0        0.374909    2.060058    1.729281
     30          6           0       -1.881528   -2.904305   -0.623179
     31          1           0       -1.603381   -3.978996   -0.691439
     32          1           0       -2.760777   -2.801652    0.027941
     33          1           0       -2.123406   -2.510754   -1.622189
     34          6           0       -0.503567   -2.588399    1.327901
     35          1           0       -1.382406   -2.352537    1.947131
     36          1           0       -0.321320   -3.686500    1.334631
     37          1           0        0.374725   -2.060122    1.729321
     38          1           0        0.024642   -0.000011   -1.705859
     39         45           0       -0.973218    0.000032   -0.017279
 ---------------------------------------------------------------------
 Rotational constants (GHZ):           0.4960481           0.4157606           0.2681994
 Standard basis: def2TZVPP (5D, 7F)
 There are   977 symmetry adapted cartesian basis functions of A   symmetry.
 There are   860 symmetry adapted basis functions of A   symmetry.
   860 basis functions,  1289 primitive gaussians,   977 cartesian basis functions
    70 alpha electrons       70 beta electrons
       nuclear repulsion energy      1549.7627732093 Hartrees.
 NAtoms=   39 NActive=   39 NUniq=   39 SFac= 1.00D+00 NAtFMM=   60 NAOKFM=F Big=F
 Integral buffers will be    131072 words long.
 Raffenetti 2 integral format.
 Two-electron integral symmetry is turned on.
 Nuclear repulsion after empirical dispersion term =     1549.7207517162 Hartrees.
 ------------------------------------------------------------------------------
 Polarizable Continuum Model (PCM)
 =================================
 Model                : PCM.
 Atomic radii         : UFF (Universal Force Field).
 Polarization charges : Total charges.
 Charge compensation  : None.
 Solution method      : On-the-fly selection.
 Cavity type          : Scaled VdW (van der Waals Surface) (Alpha=1.100).
 Cavity algorithm     : GePol (No added spheres)
                        Default sphere list used, NSphG=   39.
                        Lebedev-Laikov grids with approx.  5.0 points / Ang**2.
                        Smoothing algorithm: York/Karplus (Gamma=1.0000).
                        Polarization charges: spherical gaussians, with
                                              point-specific exponents (IZeta= 3).
                        Self-potential: point-specific (ISelfS= 7).
                        Self-field    : sphere-specific E.n sum rule (ISelfD= 2).
 1st derivatives      : Analytical E(r).r(x)/FMM algorithm (CHGder, D1EAlg=3).
                        Cavity 1st derivative terms included.
 Solvent              : Dichloromethane, Eps=   8.930000 Eps(inf)=   2.028346
 ------------------------------------------------------------------------------
 One-electron integrals computed using PRISM.
 PrsmSu:  requested number of processors reduced to:   5 ShMem   1 Linda.
   1 Symmetry operations used in ECPInt.
 ECPInt:  NShTT=   52650 NPrTT=  135371 LenC2=   48248 LenP2D=   95053.
 LDataN:  DoStor=T MaxTD1= 8 Len=  415
 NBasis=   860 RedAO= T EigKep=  2.17D-05  NBF=   860
 NBsUse=   860 1.00D-06 EigRej= -1.00D+00 NBFU=   860
 Defaulting to unpruned grid for atomic number  45.
 ExpMin= 3.70D-02 ExpMax= 2.70D+04 ExpMxC= 9.22D+02 IAcc=3 IRadAn=         5 AccDes= 0.00D+00
 Harris functional with IExCor= 4639 and IRadAn=       5 diagonalized for initial guess.
 HarFok:  IExCor= 4639 AccDes= 0.00D+00 IRadAn=         5 IDoV= 1 UseB2=F ITyADJ=14
 ICtDFT=  3500011 ScaDFX=  1.000000  1.000000  1.000000  1.000000
 Defaulting to unpruned grid for atomic number  45.
 FoFCou: FMM=F IPFlag=           0 FMFlag=      100000 FMFlg1=           0
         NFxFlg=           0 DoJE=T BraDBF=F KetDBF=T FulRan=T
         wScrn=  0.000000 ICntrl=       500 IOpCl=  0 I1Cent=   200000004 NGrid=           0
         NMat0=    1 NMatS0=      1 NMatT0=    0 NMatD0=    1 NMtDS0=    0 NMtDT0=    0
 Petite list used in FoFCou.
 Requested convergence on RMS density matrix=1.00D-08 within 128 cycles.
 Requested convergence on MAX density matrix=1.00D-06.
 Requested convergence on             energy=1.00D-06.
 No special actions if energy rises.
 Defaulting to unpruned grid for atomic number  45.
 Defaulting to unpruned grid for atomic number  45.
 Defaulting to unpruned grid for atomic number  45.
 Defaulting to unpruned grid for atomic number  45.
 Defaulting to unpruned grid for atomic number  45.
 Defaulting to unpruned grid for atomic number  45.
 Defaulting to unpruned grid for atomic number  45.
 Defaulting to unpruned grid for atomic number  45.
 Inv3:  Mode=1 IEnd=    18184332.
 Iteration    1 A*A^-1 deviation from unit magnitude is 3.33D-15 for    762.
 Iteration    1 A*A^-1 deviation from orthogonality  is 1.83D-15 for   1762    448.
 Iteration    1 A^-1*A deviation from unit magnitude is 3.11D-15 for   1666.
 Iteration    1 A^-1*A deviation from orthogonality  is 3.33D-15 for   2204   1231.
 Error on total polarization charges =  0.01767
 SCF Done:  E(RwB97XD) =  -820.633777645     A.U. after   18 cycles
            NFock= 18  Conv=0.31D-08     -V/T= 2.0990

 **********************************************************************

            Population analysis using the SCF Density.

 **********************************************************************

 Orbital symmetries:
       Occupied  (A) (A) (A) (A) (A) (A) (A) (A) (A) (A) (A) (A)
                 (A) (A) (A) (A) (A) (A) (A) (A) (A) (A) (A) (A)
                 (A) (A) (A) (A) (A) (A) (A) (A) (A) (A) (A) (A)
                 (A) (A) (A) (A) (A) (A) (A) (A) (A) (A) (A) (A)
                 (A) (A) (A) (A) (A) (A) (A) (A) (A) (A) (A) (A)
                 (A) (A) (A) (A) (A) (A) (A) (A) (A) (A)
       Virtual   (A) (A) (A) (A) (A) (A) (A) (A) (A) (A) (A) (A)
                 (A) (A) (A) (A) (A) (A) (A) (A) (A) (A) (A) (A)
                 (A) (A) (A) (A) (A) (A) (A) (A) (A) (A) (A) (A)
                 (A) (A) (A) (A) (A) (A) (A) (A) (A) (A) (A) (A)
                 (A) (A) (A) (A) (A) (A) (A) (A) (A) (A) (A) (A)
                 (A) (A) (A) (A) (A) (A) (A) (A) (A) (A) (A) (A)
                 (A) (A) (A) (A) (A) (A) (A) (A) (A) (A) (A) (A)
                 (A) (A) (A) (A) (A) (A) (A) (A) (A) (A) (A) (A)
                 (A) (A) (A) (A) (A) (A) (A) (A) (A) (A) (A) (A)
                 (A) (A) (A) (A) (A) (A) (A) (A) (A) (A) (A) (A)
                 (A) (A) (A) (A) (A) (A) (A) (A) (A) (A) (A) (A)
                 (A) (A) (A) (A) (A) (A) (A) (A) (A) (A) (A) (A)
                 (A) (A) (A) (A) (A) (A) (A) (A) (A) (A) (A) (A)
                 (A) (A) (A) (A) (A) (A) (A) (A) (A) (A) (A) (A)
                 (A) (A) (A) (A) (A) (A) (A) (A) (A) (A) (A) (A)
                 (A) (A) (A) (A) (A) (A) (A) (A) (A) (A) (A) (A)
                 (A) (A) (A) (A) (A) (A) (A) (A) (A) (A) (A) (A)
                 (A) (A) (A) (A) (A) (A) (A) (A) (A) (A) (A) (A)
                 (A) (A) (A) (A) (A) (A) (A) (A) (A) (A) (A) (A)
                 (A) (A) (A) (A) (A) (A) (A) (A) (A) (A) (A) (A)
                 (A) (A) (A) (A) (A) (A) (A) (A) (A) (A) (A) (A)
                 (A) (A) (A) (A) (A) (A) (A) (A) (A) (A) (A) (A)
                 (A) (A) (A) (A) (A) (A) (A) (A) (A) (A) (A) (A)
                 (A) (A) (A) (A) (A) (A) (A) (A) (A) (A) (A) (A)
                 (A) (A) (A) (A) (A) (A) (A) (A) (A) (A) (A) (A)
                 (A) (A) (A) (A) (A) (A) (A) (A) (A) (A) (A) (A)
                 (A) (A) (A) (A) (A) (A) (A) (A) (A) (A) (A) (A)
                 (A) (A) (A) (A) (A) (A) (A) (A) (A) (A) (A) (A)
                 (A) (A) (A) (A) (A) (A) (A) (A) (A) (A) (A) (A)
                 (A) (A) (A) (A) (A) (A) (A) (A) (A) (A) (A) (A)
                 (A) (A) (A) (A) (A) (A) (A) (A) (A) (A) (A) (A)
                 (A) (A) (A) (A) (A) (A) (A) (A) (A) (A) (A) (A)
                 (A) (A) (A) (A) (A) (A) (A) (A) (A) (A) (A) (A)
                 (A) (A) (A) (A) (A) (A) (A) (A) (A) (A) (A) (A)
                 (A) (A) (A) (A) (A) (A) (A) (A) (A) (A) (A) (A)
                 (A) (A) (A) (A) (A) (A) (A) (A) (A) (A) (A) (A)
                 (A) (A) (A) (A) (A) (A) (A) (A) (A) (A) (A) (A)
                 (A) (A) (A) (A) (A) (A) (A) (A) (A) (A) (A) (A)
                 (A) (A) (A) (A) (A) (A) (A) (A) (A) (A) (A) (A)
                 (A) (A) (A) (A) (A) (A) (A) (A) (A) (A) (A) (A)
                 (A) (A) (A) (A) (A) (A) (A) (A) (A) (A) (A) (A)
                 (A) (A) (A) (A) (A) (A) (A) (A) (A) (A) (A) (A)
                 (A) (A) (A) (A) (A) (A) (A) (A) (A) (A) (A) (A)
                 (A) (A) (A) (A) (A) (A) (A) (A) (A) (A) (A) (A)
                 (A) (A) (A) (A) (A) (A) (A) (A) (A) (A) (A) (A)
                 (A) (A) (A) (A) (A) (A) (A) (A) (A) (A) (A) (A)
                 (A) (A) (A) (A) (A) (A) (A) (A) (A) (A) (A) (A)
                 (A) (A) (A) (A) (A) (A) (A) (A) (A) (A) (A) (A)
                 (A) (A) (A) (A) (A) (A) (A) (A) (A) (A) (A) (A)
                 (A) (A) (A) (A) (A) (A) (A) (A) (A) (A) (A) (A)
                 (A) (A) (A) (A) (A) (A) (A) (A) (A) (A) (A) (A)
                 (A) (A) (A) (A) (A) (A) (A) (A) (A) (A) (A) (A)
                 (A) (A) (A) (A) (A) (A) (A) (A) (A) (A) (A) (A)
                 (A) (A) (A) (A) (A) (A) (A) (A) (A) (A) (A) (A)
                 (A) (A) (A) (A) (A) (A) (A) (A) (A) (A) (A) (A)
                 (A) (A) (A) (A) (A) (A) (A) (A) (A) (A) (A) (A)
                 (A) (A) (A) (A) (A) (A) (A) (A) (A) (A) (A) (A)
                 (A) (A) (A) (A) (A) (A) (A) (A) (A) (A) (A) (A)
                 (A) (A) (A) (A) (A) (A) (A) (A) (A) (A) (A) (A)
                 (A) (A) (A) (A) (A) (A) (A) (A) (A) (A) (A) (A)
                 (A) (A) (A) (A) (A) (A) (A) (A) (A) (A) (A) (A)
                 (A) (A) (A) (A) (A) (A) (A) (A) (A) (A) (A) (A)
                 (A) (A) (A) (A) (A) (A) (A) (A) (A) (A) (A) (A)
                 (A) (A) (A) (A) (A) (A) (A) (A) (A) (A) (A) (A)
                 (A) (A) (A) (A) (A) (A) (A) (A) (A) (A) (A) (A)
                 (A) (A) (A) (A) (A) (A) (A) (A) (A) (A)
 The electronic state is 1-A.
 Alpha  occ. eigenvalues --  -19.21283 -14.50588 -14.49067 -14.49067 -10.36960
 Alpha  occ. eigenvalues --  -10.36451 -10.36449 -10.34401 -10.34401 -10.31515
 Alpha  occ. eigenvalues --  -10.31515 -10.31331 -10.31331 -10.29548 -10.29548
 Alpha  occ. eigenvalues --  -10.23372  -3.25813  -2.01963  -2.01862  -1.99102
 Alpha  occ. eigenvalues --   -1.12103  -1.10219  -1.05457  -1.04889  -0.91840
 Alpha  occ. eigenvalues --   -0.89353  -0.84043  -0.81649  -0.81442  -0.80784
 Alpha  occ. eigenvalues --   -0.73440  -0.73158  -0.72694  -0.70121  -0.70020
 Alpha  occ. eigenvalues --   -0.64919  -0.61503  -0.59913  -0.58569  -0.58087
 Alpha  occ. eigenvalues --   -0.57334  -0.57249  -0.56464  -0.53561  -0.53100
 Alpha  occ. eigenvalues --   -0.51940  -0.50961  -0.50435  -0.49566  -0.49141
 Alpha  occ. eigenvalues --   -0.48398  -0.47325  -0.46981  -0.46576  -0.46126
 Alpha  occ. eigenvalues --   -0.45825  -0.45665  -0.45540  -0.43763  -0.43348
 Alpha  occ. eigenvalues --   -0.40834  -0.36117  -0.36003  -0.34625  -0.33182
 Alpha  occ. eigenvalues --   -0.30937  -0.26823  -0.25711  -0.25446  -0.23447
 Alpha virt. eigenvalues --    0.01907   0.04206   0.06655   0.08867   0.09128
 Alpha virt. eigenvalues --    0.10348   0.10384   0.13040   0.13680   0.14217
 Alpha virt. eigenvalues --    0.15417   0.15528   0.15997   0.16072   0.16704
 Alpha virt. eigenvalues --    0.17190   0.17596   0.18032   0.18592   0.18666
 Alpha virt. eigenvalues --    0.19090   0.20001   0.20352   0.20855   0.21710
 Alpha virt. eigenvalues --    0.22292   0.22437   0.22774   0.23006   0.23106
 Alpha virt. eigenvalues --    0.23783   0.24469   0.24556   0.25283   0.25405
 Alpha virt. eigenvalues --    0.26966   0.27149   0.28026   0.28262   0.29609
 Alpha virt. eigenvalues --    0.29705   0.30476   0.30584   0.31963   0.32172
 Alpha virt. eigenvalues --    0.32972   0.33267   0.34105   0.34180   0.34950
 Alpha virt. eigenvalues --    0.35137   0.36001   0.36409   0.37532   0.37603
 Alpha virt. eigenvalues --    0.37796   0.38207   0.38844   0.39078   0.39698
 Alpha virt. eigenvalues --    0.40527   0.40746   0.41294   0.41744   0.42984
 Alpha virt. eigenvalues --    0.43610   0.43892   0.44250   0.44490   0.44749
 Alpha virt. eigenvalues --    0.45524   0.46532   0.47556   0.47579   0.47854
 Alpha virt. eigenvalues --    0.47968   0.49423   0.49437   0.49926   0.50389
 Alpha virt. eigenvalues --    0.50522   0.51092   0.51495   0.51519   0.52047
 Alpha virt. eigenvalues --    0.52138   0.52682   0.53172   0.53385   0.53682
 Alpha virt. eigenvalues --    0.53969   0.54149   0.54930   0.55649   0.55856
 Alpha virt. eigenvalues --    0.56237   0.56624   0.57402   0.57567   0.57657
 Alpha virt. eigenvalues --    0.58592   0.59411   0.60138   0.60683   0.61156
 Alpha virt. eigenvalues --    0.61638   0.62157   0.63011   0.64268   0.64921
 Alpha virt. eigenvalues --    0.65723   0.66010   0.66654   0.67201   0.67423
 Alpha virt. eigenvalues --    0.68150   0.68837   0.69488   0.69694   0.69924
 Alpha virt. eigenvalues --    0.71934   0.72470   0.73361   0.74455   0.75796
 Alpha virt. eigenvalues --    0.76373   0.76669   0.78100   0.78941   0.79877
 Alpha virt. eigenvalues --    0.80731   0.80849   0.81220   0.81225   0.82218
 Alpha virt. eigenvalues --    0.83856   0.83938   0.84426   0.86816   0.87855
 Alpha virt. eigenvalues --    0.88514   0.88844   0.89021   0.90232   0.90276
 Alpha virt. eigenvalues --    0.91151   0.92575   0.93050   0.93381   0.94147
 Alpha virt. eigenvalues --    0.94425   0.94754   0.95633   0.95820   0.97915
 Alpha virt. eigenvalues --    0.98102   0.98374   1.00114   1.00599   1.02153
 Alpha virt. eigenvalues --    1.02494   1.02687   1.03941   1.04122   1.04267
 Alpha virt. eigenvalues --    1.05343   1.05370   1.05942   1.06814   1.07796
 Alpha virt. eigenvalues --    1.08032   1.08339   1.08902   1.09729   1.10552
 Alpha virt. eigenvalues --    1.10990   1.11177   1.11570   1.12784   1.12934
 Alpha virt. eigenvalues --    1.13497   1.13837   1.14138   1.15155   1.15930
 Alpha virt. eigenvalues --    1.16392   1.17084   1.17995   1.19169   1.19657
 Alpha virt. eigenvalues --    1.19857   1.21083   1.21874   1.22138   1.22791
 Alpha virt. eigenvalues --    1.24062   1.24571   1.25079   1.25461   1.25861
 Alpha virt. eigenvalues --    1.25938   1.27409   1.27581   1.28072   1.29477
 Alpha virt. eigenvalues --    1.30508   1.31217   1.32109   1.32490   1.33275
 Alpha virt. eigenvalues --    1.33579   1.34330   1.35204   1.35319   1.35950
 Alpha virt. eigenvalues --    1.36469   1.38066   1.38981   1.39042   1.39661
 Alpha virt. eigenvalues --    1.40204   1.41063   1.41202   1.42214   1.42487
 Alpha virt. eigenvalues --    1.43425   1.44070   1.44321   1.45198   1.46841
 Alpha virt. eigenvalues --    1.46922   1.47243   1.47555   1.47809   1.48867
 Alpha virt. eigenvalues --    1.49737   1.50212   1.50666   1.51400   1.53339
 Alpha virt. eigenvalues --    1.53401   1.54021   1.55470   1.55758   1.56372
 Alpha virt. eigenvalues --    1.56451   1.57198   1.57741   1.58059   1.58355
 Alpha virt. eigenvalues --    1.58913   1.58987   1.61302   1.61446   1.61654
 Alpha virt. eigenvalues --    1.62575   1.62783   1.63614   1.64111   1.64790
 Alpha virt. eigenvalues --    1.65090   1.67010   1.67040   1.67426   1.68830
 Alpha virt. eigenvalues --    1.69331   1.69629   1.70010   1.72047   1.72074
 Alpha virt. eigenvalues --    1.73679   1.74068   1.74843   1.75008   1.75372
 Alpha virt. eigenvalues --    1.76580   1.76847   1.78479   1.79264   1.80149
 Alpha virt. eigenvalues --    1.80709   1.82429   1.83197   1.83222   1.84702
 Alpha virt. eigenvalues --    1.86121   1.86744   1.87518   1.87925   1.89522
 Alpha virt. eigenvalues --    1.89798   1.90729   1.90898   1.93137   1.94316
 Alpha virt. eigenvalues --    1.94682   1.96232   1.97535   1.97746   1.99272
 Alpha virt. eigenvalues --    2.00022   2.01631   2.04113   2.04345   2.05994
 Alpha virt. eigenvalues --    2.06826   2.07750   2.11097   2.11498   2.12339
 Alpha virt. eigenvalues --    2.13074   2.13933   2.16171   2.16601   2.18433
 Alpha virt. eigenvalues --    2.20561   2.21712   2.21829   2.22137   2.22729
 Alpha virt. eigenvalues --    2.23238   2.23482   2.24029   2.26575   2.27002
 Alpha virt. eigenvalues --    2.29313   2.30768   2.31504   2.33796   2.34629
 Alpha virt. eigenvalues --    2.35313   2.37853   2.38796   2.39588   2.40602
 Alpha virt. eigenvalues --    2.43059   2.44573   2.44813   2.46666   2.47992
 Alpha virt. eigenvalues --    2.50502   2.50946   2.54429   2.56824   2.57904
 Alpha virt. eigenvalues --    2.60252   2.61901   2.62953   2.62985   2.65213
 Alpha virt. eigenvalues --    2.65699   2.66075   2.67130   2.67403   2.67576
 Alpha virt. eigenvalues --    2.69488   2.70438   2.71186   2.73168   2.73809
 Alpha virt. eigenvalues --    2.73984   2.74689   2.75506   2.76048   2.76711
 Alpha virt. eigenvalues --    2.77430   2.79409   2.81698   2.82142   2.82666
 Alpha virt. eigenvalues --    2.83209   2.83319   2.85844   2.85860   2.86324
 Alpha virt. eigenvalues --    2.87035   2.88679   2.88908   2.89366   2.89836
 Alpha virt. eigenvalues --    2.90679   2.90805   2.91347   2.92013   2.92414
 Alpha virt. eigenvalues --    2.93312   2.93833   2.94226   2.94608   2.96590
 Alpha virt. eigenvalues --    2.97012   2.97317   2.97602   2.98216   2.98642
 Alpha virt. eigenvalues --    3.00024   3.00332   3.00723   3.01056   3.01698
 Alpha virt. eigenvalues --    3.03017   3.04057   3.04062   3.05153   3.05702
 Alpha virt. eigenvalues --    3.05974   3.07846   3.07967   3.08061   3.09306
 Alpha virt. eigenvalues --    3.09427   3.09678   3.11636   3.12777   3.12826
 Alpha virt. eigenvalues --    3.13812   3.14593   3.15056   3.15400   3.15596
 Alpha virt. eigenvalues --    3.16792   3.17475   3.17953   3.18595   3.19506
 Alpha virt. eigenvalues --    3.20042   3.20384   3.21444   3.21542   3.22071
 Alpha virt. eigenvalues --    3.23446   3.25010   3.25011   3.25642   3.26169
 Alpha virt. eigenvalues --    3.26446   3.27356   3.28298   3.28913   3.29412
 Alpha virt. eigenvalues --    3.30611   3.30761   3.31763   3.32498   3.33738
 Alpha virt. eigenvalues --    3.33754   3.34024   3.35744   3.36302   3.36980
 Alpha virt. eigenvalues --    3.37019   3.38016   3.38865   3.40008   3.41234
 Alpha virt. eigenvalues --    3.41287   3.42455   3.43038   3.44342   3.44881
 Alpha virt. eigenvalues --    3.45130   3.45357   3.46815   3.47074   3.47662
 Alpha virt. eigenvalues --    3.47908   3.48642   3.49125   3.49844   3.50351
 Alpha virt. eigenvalues --    3.51199   3.51590   3.52893   3.53685   3.53809
 Alpha virt. eigenvalues --    3.54223   3.55605   3.55733   3.55958   3.56635
 Alpha virt. eigenvalues --    3.56894   3.57926   3.58321   3.59748   3.59867
 Alpha virt. eigenvalues --    3.60385   3.62575   3.62975   3.63456   3.63762
 Alpha virt. eigenvalues --    3.65433   3.65908   3.66463   3.66857   3.67858
 Alpha virt. eigenvalues --    3.67940   3.69859   3.70804   3.71061   3.72348
 Alpha virt. eigenvalues --    3.73252   3.74406   3.74708   3.75124   3.75947
 Alpha virt. eigenvalues --    3.76190   3.77838   3.77899   3.78756   3.78858
 Alpha virt. eigenvalues --    3.79377   3.80306   3.81888   3.82055   3.82940
 Alpha virt. eigenvalues --    3.84027   3.84516   3.85142   3.85606   3.86294
 Alpha virt. eigenvalues --    3.87631   3.88568   3.89536   3.90025   3.91167
 Alpha virt. eigenvalues --    3.91602   3.92477   3.93289   3.94539   3.95479
 Alpha virt. eigenvalues --    3.95903   3.96275   3.96828   3.98348   3.98511
 Alpha virt. eigenvalues --    3.99493   4.00567   4.01230   4.01978   4.02378
 Alpha virt. eigenvalues --    4.03765   4.06477   4.06586   4.06749   4.06873
 Alpha virt. eigenvalues --    4.07841   4.08141   4.08728   4.10355   4.10654
 Alpha virt. eigenvalues --    4.11658   4.12353   4.13416   4.14215   4.14352
 Alpha virt. eigenvalues --    4.14722   4.15365   4.17039   4.17813   4.19065
 Alpha virt. eigenvalues --    4.19684   4.20341   4.20699   4.20898   4.21392
 Alpha virt. eigenvalues --    4.22759   4.22836   4.23127   4.23463   4.23533
 Alpha virt. eigenvalues --    4.24873   4.25024   4.25563   4.25907   4.26020
 Alpha virt. eigenvalues --    4.26863   4.26993   4.27748   4.29350   4.29415
 Alpha virt. eigenvalues --    4.29976   4.30428   4.30552   4.31565   4.32524
 Alpha virt. eigenvalues --    4.34181   4.34331   4.34719   4.34945   4.35773
 Alpha virt. eigenvalues --    4.35977   4.36540   4.36673   4.37113   4.37677
 Alpha virt. eigenvalues --    4.39152   4.39510   4.41208   4.41750   4.41796
 Alpha virt. eigenvalues --    4.42030   4.43877   4.44431   4.44772   4.46907
 Alpha virt. eigenvalues --    4.47523   4.48910   4.49082   4.50465   4.50781
 Alpha virt. eigenvalues --    4.52757   4.53447   4.53831   4.55093   4.55735
 Alpha virt. eigenvalues --    4.56454   4.57325   4.58169   4.58465   4.59463
 Alpha virt. eigenvalues --    4.60825   4.62709   4.63628   4.63690   4.64404
 Alpha virt. eigenvalues --    4.65585   4.67479   4.68850   4.69288   4.70803
 Alpha virt. eigenvalues --    4.71143   4.73610   4.73735   4.74594   4.75395
 Alpha virt. eigenvalues --    4.76679   4.78982   4.79697   4.79902   4.80754
 Alpha virt. eigenvalues --    4.81305   4.82449   4.83746   4.85267   4.86909
 Alpha virt. eigenvalues --    4.87434   4.88483   4.88838   4.90688   4.91146
 Alpha virt. eigenvalues --    4.92335   4.92906   4.93410   4.95326   4.96592
 Alpha virt. eigenvalues --    4.98498   4.99573   5.00482   5.01422   5.02920
 Alpha virt. eigenvalues --    5.05813   5.07440   5.08235   5.08568   5.10503
 Alpha virt. eigenvalues --    5.10730   5.11234   5.12247   5.13399   5.14008
 Alpha virt. eigenvalues --    5.14985   5.15712   5.17126   5.17748   5.17957
 Alpha virt. eigenvalues --    5.19049   5.19092   5.20075   5.20640   5.22208
 Alpha virt. eigenvalues --    5.23255   5.23605   5.24364   5.24423   5.24777
 Alpha virt. eigenvalues --    5.26017   5.27663   5.28231   5.28697   5.28986
 Alpha virt. eigenvalues --    5.29152   5.29974   5.31516   5.31835   5.32464
 Alpha virt. eigenvalues --    5.33267   5.34347   5.34509   5.35515   5.36205
 Alpha virt. eigenvalues --    5.36491   5.37832   5.38142   5.40659   5.42059
 Alpha virt. eigenvalues --    5.42136   5.42479   5.43119   5.44399   5.47125
 Alpha virt. eigenvalues --    5.47152   5.48207   5.49549   5.51160   5.51361
 Alpha virt. eigenvalues --    5.52083   5.53798   5.54123   5.54925   5.55736
 Alpha virt. eigenvalues --    5.56022   5.57650   5.60340   5.62630   5.63041
 Alpha virt. eigenvalues --    5.64464   5.64930   5.67104   5.67314   5.67788
 Alpha virt. eigenvalues --    5.68504   5.69385   5.70963   5.71345   5.73600
 Alpha virt. eigenvalues --    5.74029   5.74954   5.75117   5.77333   5.77580
 Alpha virt. eigenvalues --    5.78045   5.79029   5.80393   5.80588   5.80611
 Alpha virt. eigenvalues --    5.81542   5.82846   5.83871   5.85623   5.86632
 Alpha virt. eigenvalues --    5.92610   5.98176   6.00450   6.01981   6.03176
 Alpha virt. eigenvalues --    6.12603   6.13259   6.16021   6.21003   6.24683
 Alpha virt. eigenvalues --    6.31364   6.33129   6.38636   6.40385   6.50202
 Alpha virt. eigenvalues --    6.54225   6.75881   6.92945   6.94643   6.96120
 Alpha virt. eigenvalues --    7.20442   7.24683  22.97174  23.11055  23.27880
 Alpha virt. eigenvalues --   23.36613  23.46849  23.51604  23.51816  23.70729
 Alpha virt. eigenvalues --   23.74783  23.75892  23.86018  23.86304  31.20042
 Alpha virt. eigenvalues --   32.91099  32.97200  33.10547  44.09957 102.38027
          Condensed to atoms (all electrons):
               1          2          3          4          5          6
     1  C    5.486090  -0.134093   0.105393   0.099013   0.026442  -0.028816
     2  C   -0.134093   5.486072   0.099010   0.105401   0.026437  -0.004805
     3  C    0.105393   0.099010   5.870618  -0.243190   0.267000   0.399394
     4  C    0.099013   0.105401  -0.243190   5.870591   0.267009   0.018541
     5  C    0.026442   0.026437   0.267000   0.267009   4.514786  -0.031079
     6  H   -0.028816  -0.004805   0.399394   0.018541  -0.031079   0.516266
     7  H   -0.004805  -0.028815   0.018541   0.399391  -0.031079  -0.000098
     8  O    0.022291   0.022291  -0.129101  -0.129098   0.659060   0.006919
     9  N    0.342713   0.342716  -0.070492  -0.070494  -0.009787   0.004464
    10  C    0.176671  -0.008526  -0.045181  -0.001035  -0.004388   0.004332
    11  H   -0.029090   0.001691   0.007579   0.000578  -0.000142  -0.000156
    12  H   -0.044535  -0.000299  -0.007554  -0.000388  -0.000060   0.001638
    13  C   -0.008528   0.176684  -0.001036  -0.045182  -0.004387   0.000201
    14  H    0.001691  -0.029093   0.000578   0.007580  -0.000142  -0.000006
    15  H   -0.000299  -0.044536  -0.000388  -0.007554  -0.000060   0.000002
    16  N   -0.040211   0.004091   0.007334   0.000189  -0.000499  -0.000127
    17  N    0.004091  -0.040215   0.000190   0.007335  -0.000499  -0.000007
    18  C   -0.002163  -0.002163  -0.000888  -0.000888   0.000195  -0.000007
    19  H    0.000579   0.000579   0.000066   0.000066   0.000025  -0.000006
    20  H   -0.000157  -0.000078   0.000012   0.000018  -0.000006   0.000000
    21  H   -0.000078  -0.000157   0.000018   0.000012  -0.000006   0.000000
    22  C    0.016767   0.000073   0.001363  -0.000069  -0.000019  -0.000123
    23  H   -0.000094  -0.000008   0.000069   0.000007  -0.000004   0.000001
    24  H   -0.000038   0.000006  -0.000040  -0.000005  -0.000001   0.000027
    25  H   -0.002164  -0.000015  -0.000129  -0.000005   0.000001  -0.000005
    26  C   -0.005252  -0.000060  -0.004432  -0.000109  -0.000122  -0.001329
    27  H   -0.001118  -0.000036  -0.001210  -0.000031  -0.000073   0.000364
    28  H    0.000800   0.000011   0.000880   0.000061   0.000005  -0.000017
    29  H    0.008855  -0.001147  -0.001046   0.000782   0.000483  -0.000901
    30  C    0.000073   0.016767  -0.000069   0.001363  -0.000019   0.000001
    31  H    0.000006  -0.000038  -0.000005  -0.000040  -0.000001  -0.000000
    32  H   -0.000008  -0.000094   0.000007   0.000069  -0.000004   0.000000
    33  H   -0.000015  -0.002164  -0.000005  -0.000129   0.000001   0.000000
    34  C   -0.000060  -0.005250  -0.000109  -0.004433  -0.000122   0.000020
    35  H    0.000011   0.000800   0.000061   0.000880   0.000005  -0.000001
    36  H   -0.000036  -0.001118  -0.000031  -0.001210  -0.000073  -0.000000
    37  H   -0.001147   0.008854   0.000782  -0.001045   0.000483  -0.000017
    38  H   -0.060864  -0.060864   0.001847   0.001847  -0.002196  -0.000006
    39  Rh  -0.056039  -0.056039  -0.031772  -0.031773   0.002880   0.001091
               7          8          9         10         11         12
     1  C   -0.004805   0.022291   0.342713   0.176671  -0.029090  -0.044535
     2  C   -0.028815   0.022291   0.342716  -0.008526   0.001691  -0.000299
     3  C    0.018541  -0.129101  -0.070492  -0.045181   0.007579  -0.007554
     4  C    0.399391  -0.129098  -0.070494  -0.001035   0.000578  -0.000388
     5  C   -0.031079   0.659060  -0.009787  -0.004388  -0.000142  -0.000060
     6  H   -0.000098   0.006919   0.004464   0.004332  -0.000156   0.001638
     7  H    0.516270   0.006919   0.004464   0.000201  -0.000006   0.000002
     8  O    0.006919   8.025468   0.000439  -0.000580   0.000004   0.000008
     9  N    0.004464   0.000439   6.280844  -0.038183   0.001274   0.003824
    10  C    0.000201  -0.000580  -0.038183   4.961869   0.428677   0.437285
    11  H   -0.000006   0.000004   0.001274   0.428677   0.524935  -0.014061
    12  H    0.000002   0.000008   0.003824   0.437285  -0.014061   0.545060
    13  C    0.004331  -0.000580  -0.038185   0.003555  -0.000856   0.000134
    14  H   -0.000156   0.000004   0.001275  -0.000856   0.000152  -0.000013
    15  H    0.001638   0.000008   0.003824   0.000134  -0.000013   0.000000
    16  N   -0.000007   0.000005  -0.004425   0.244104  -0.029750  -0.032868
    17  N   -0.000127   0.000005  -0.004426   0.000226   0.000043  -0.000026
    18  C   -0.000007  -0.000000  -0.005832   0.004723  -0.000973   0.000202
    19  H   -0.000006   0.000000   0.000140  -0.000857   0.000052  -0.000022
    20  H    0.000000  -0.000000  -0.000021   0.000312   0.000038  -0.000007
    21  H    0.000000  -0.000000  -0.000021   0.000128   0.000001  -0.000001
    22  C    0.000001  -0.000001   0.000307  -0.058398  -0.002188  -0.006317
    23  H    0.000000  -0.000000  -0.000010   0.006553   0.000769  -0.000545
    24  H   -0.000000   0.000000   0.000033  -0.007263  -0.003844   0.005525
    25  H    0.000000  -0.000000  -0.000092  -0.004071   0.000999   0.000105
    26  C    0.000020  -0.000046  -0.000091  -0.007075   0.003902  -0.012997
    27  H   -0.000000   0.000001   0.000026  -0.012408  -0.000298   0.008132
    28  H   -0.000001  -0.000000  -0.000151   0.004275   0.000084  -0.000545
    29  H   -0.000017   0.000099  -0.000183  -0.007327   0.000430  -0.003126
    30  C   -0.000123  -0.000001   0.000307  -0.000133   0.000031  -0.000001
    31  H    0.000027   0.000000   0.000032   0.000004  -0.000001   0.000000
    32  H    0.000001  -0.000000  -0.000010  -0.000004   0.000002  -0.000000
    33  H   -0.000005  -0.000000  -0.000092  -0.000013  -0.000002   0.000000
    34  C   -0.001328  -0.000046  -0.000091  -0.000110  -0.000002   0.000008
    35  H   -0.000017  -0.000000  -0.000151  -0.000024   0.000003  -0.000000
    36  H    0.000364   0.000001   0.000026   0.000020  -0.000001   0.000000
    37  H   -0.000901   0.000098  -0.000183   0.000009   0.000007  -0.000006
    38  H   -0.000006   0.000022   0.345664   0.013173  -0.003575   0.000673
    39  Rh   0.001091   0.000336   0.029707   0.023926  -0.023790   0.014273
              13         14         15         16         17         18
     1  C   -0.008528   0.001691  -0.000299  -0.040211   0.004091  -0.002163
     2  C    0.176684  -0.029093  -0.044536   0.004091  -0.040215  -0.002163
     3  C   -0.001036   0.000578  -0.000388   0.007334   0.000190  -0.000888
     4  C   -0.045182   0.007580  -0.007554   0.000189   0.007335  -0.000888
     5  C   -0.004387  -0.000142  -0.000060  -0.000499  -0.000499   0.000195
     6  H    0.000201  -0.000006   0.000002  -0.000127  -0.000007  -0.000007
     7  H    0.004331  -0.000156   0.001638  -0.000007  -0.000127  -0.000007
     8  O   -0.000580   0.000004   0.000008   0.000005   0.000005  -0.000000
     9  N   -0.038185   0.001275   0.003824  -0.004425  -0.004426  -0.005832
    10  C    0.003555  -0.000856   0.000134   0.244104   0.000226   0.004723
    11  H   -0.000856   0.000152  -0.000013  -0.029750   0.000043  -0.000973
    12  H    0.000134  -0.000013   0.000000  -0.032868  -0.000026   0.000202
    13  C    4.961852   0.428679   0.437283   0.000226   0.244107   0.004723
    14  H    0.428679   0.524936  -0.014061   0.000043  -0.029751  -0.000973
    15  H    0.437283  -0.014061   0.545064  -0.000026  -0.032867   0.000202
    16  N    0.000226   0.000043  -0.000026   6.426697  -0.006105  -0.018103
    17  N    0.244107  -0.029751  -0.032867  -0.006105   6.426717  -0.018104
    18  C    0.004723  -0.000973   0.000202  -0.018103  -0.018104   5.305787
    19  H   -0.000857   0.000052  -0.000022  -0.000231  -0.000231   0.411198
    20  H    0.000128   0.000001  -0.000001  -0.000411   0.000891   0.405364
    21  H    0.000312   0.000038  -0.000007   0.000891  -0.000411   0.405362
    22  C   -0.000133   0.000031  -0.000001   0.262081   0.000345  -0.009859
    23  H   -0.000004   0.000002  -0.000000  -0.029079   0.000043  -0.004981
    24  H    0.000004  -0.000001   0.000000  -0.025069  -0.000015   0.000791
    25  H   -0.000013  -0.000002   0.000000  -0.034874   0.000029  -0.000925
    26  C   -0.000110  -0.000002   0.000008   0.223958   0.000986  -0.008951
    27  H    0.000020  -0.000001   0.000000  -0.023998  -0.000028   0.000880
    28  H   -0.000024   0.000003  -0.000000  -0.029854   0.000067  -0.002202
    29  H    0.000009   0.000007  -0.000006  -0.031718   0.000058  -0.001274
    30  C   -0.058395  -0.002189  -0.006317   0.000345   0.262075  -0.009860
    31  H   -0.007262  -0.003844   0.005525  -0.000015  -0.025069   0.000791
    32  H    0.006553   0.000769  -0.000545   0.000043  -0.029080  -0.004982
    33  H   -0.004070   0.000999   0.000105   0.000029  -0.034876  -0.000925
    34  C   -0.007074   0.003902  -0.012996   0.000986   0.223958  -0.008951
    35  H    0.004275   0.000084  -0.000545   0.000067  -0.029855  -0.002202
    36  H   -0.012408  -0.000298   0.008132  -0.000028  -0.023996   0.000880
    37  H   -0.007326   0.000430  -0.003126   0.000058  -0.031719  -0.001274
    38  H    0.013174  -0.003576   0.000673  -0.002936  -0.002935  -0.005297
    39  Rh   0.023925  -0.023788   0.014272   0.165856   0.165856   0.259210
              19         20         21         22         23         24
     1  C    0.000579  -0.000157  -0.000078   0.016767  -0.000094  -0.000038
     2  C    0.000579  -0.000078  -0.000157   0.000073  -0.000008   0.000006
     3  C    0.000066   0.000012   0.000018   0.001363   0.000069  -0.000040
     4  C    0.000066   0.000018   0.000012  -0.000069   0.000007  -0.000005
     5  C    0.000025  -0.000006  -0.000006  -0.000019  -0.000004  -0.000001
     6  H   -0.000006   0.000000   0.000000  -0.000123   0.000001   0.000027
     7  H   -0.000006   0.000000   0.000000   0.000001   0.000000  -0.000000
     8  O    0.000000  -0.000000  -0.000000  -0.000001  -0.000000   0.000000
     9  N    0.000140  -0.000021  -0.000021   0.000307  -0.000010   0.000033
    10  C   -0.000857   0.000312   0.000128  -0.058398   0.006553  -0.007263
    11  H    0.000052   0.000038   0.000001  -0.002188   0.000769  -0.003844
    12  H   -0.000022  -0.000007  -0.000001  -0.006317  -0.000545   0.005525
    13  C   -0.000857   0.000128   0.000312  -0.000133  -0.000004   0.000004
    14  H    0.000052   0.000001   0.000038   0.000031   0.000002  -0.000001
    15  H   -0.000022  -0.000001  -0.000007  -0.000001  -0.000000   0.000000
    16  N   -0.000231  -0.000411   0.000891   0.262081  -0.029079  -0.025069
    17  N   -0.000231   0.000891  -0.000411   0.000345   0.000043  -0.000015
    18  C    0.411198   0.405364   0.405362  -0.009859  -0.004981   0.000791
    19  H    0.588228  -0.030431  -0.030431   0.001020   0.000152  -0.000037
    20  H   -0.030431   0.599156  -0.016836  -0.005764   0.003359  -0.000346
    21  H   -0.030431  -0.016836   0.599164   0.000046   0.000210  -0.000002
    22  C    0.001020  -0.005764   0.000046   4.808943   0.421348   0.410633
    23  H    0.000152   0.003359   0.000210   0.421348   0.550370  -0.024378
    24  H   -0.000037  -0.000346  -0.000002   0.410633  -0.024378   0.555818
    25  H   -0.000050   0.000803   0.000041   0.422341  -0.015213  -0.022790
    26  C   -0.003777  -0.001718   0.000566  -0.045428  -0.003124  -0.012379
    27  H   -0.000047  -0.000407   0.000001  -0.008397  -0.002166   0.007974
    28  H   -0.000634  -0.000247   0.000386  -0.005136   0.003186  -0.001664
    29  H    0.000425   0.000378  -0.000038   0.007041   0.000213  -0.000535
    30  C    0.001020   0.000046  -0.005766  -0.000054  -0.000013   0.000002
    31  H   -0.000037  -0.000002  -0.000346   0.000002   0.000000  -0.000000
    32  H    0.000153   0.000210   0.003359  -0.000013   0.000001   0.000000
    33  H   -0.000050   0.000041   0.000803  -0.000008   0.000003  -0.000000
    34  C   -0.003777   0.000566  -0.001719  -0.000024  -0.000000   0.000001
    35  H   -0.000635   0.000386  -0.000247  -0.000008   0.000001  -0.000000
    36  H   -0.000047   0.000001  -0.000407  -0.000001  -0.000000   0.000000
    37  H    0.000425  -0.000038   0.000378   0.000000   0.000001  -0.000000
    38  H   -0.000184   0.000282   0.000282  -0.002167   0.000080  -0.000003
    39  Rh  -0.020628  -0.027480  -0.027482  -0.044777  -0.013445   0.012923
              25         26         27         28         29         30
     1  C   -0.002164  -0.005252  -0.001118   0.000800   0.008855   0.000073
     2  C   -0.000015  -0.000060  -0.000036   0.000011  -0.001147   0.016767
     3  C   -0.000129  -0.004432  -0.001210   0.000880  -0.001046  -0.000069
     4  C   -0.000005  -0.000109  -0.000031   0.000061   0.000782   0.001363
     5  C    0.000001  -0.000122  -0.000073   0.000005   0.000483  -0.000019
     6  H   -0.000005  -0.001329   0.000364  -0.000017  -0.000901   0.000001
     7  H    0.000000   0.000020  -0.000000  -0.000001  -0.000017  -0.000123
     8  O   -0.000000  -0.000046   0.000001  -0.000000   0.000099  -0.000001
     9  N   -0.000092  -0.000091   0.000026  -0.000151  -0.000183   0.000307
    10  C   -0.004071  -0.007075  -0.012408   0.004275  -0.007327  -0.000133
    11  H    0.000999   0.003902  -0.000298   0.000084   0.000430   0.000031
    12  H    0.000105  -0.012997   0.008132  -0.000545  -0.003126  -0.000001
    13  C   -0.000013  -0.000110   0.000020  -0.000024   0.000009  -0.058395
    14  H   -0.000002  -0.000002  -0.000001   0.000003   0.000007  -0.002189
    15  H    0.000000   0.000008   0.000000  -0.000000  -0.000006  -0.006317
    16  N   -0.034874   0.223958  -0.023998  -0.029854  -0.031718   0.000345
    17  N    0.000029   0.000986  -0.000028   0.000067   0.000058   0.262075
    18  C   -0.000925  -0.008951   0.000880  -0.002202  -0.001274  -0.009860
    19  H   -0.000050  -0.003777  -0.000047  -0.000634   0.000425   0.001020
    20  H    0.000803  -0.001718  -0.000407  -0.000247   0.000378   0.000046
    21  H    0.000041   0.000566   0.000001   0.000386  -0.000038  -0.005766
    22  C    0.422341  -0.045428  -0.008397  -0.005136   0.007041  -0.000054
[...]
 14,-0.00003483,-0.00006352,-0.00000289,0.00012076,0.00047776,0.0000495
 8,0.00002788,-0.00002643,-0.00001554,0.00006232,-0.00014392,-0.0000483
 0,0.00006478,0.00012470,-0.00002645,0.00000124,-0.00000587,-0.00000645
 ,0.00001783,-0.00001459,0.00000287,-0.00005573,-0.00003672,0.00003149,
 0.00031249,-0.00003788,-0.00003188,-0.00004939,0.00002961,-0.00001820,
 0.00000204,-0.00000316,-0.00000011,0.00001720,0.00000336,-0.00000115,0
 .00078780,-0.00002247,-0.00182037,-0.00059618,0.00034620,-0.00038573,-
 0.00031048,0.00026706,-0.00013192,0.00007293,-0.00000765,0.00010311,-0
 .01003067,0.00042984,-0.00797134,-0.00004121,0.00020868,-0.00016823,0.
 00023299,-0.00019952,0.00038565,-0.00007690,0.00009674,0.00016893,0.00
 009744,-0.00001546,0.00001291,0.00001600,0.00000097,-0.00000472,0.0000
 0082,-0.00001810,-0.00000050,0.00000408,0.00001599,-0.00000407,0.00000
 062,-0.00000046,-0.00000378,-0.00000924,-0.00000809,0.00001078,0.00000
 363,0.00001593,0.00000467,0.00000630,-0.00001592,0.00000611,-0.0000123
 3,-0.00000355,-0.00000466,0.00006885,-0.00014244,0.00053809,0.00021205
 ,-0.00005930,-0.00006942,-0.00013673,0.00023070,0.00030752,-0.00009092
 ,-0.00013338,-0.00007180,0.04796356,-0.05947514,0.03261470,-0.04930870
 ,0.05978853,-0.00004006,-0.00006757,0.00003233,0.00061028,0.00065873,-
 0.00013162,0.00002955,-0.00007470,-0.00002477,-0.00011319,-0.00021514,
 0.00021069,0.00006184,0.00013331,0.00003167,-0.00000216,-0.00000516,-0
 .00000564,-0.00003366,0.00002126,-0.00004751,-0.00006912,-0.00004564,0
 .00002196,0.00017202,-0.00017553,0.00000636,-0.00003369,-0.00000630,0.
 00000645,-0.00000233,-0.00000239,-0.00000270,0.00000765,-0.00000552,-0
 .00000334,0.00275171,-0.00106285,-0.00558082,-0.00160968,-0.00010664,-
 0.00111434,0.00021654,-0.00001420,0.00012405,0.00000787,-0.00016528,-0
 .00000986,-0.02746215,0.00293141,-0.02366321,-0.00017163,0.00029391,0.
 00031923,0.00013804,-0.00000816,0.00008591,-0.00005106,0.00018180,-0.0
 0000760,0.00034057,-0.00004857,0.00000583,-0.00001889,0.00000241,0.000
 00496,0.00000600,-0.00001220,0.00000047,0.00001057,-0.00000066,-0.0000
 0359,0.00000221,-0.00000154,-0.00000470,-0.00000088,0.00001582,-0.0000
 1723,0.00000122,0.00000309,0.00000018,-0.00000358,-0.00000611,0.000010
 68,0.00000093,0.00000203,0.00000193,-0.00219044,-0.00005335,0.00072693
 ,0.00019209,0.00003312,-0.00004212,0.00089151,0.00025919,-0.00037243,0
 .00011880,-0.00023739,0.00037174,-0.11570099,0.02875797,-0.12557162,0.
 13189169,-0.02893942,0.14560523,-0.00010081,-0.00005944,0.00004442,-0.
 00026511,0.00002776,0.00005085,0.00004486,-0.00000635,-0.00001817,0.00
 015552,0.00004450,-0.00007380,-0.00008805,-0.00001492,0.00003495,0.000
 00110,0.00000586,-0.00000128,-0.00001898,0.00000726,0.00000260,0.00007
 903,0.00001240,-0.00002792,0.00016515,0.00002223,0.00001328,-0.0000323
 2,-0.00001534,-0.00002497,-0.00000166,-0.00000517,0.00000274,0.0000085
 2,0.00001382,0.00000287,0.00065529,-0.00201193,-0.00050181,0.00000048,
 0.00000386,0.00004786,0.00022256,0.00027539,-0.00000668,-0.00001825,0.
 00019626,-0.00017380,-0.00218910,0.00714455,0.00295930,0.00009903,0.00
 015223,-0.00000512,0.00007152,-0.00004572,0.00012688,-0.00007227,0.000
 04430,0.00000997,0.00009673,-0.00014582,0.00001069,0.00004772,-0.00001
 246,-0.00004000,-0.00000261,-0.00000222,-0.00000360,-0.00000762,0.0000
 1819,0.00001340,-0.00000101,-0.00000437,0.00001216,-0.00001593,0.00003
 810,0.00005973,0.00001326,0.00002639,-0.00002235,-0.00000408,-0.000003
 62,0.00000122,0.00000375,0.00000121,0.00000033,0.00040543,0.00189981,-
 0.00019753,0.00004680,-0.00037782,0.00016346,-0.00008518,0.00010166,-0
 .00015761,-0.00001157,-0.00030546,-0.00010081,-0.06142151,0.04623925,-
 0.00077021,-0.00298712,0.02500299,0.00086204,0.05812931,0.00019559,0.0
 0020559,-0.00005264,0.00016414,-0.00036570,-0.00003826,-0.00015923,0.0
 0006639,0.00003272,-0.00013564,-0.00016736,0.00001141,0.00036406,0.000
 06772,-0.00009234,-0.00001092,-0.00000908,0.00000357,-0.00005326,-0.00
 000811,-0.00001738,-0.00030648,-0.00000655,0.00013258,-0.00043788,0.00
 029957,0.00041940,0.00013445,0.00001823,0.00006987,0.00000803,0.000020
 21,-0.00000102,-0.00004054,-0.00003446,-0.00000211,0.00077982,0.000975
 38,0.00128014,-0.00021418,0.00032588,0.00000981,-0.00081228,-0.0001122
 2,-0.00077230,-0.00003554,-0.00026255,0.00029731,0.00366955,-0.0130832
 5,-0.00780812,0.00015964,0.00020708,-0.00022751,-0.00009800,0.00002021
 ,0.00006815,0.00014687,-0.00002659,0.00007966,0.00015353,0.00007312,0.
 00006914,-0.00014344,0.00003765,0.00007411,0.00000827,0.00001957,0.000
 00104,0.00000513,-0.00006895,-0.00000369,-0.00000299,0.00002618,0.0000
 1520,0.00000314,-0.00008588,-0.00016976,-0.00002640,-0.00006197,0.0000
 6026,0.00000975,0.00001593,-0.00000309,-0.00000414,0.00001563,-0.00000
 062,-0.00127800,0.00193251,0.00099807,0.00088037,0.00044822,-0.0006164
 1,0.00009345,-0.00018895,-0.00000271,-0.00003771,0.00040667,0.00000483
 ,0.04706449,-0.28724457,0.00185495,-0.00015878,-0.00444100,0.00034060,
 -0.05454737,0.31486268,0.00003780,0.00003653,-0.00001125,-0.00001485,0
 .00023495,0.00003022,-0.00004885,0.00002286,0.00001056,-0.00007272,-0.
 00005040,0.00009472,0.00005326,-0.00002074,0.00001446,0.00000019,0.,0.
 00000256,-0.00001668,0.00000981,-0.00001497,-0.00005137,0.00000399,0.0
 0001459,0.00018070,0.00002413,-0.00009710,0.00009993,0.00002141,0.0000
 7410,-0.00000589,0.00000714,-0.00001091,-0.00002106,-0.00001170,-0.000
 00997,0.00325931,-0.00256175,0.00162331,0.00004428,0.00029973,0.000252
 38,-0.00074821,0.00105323,0.00025310,-0.00014743,-0.00048676,0.0005891
 9,0.00869425,-0.03680037,-0.01274957,-0.00006945,0.00061793,-0.0000339
 8,0.00012553,-0.00005041,0.00018887,-0.00006677,-0.00001378,0.00000940
 ,0.00020179,-0.00009594,0.00010055,-0.00010803,0.00006775,0.00007276,0
 .00000847,-0.00000158,0.00000098,0.00001105,-0.00002627,-0.00001608,0.
 00000783,0.00001656,-0.00001541,-0.00001780,-0.00016527,-0.00012624,-0
 .00002236,-0.00006026,0.00007492,0.00000918,-0.00000467,0.00000018,-0.
 00000811,-0.00000486,-0.00000318,-0.00151944,-0.00325801,0.00162776,-0
 .00026521,0.00104207,0.00003486,0.00009286,0.00028684,-0.00013904,-0.0
 0021680,0.00036170,0.00016513,-0.00157239,0.00555765,-0.05108889,-0.00
 145759,0.01656298,0.00129010,-0.00233720,0.00617772,0.05887359,-0.0000
 5259,0.00001992,0.00001136,0.00032264,-0.00034741,-0.00083741,0.000024
 69,0.00001855,0.00003173,-0.00023985,-0.00001247,-0.00009029,-0.000249
 58,-0.00019829,0.00000221,-0.00000430,0.00001445,0.00000337,-0.0000342
 0,0.00002227,-0.00003538,0.00017279,0.00006112,-0.00004814,-0.00022293
 ,0.00025493,0.00030269,0.00004419,-0.00003276,-0.00001827,-0.00000639,
 0.00000081,0.00000956,-0.00000795,0.00000561,0.00000739,-0.00001362,0.
 00031907,-0.00066658,0.00000227,0.00001218,0.00013890,0.00013631,0.000
 03879,0.00000772,0.00001558,0.00011411,-0.00009473,-0.00423277,-0.0014
 2857,0.00192284,0.00012340,-0.00008954,-0.00002044,-0.00010408,-0.0000
 3534,-0.00004852,0.00008627,0.00010640,0.00002796,0.00017765,0.0000348
 1,-0.00001909,-0.00000010,-0.00001314,-0.00003057,-0.00000395,0.000003
 32,0.00000071,-0.00000315,-0.00000959,0.00001547,-0.00000518,0.0000014
 7,0.00001697,-0.00001388,0.00001703,0.00001416,0.00000375,0.00000414,-
 0.00000811,-0.00001156,0.00001233,0.00000093,0.00000885,0.00002000,0.0
 0000654,0.00056732,0.00112921,0.00108508,-0.00001854,-0.00015149,0.000
 01740,0.00046129,0.00005919,-0.00002376,0.00004354,-0.00051916,0.00029
 553,-0.21475819,-0.10983374,0.07882774,-0.01725616,-0.01345930,0.00989
 796,0.00673476,0.00456455,-0.00381094,0.22832027,0.00001142,-0.0000346
 7,-0.00001393,-0.00018458,0.00018955,-0.00071324,0.00004176,-0.0000206
 3,0.00004637,-0.00027445,-0.00026124,-0.00018478,-0.00004673,0.0000791
 1,-0.00010617,0.00000450,-0.00000634,-0.00000196,0.00013272,-0.0000490
 2,0.00007899,0.00001126,-0.00003271,0.00001280,0.00008301,-0.00000646,
 0.00009169,-0.00003680,-0.00001626,-0.00002698,0.00000084,-0.00000245,
 0.00000782,0.00000749,0.00000257,-0.00000206,-0.00028974,0.00035064,0.
 00026365,0.00012699,-0.00011131,0.00001827,-0.00006625,-0.00036957,-0.
 00004473,-0.00005335,0.00015038,0.00003461,0.01117744,0.00585281,-0.00
 481003,0.00010062,0.00011489,-0.00004170,-0.00000330,0.00001297,0.0000
 3508,-0.00002475,0.00000408,0.00000179,0.00000022,-0.00005164,0.000016
 03,0.00002980,0.00000536,-0.00000600,-0.00000290,-0.00000005,-0.000002
 67,-0.00001177,0.00001567,0.00000473,-0.00000181,0.00000557,0.00000728
 ,0.00000894,-0.00001566,0.00001186,-0.00000121,0.00001563,0.00000486,0
 .00000299,-0.00000355,-0.00000203,-0.00002001,-0.00003703,-0.00001634,
 -0.00017997,0.00013163,-0.00122768,0.00018390,0.00048173,-0.00036813,-
 0.00010272,-0.00017795,-0.00009722,0.00017427,0.00047463,-0.00044329,-
 0.11323014,-0.12313285,0.05384913,0.00598906,0.00346477,-0.00321495,-0
 .02366167,-0.01371212,0.01051073,0.11962809,0.12772122,-0.00004086,-0.
 00002269,0.00004727,-0.00019749,-0.00062957,-0.00065138,0.00001232,0.0
 0001703,0.00000785,-0.00011830,0.00007551,0.00015505,-0.00050452,-0.00
 042122,0.00022160,-0.00000248,0.00002694,0.00000355,-0.00004638,0.0000
 3801,-0.00000970,0.00037453,0.00010770,-0.00019196,-0.00005392,0.00006
 342,-0.00014576,0.00004927,-0.00004572,0.00001289,-0.00001880,0.000003
 80,-0.00000363,-0.00001129,0.00000905,-0.00000707,0.00133055,0.0008649
 8,0.00088859,0.00010081,0.00000443,0.00023176,-0.00019975,0.00012286,-
 0.00015925,-0.00004787,-0.00014620,-0.00000518,0.02851198,0.01613632,-
 0.01661247,-0.00007854,-0.00004804,0.00011665,-0.00001675,-0.00003548,
 -0.00004021,0.00000130,0.00001590,0.00000532,-0.00005112,0.00006290,-0
 .00004868,-0.00001029,-0.00000286,-0.00001236,-0.00000302,-0.00000093,
 0.00000427,0.00000857,0.00000492,-0.00000663,0.00000584,-0.00000039,-0
 .00001091,-0.00000589,0.00001002,-0.00000742,0.00000033,0.00000062,-0.
 00000318,-0.00000651,0.00000466,0.00000193,0.00000654,0.00001634,0.000
 00939,-0.00075214,-0.00300971,-0.00581453,-0.00014748,0.00003654,0.000
 01919,0.00006966,-0.00013308,0.00028907,0.00152974,0.00096082,-0.00079
 526,0.07073286,0.04781528,-0.08375481,-0.01296201,-0.00988054,0.008101
 19,-0.00074487,0.00034802,0.00076649,-0.08681220,-0.05288475,0.0976895
 0,-0.00805184,-0.01331218,0.00519763,-0.00805000,0.01331285,0.00519685
 ,0.00568122,-0.00015015,-0.00116571,0.00568128,0.00014963,-0.00116577,
 -0.00586120,0.00000011,0.00117097,0.00109830,0.00042797,0.00057333,0.0
 0109834,-0.00042801,0.00057332,0.00462174,-0.00000011,-0.00204655,-0.1
 9266404,0.00000342,0.10610092,0.00177294,0.00062236,-0.00040056,0.0004
 3427,-0.00059603,-0.00051210,-0.00078954,0.00026473,-0.00052043,0.0017
 7295,-0.00062244,-0.00040065,0.00043429,0.00059595,-0.00051207,-0.0007
 8955,-0.00026468,-0.00052040,-0.00030924,-0.00019924,-0.00012348,-0.00
 030924,0.00019923,-0.00012355,-0.00296266,0.00000009,0.00035889,0.0011
 7323,-0.00000003,0.00025338,0.00092800,-0.00052415,-0.00024743,0.00092
 805,0.00052409,-0.00024745,-0.00081169,-0.00011828,0.00011175,-0.00012
 415,0.00021593,0.00003400,0.00011298,-0.00052674,-0.00008162,0.0000797
 9,0.00014569,-0.00007806,-0.00014274,-0.00005170,-0.00039886,-0.000068
 58,-0.00077847,-0.00002909,-0.00022820,0.00021895,-0.00019043,0.000376
 06,0.00000599,0.00006596,-0.00081169,0.00011831,0.00011175,0.00011300,
 0.00052674,-0.00008162,-0.00012416,-0.00021592,0.00003400,0.00007978,-
 0.00014570,-0.00007805,-0.00014273,0.00005170,-0.00039887,-0.00022821,
 -0.00021893,-0.00019042,-0.00006854,0.00077847,-0.00002909,0.00037606,
 -0.00000601,0.00006596,0.18305655,-0.02358757,0.00489353,0.01443343,0.
 02358823,0.00489163,-0.01443373,-0.00094228,-0.00466026,0.00125419,0.0
 0094176,-0.00466032,-0.00125410,0.00000011,-0.00161879,-0.00000003,-0.
 00111433,0.00019021,0.00025181,0.00111429,0.00019017,-0.00025184,-0.00
 000011,0.00048982,0.00000005,0.00000351,-0.06423842,-0.00000272,-0.000
 75383,0.00010952,0.00172112,0.00022732,-0.00107191,-0.00066201,-0.0000
 6791,0.00026023,-0.00044192,0.00075374,0.00010951,-0.00172111,-0.00022
 740,-0.00107192,0.00066204,0.00006796,0.00026025,0.00044194,0.00014073
 ,-0.00040464,0.00161231,-0.00014074,-0.00040465,-0.00161231,0.00000007
 ,0.00001119,-0.00000002,-0.00000003,-0.00001828,0.,-0.00015991,0.00003
 872,0.00014083,0.00015987,0.00003869,-0.00014081,0.00009642,-0.0001088
 6,-0.00003469,-0.00004948,0.00004726,-0.00004481,-0.00002545,0.0000653
 0,0.00005500,0.00006880,-0.00001157,-0.00000738,-0.00016440,-0.0001255
 5,0.00014526,-0.00003483,-0.00009645,-0.00002750,-0.00004298,0.0000218
 7,-0.00012089,0.00005675,-0.00001412,-0.00005907,-0.00009638,-0.000108
 86,0.00003468,0.00002544,0.00006527,-0.00005500,0.00004949,0.00004727,
 0.00004481,-0.00006881,-0.00001156,0.00000738,0.00016440,-0.00012556,-
 0.00014524,0.00004299,0.00002188,0.00012090,0.00003482,-0.00009649,0.0
 0002750,-0.00005677,-0.00001411,0.00005907,-0.00000309,0.07016233,0.00
 267761,0.00005941,-0.00574150,0.00267751,-0.00005959,-0.00574144,-0.00
 009425,0.00072495,0.00228754,-0.00009430,-0.00072491,0.00228755,0.0002
 7453,0.,-0.00076019,0.00048662,-0.00004252,0.00106014,0.00048661,0.000
 04250,0.00106015,-0.00088616,0.00000002,0.00016751,0.14861486,-0.00000
 378,-0.09774057,-0.00071442,-0.00017634,-0.00001284,0.00010174,-0.0001
 5436,-0.00008090,0.00012314,-0.00035865,-0.00011312,-0.00071441,0.0001
 7637,-0.00001283,0.00010175,0.00015436,-0.00008090,0.00012316,0.000358
 64,-0.00011312,-0.00055571,0.00068568,-0.00024818,-0.00055574,-0.00068
 565,-0.00024818,-0.00125037,0.00000004,0.00265807,0.00122367,-0.000000
 03,0.00087807,0.00027573,-0.00025263,0.00011876,0.00027574,0.00025262,
 0.00011875,-0.00009028,-0.00000626,0.00012906,0.00001301,0.00005500,-0
 .00001604,-0.00000420,-0.00007969,0.00000028,0.00001669,0.00001192,0.0
 0001722,0.00021197,-0.00000895,-0.00029607,-0.00007621,0.00000371,0.00
 009553,0.00004096,0.00001011,-0.00003149,-0.00008167,0.00007110,0.0000
 1114,-0.00009028,0.00000626,0.00012906,-0.00000419,0.00007969,0.000000
 28,0.00001301,-0.00005501,-0.00001604,0.00001669,-0.00001192,0.0000172
 2,0.00021197,0.00000893,-0.00029607,0.00004096,-0.00001012,-0.00003149
 ,-0.00007621,-0.00000370,0.00009553,-0.00008167,-0.00007109,0.00001114
 ,-0.13350784,0.00000347,0.13967011,-0.00851470,-0.00515536,0.00458764,
 -0.00851446,0.00515597,0.00458769,-0.00263403,-0.00114012,-0.00063517,
 -0.00263382,0.00114022,-0.00063525,0.00152252,-0.00000012,-0.00118176,
 0.00002119,0.00004149,0.00038602,0.00002118,-0.00004148,0.00038599,-0.
 00117327,0.00000004,0.00071126,-0.03839840,0.00000066,-0.00474957,-0.0
 0341930,-0.01056316,-0.00175716,0.00003524,-0.00021933,-0.00016418,-0.
 00146468,-0.00023551,-0.00128266,-0.00341841,0.01056296,-0.00175688,0.
 00003524,0.00021931,-0.00016419,-0.00146473,0.00023562,-0.00128269,-0.
 03189687,0.01054627,-0.00198077,-0.03189770,-0.01054652,-0.00198099,-0
 .08800571,0.00000071,-0.02680670,0.00448641,-0.00000016,-0.00307199,-0
 .00856449,0.00249353,-0.00406993,-0.00856536,-0.00249289,-0.00407047,0
 .00442738,0.00859952,0.00016089,-0.00044691,0.00063575,-0.00031281,-0.
 00174996,0.00277685,0.00061123,0.00011290,0.00027810,-0.00004226,0.000
 47098,-0.00181066,0.00184421,0.00041095,0.00068045,-0.00019824,0.00026
 678,0.00066498,-0.00051721,-0.00038264,-0.00048287,0.00003219,0.004426
 71,-0.00860022,0.00016107,-0.00175007,-0.00277676,0.00061121,-0.000446
 90,-0.00063572,-0.00031281,0.00011292,-0.00027812,-0.00004231,0.000471
 18,0.00181021,0.00184378,0.00026676,-0.00066503,-0.00051717,0.00041092
 ,-0.00068048,-0.00019820,-0.00038263,0.00048284,0.00003221,0.01271921,
 -0.00000042,-0.01913002,0.21550661,0.00005813,0.00348415,-0.00134565,-
 0.00005753,0.00348391,0.00134540,-0.00291841,-0.00061071,0.00163304,0.
 00291851,-0.00061092,-0.00163300,-0.00000011,-0.00296674,0.00000004,0.
 00019856,0.00017022,0.00053272,-0.00019855,0.00017023,-0.00053274,0.00
 000004,0.00043858,-0.00000002,0.00000063,-0.01182434,0.00000018,-0.007
 06436,-0.00722542,-0.00641873,0.00021686,-0.00051472,0.00039442,0.0012
 7865,0.00073043,0.00051963,0.00706417,-0.00722627,0.00641885,-0.000216
 89,-0.00051473,-0.00039441,-0.00127854,0.00073048,-0.00051957,0.005683
 65,-0.03713478,0.00486041,-0.00568388,-0.03713418,-0.00486027,0.000000
 66,-0.05883701,0.00000071,-0.00000031,-0.00005093,0.,0.01381309,0.0041
 9724,0.01097505,-0.01381229,0.00419788,-0.01097481,0.00472032,-0.00944
 490,-0.00283097,-0.00088638,0.00008827,0.00006363,-0.00061600,0.000192
 40,0.00046740,-0.00073835,-0.00019082,0.00091810,-0.00224112,-0.008835
 54,0.00845408,0.00009314,-0.00006865,-0.00066954,-0.00033416,-0.000648
 17,-0.00071367,0.00027476,-0.00101760,-0.00045605,-0.00472101,-0.00944
 421,0.00283099,0.00061610,0.00019251,-0.00046743,0.00088640,0.00008826
 ,-0.00006361,0.00073834,-0.00019084,-0.00091809,0.00224067,-0.00883581
 ,-0.00845413,0.00033411,-0.00064814,0.00071370,-0.00009316,-0.00006862
 ,0.00066954,-0.00027479,-0.00101761,0.00045605,-0.00000036,-0.00305232
 ,0.00000040,-0.00000056,0.18994940,-0.00524760,-0.00193662,-0.00070137
 ,-0.00524750,0.00193687,-0.00070138,0.00055819,-0.00071415,-0.00062274
 ,0.00055821,0.00071412,-0.00062273,0.00009432,0.,0.00100295,-0.0003908
 3,0.00001738,-0.00035300,-0.00039083,-0.00001736,-0.00035301,0.0003698
 2,0.,-0.00039937,-0.02827883,0.00000076,0.01607936,-0.00326119,-0.0052
 8617,0.00120778,-0.00001183,0.00014839,0.00007433,-0.00113969,-0.00028
 494,-0.00040061,-0.00326095,0.00528636,0.00120774,-0.00001184,-0.00014
 838,0.00007433,-0.00113968,0.00028500,-0.00040061,-0.00221733,0.005192
 99,-0.02940594,-0.00221759,-0.00519284,-0.02940591,-0.03082558,0.00000
 081,-0.03914689,-0.01118999,0.00000024,-0.00916948,0.00018133,0.002303
 49,0.00224801,0.00018140,-0.00230350,0.00224818,0.00063860,-0.00417388
 ,-0.00074130,-0.00021225,0.00025381,-0.00004290,0.00033990,-0.00052936
 ,0.00010959,-0.00018360,-0.00052532,0.00026003,0.00271382,0.01103486,-
 0.00039631,0.00086534,0.00253689,-0.00194373,0.00022686,0.00118180,-0.
 00032330,0.00000190,0.00071597,-0.00030231,0.00063882,0.00417387,-0.00
 074132,0.00033993,0.00052934,0.00010960,-0.00021226,-0.00025380,-0.000
 04290,-0.00018358,0.00052533,0.00026003,0.00271325,-0.01103496,-0.0003
 9622,0.00022679,-0.00118181,-0.00032330,0.00086522,-0.00253694,-0.0019
 4372,0.00000187,-0.00071597,-0.00030231,0.02320138,-0.00000064,-0.0392
 3214,0.06090598,-0.00000163,0.13353288\\-0.00001008,-0.00001980,0.0000
 3841,-0.00001010,0.00001978,0.00003842,0.00001419,-0.00000759,-0.00001
 862,0.00001420,0.00000759,-0.00001862,-0.00003460,0.,0.00003339,-0.000
 00422,0.00000084,0.00000448,-0.00000422,-0.00000084,0.00000448,0.00001
 552,0.,-0.00000668,0.00002663,0.,-0.00000768,0.00002604,0.00000614,0.0
 0000776,-0.00000343,-0.00000420,-0.00000046,-0.00000317,0.00000209,0.0
 0000015,0.00002607,-0.00000611,0.00000778,-0.00000341,0.00000420,-0.00
 000046,-0.00000317,-0.00000209,0.00000016,-0.00002888,-0.00001990,0.00
 000158,-0.00002887,0.00001984,0.00000156,-0.00000801,0.00000001,0.0000
 0442,0.00001010,0.,-0.00000694,0.00000227,0.00000037,-0.00000362,0.000
 00227,-0.00000038,-0.00000362,0.00000202,0.00001619,-0.00001624,-0.000
 00605,0.00000085,-0.00000192,0.00000104,0.00000025,0.00000009,-0.00000
 084,-0.00000422,-0.00000316,-0.00000650,0.00000314,0.00000245,0.000002
 78,0.00000104,0.00000132,0.00000026,-0.00000192,-0.00000337,0.00000175
 ,-0.00000199,0.00000161,0.00000204,-0.00001616,-0.00001627,0.00000103,
 -0.00000025,0.00000009,-0.00000605,-0.00000085,-0.00000193,-0.00000084
 ,0.00000423,-0.00000317,-0.00000654,-0.00000312,0.00000248,0.00000026,
 0.00000191,-0.00000338,0.00000278,-0.00000104,0.00000132,0.00000175,0.
 00000199,0.00000162,0.00001394,0.,-0.00002132,0.00000203,0.00000003,-0
 .00001613\\\@
 The archive entry for this job was punched.


 SOME PEOPLE TRY TO PULL THE WOOL OVER YOUR EYES
 USING THE WRONG YARN.
 Job cpu time:       4 days 12 hours 48 minutes 11.7 seconds.
 Elapsed time:       0 days 14 hours 11 minutes 16.5 seconds.
 File lengths (MBytes):  RWF=   1932 Int=      0 D2E=      0 Chk=     69 Scr=      1
 Normal termination of Gaussian 16 at Fri Mar  8 11:56:32 2024.
