 Entering Gaussian System, Link 0=/cm/shared/apps//g16/g16
 Input=ZIr.gjf
 Output=ZIr.log
 Initial command:
 /cm/shared/apps//g16/l1.exe "/local/mvanvleet/pbs.14049.josephine/Gau-1993799.inp" -scrdir="/local/mvanvleet/pbs.14049.josephine/"
 Entering Link 1 = /cm/shared/apps//g16/l1.exe PID=   1993802.
  
 Copyright (c) 1988-2019, Gaussian, Inc.  All Rights Reserved.
  
 This is part of the Gaussian(R) 16 program.  It is based on
 the Gaussian(R) 09 system (copyright 2009, Gaussian, Inc.),
 the Gaussian(R) 03 system (copyright 2003, Gaussian, Inc.),
 the Gaussian(R) 98 system (copyright 1998, Gaussian, Inc.),
 the Gaussian(R) 94 system (copyright 1995, Gaussian, Inc.),
 the Gaussian 92(TM) system (copyright 1992, Gaussian, Inc.),
 the Gaussian 90(TM) system (copyright 1990, Gaussian, Inc.),
 the Gaussian 88(TM) system (copyright 1988, Gaussian, Inc.),
 the Gaussian 86(TM) system (copyright 1986, Carnegie Mellon
 University), and the Gaussian 82(TM) system (copyright 1983,
 Carnegie Mellon University). Gaussian is a federally registered
 trademark of Gaussian, Inc.
  
 This software contains proprietary and confidential information,
 including trade secrets, belonging to Gaussian, Inc.
  
 This software is provided under written license and may be
 used, copied, transmitted, or stored only in accord with that
 written license.
  
 The following legend is applicable only to US Government
 contracts under FAR:
  
                    RESTRICTED RIGHTS LEGEND
  
 Use, reproduction and disclosure by the US Government is
 subject to restrictions as set forth in subparagraphs (a)
 and (c) of the Commercial Computer Software - Restricted
 Rights clause in FAR 52.227-19.
  
 Gaussian, Inc.
 340 Quinnipiac St., Bldg. 40, Wallingford CT 06492
  
  
 ---------------------------------------------------------------
 Warning -- This program may not be used in any manner that
 competes with the business of Gaussian, Inc. or will provide
 assistance to any competitor of Gaussian, Inc.  The licensee
 of this program is prohibited from giving any competitor of
 Gaussian, Inc. access to this program.  By using this program,
 the user acknowledges that Gaussian, Inc. is engaged in the
 business of creating and licensing software in the field of
 computational chemistry and represents and warrants to the
 licensee that it is not a competitor of Gaussian, Inc. and that
 it will not use this program in any manner prohibited above.
 ---------------------------------------------------------------
  

 Cite this work as:
 Gaussian 16, Revision C.01,
 M. J. Frisch, G. W. Trucks, H. B. Schlegel, G. E. Scuseria, 
 M. A. Robb, J. R. Cheeseman, G. Scalmani, V. Barone, 
 G. A. Petersson, H. Nakatsuji, X. Li, M. Caricato, A. V. Marenich, 
 J. Bloino, B. G. Janesko, R. Gomperts, B. Mennucci, H. P. Hratchian, 
 J. V. Ortiz, A. F. Izmaylov, J. L. Sonnenberg, D. Williams-Young, 
 F. Ding, F. Lipparini, F. Egidi, J. Goings, B. Peng, A. Petrone, 
 T. Henderson, D. Ranasinghe, V. G. Zakrzewski, J. Gao, N. Rega, 
 G. Zheng, W. Liang, M. Hada, M. Ehara, K. Toyota, R. Fukuda, 
 J. Hasegawa, M. Ishida, T. Nakajima, Y. Honda, O. Kitao, H. Nakai, 
 T. Vreven, K. Throssell, J. A. Montgomery, Jr., J. E. Peralta, 
 F. Ogliaro, M. J. Bearpark, J. J. Heyd, E. N. Brothers, K. N. Kudin, 
 V. N. Staroverov, T. A. Keith, R. Kobayashi, J. Normand, 
 K. Raghavachari, A. P. Rendell, J. C. Burant, S. S. Iyengar, 
 J. Tomasi, M. Cossi, J. M. Millam, M. Klene, C. Adamo, R. Cammi, 
 J. W. Ochterski, R. L. Martin, K. Morokuma, O. Farkas, 
 J. B. Foresman, and D. J. Fox, Gaussian, Inc., Wallingford CT, 2019.
 
 ******************************************
 Gaussian 16:  ES64L-G16RevC.01  3-Jul-2019
                 7-Mar-2024 
 ******************************************
 %nprocshared=8
 Will use up to    8 processors via shared memory.
 %chk=ZIr.chk
 %mem=1GB
 ----------------------------------------------------------
 # wb97xd def2TZVPP SCRF=(solvent=dichloromethane) opt freq
 ----------------------------------------------------------
 1/18=20,19=15,26=3,38=1/1,3;
 2/9=110,12=2,17=6,18=5,40=1/2;
 3/5=44,7=202,11=2,25=1,30=1,70=2201,71=1,72=9,74=-58/1,2,3;
 4//1;
 5/5=2,38=5,53=9/2;
 6/7=2,8=2,9=2,10=2,28=1/1;
 7//1,2,3,16;
 1/18=20,19=15,26=3/3(2);
 2/9=110/2;
 99//99;
 2/9=110/2;
 3/5=44,7=202,11=2,25=1,30=1,70=2205,71=1,72=9,74=-58/1,2,3;
 4/5=5,16=3,69=1/1;
 5/5=2,38=5,53=9/2;
 7//1,2,3,16;
 1/18=20,19=15,26=3/3(-5);
 2/9=110/2;
 6/7=2,8=2,9=2,10=2,19=2,28=1/1;
 99/9=1/99;
 ---
 ZIr
 ---
 Symbolic Z-matrix:
 Charge =  0 Multiplicity = 1
 C                    -0.23915   1.51955   1.1869 
 C                    -0.23915   1.51955  -1.1869 
 C                    -0.07739   2.88049   1.22947 
 C                    -0.07739   2.88049  -1.22947 
 C                     0.05562   3.6721    0. 
 H                    -0.07688   3.40995   2.18737 
 H                    -0.07688   3.40995  -2.18737 
 O                     0.22985   4.89995   0. 
 N                    -0.27763   0.84266   0. 
 C                    -0.55182   0.58716   2.33325 
 H                    -1.64587   0.42711   2.3605 
 H                    -0.22373   0.98413   3.31481 
 C                    -0.55182   0.58716  -2.33325 
 H                    -1.64587   0.42711  -2.3605 
 H                    -0.22373   0.98413  -3.31481 
 N                     0.06379  -0.76475   2.08774 
 N                     0.06379  -0.76475  -2.08774 
 C                    -0.61966  -1.76858   2.93231 
 H                    -0.1304   -2.74493   2.78341 
 H                    -0.55137  -1.48686   4.00512 
 H                    -1.6732   -1.83649   2.6237 
 C                     1.49564  -0.69452   2.48812 
 H                     1.56833  -0.49254   3.57855 
 H                     1.98615  -1.64954   2.24926 
 H                     1.98382   0.11368   1.92304 
 C                    -0.61966  -1.76858  -2.93231 
 H                    -0.55137  -1.48686  -4.00512 
 H                    -0.1304   -2.74493  -2.78341 
 H                    -1.6732   -1.83649  -2.6237 
 C                     1.49564  -0.69452  -2.48812 
 H                     1.98615  -1.64954  -2.24926 
 H                     1.56833  -0.49254  -3.57855 
 H                     1.98382   0.11368  -1.92304 
 Ir                   -0.04789  -1.04107   0. 
 

 GradGradGradGradGradGradGradGradGradGradGradGradGradGradGradGradGradGrad
 Berny optimization.
 Initialization pass.
                           ----------------------------
                           !    Initial Parameters    !
                           ! (Angstroms and Degrees)  !
 --------------------------                            --------------------------
 ! Name  Definition              Value          Derivative Info.                !
 --------------------------------------------------------------------------------
 ! R1    R(1,3)                  1.3712         estimate D2E/DX2                !
 ! R2    R(1,9)                  1.3669         estimate D2E/DX2                !
 ! R3    R(1,10)                 1.5104         estimate D2E/DX2                !
 ! R4    R(2,4)                  1.3712         estimate D2E/DX2                !
 ! R5    R(2,9)                  1.3669         estimate D2E/DX2                !
 ! R6    R(2,13)                 1.5104         estimate D2E/DX2                !
 ! R7    R(3,5)                  1.4683         estimate D2E/DX2                !
 ! R8    R(3,6)                  1.0945         estimate D2E/DX2                !
 ! R9    R(4,5)                  1.4683         estimate D2E/DX2                !
 ! R10   R(4,7)                  1.0945         estimate D2E/DX2                !
 ! R11   R(5,8)                  1.2401         estimate D2E/DX2                !
 ! R12   R(9,34)                 1.8977         estimate D2E/DX2                !
 ! R13   R(10,11)                1.106          estimate D2E/DX2                !
 ! R14   R(10,12)                1.1085         estimate D2E/DX2                !
 ! R15   R(10,16)                1.5056         estimate D2E/DX2                !
 ! R16   R(13,14)                1.106          estimate D2E/DX2                !
 ! R17   R(13,15)                1.1085         estimate D2E/DX2                !
 ! R18   R(13,17)                1.5056         estimate D2E/DX2                !
 ! R19   R(16,18)                1.4792         estimate D2E/DX2                !
 ! R20   R(16,22)                1.4884         estimate D2E/DX2                !
 ! R21   R(16,34)                2.1089         estimate D2E/DX2                !
 ! R22   R(17,26)                1.4792         estimate D2E/DX2                !
 ! R23   R(17,30)                1.4884         estimate D2E/DX2                !
 ! R24   R(17,34)                2.1089         estimate D2E/DX2                !
 ! R25   R(18,19)                1.1022         estimate D2E/DX2                !
 ! R26   R(18,20)                1.1113         estimate D2E/DX2                !
 ! R27   R(18,21)                1.0999         estimate D2E/DX2                !
 ! R28   R(22,23)                1.1114         estimate D2E/DX2                !
 ! R29   R(22,24)                1.0999         estimate D2E/DX2                !
 ! R30   R(22,25)                1.1004         estimate D2E/DX2                !
 ! R31   R(26,27)                1.1113         estimate D2E/DX2                !
 ! R32   R(26,28)                1.1022         estimate D2E/DX2                !
 ! R33   R(26,29)                1.0999         estimate D2E/DX2                !
 ! R34   R(30,31)                1.0999         estimate D2E/DX2                !
 ! R35   R(30,32)                1.1114         estimate D2E/DX2                !
 ! R36   R(30,33)                1.1004         estimate D2E/DX2                !
 ! A1    A(3,1,9)              121.452          estimate D2E/DX2                !
 ! A2    A(3,1,10)             127.8482         estimate D2E/DX2                !
 ! A3    A(9,1,10)             110.3352         estimate D2E/DX2                !
 ! A4    A(4,2,9)              121.452          estimate D2E/DX2                !
 ! A5    A(4,2,13)             127.8482         estimate D2E/DX2                !
 ! A6    A(9,2,13)             110.3352         estimate D2E/DX2                !
 ! A7    A(1,3,5)              121.3184         estimate D2E/DX2                !
 ! A8    A(1,3,6)              120.4885         estimate D2E/DX2                !
 ! A9    A(5,3,6)              118.1638         estimate D2E/DX2                !
 ! A10   A(2,4,5)              121.3184         estimate D2E/DX2                !
 ! A11   A(2,4,7)              120.4885         estimate D2E/DX2                !
 ! A12   A(5,4,7)              118.1638         estimate D2E/DX2                !
 ! A13   A(3,5,4)              113.7199         estimate D2E/DX2                !
 ! A14   A(3,5,8)              123.1279         estimate D2E/DX2                !
 ! A15   A(4,5,8)              123.1279         estimate D2E/DX2                !
 ! A16   A(1,9,2)              120.5281         estimate D2E/DX2                !
 ! A17   A(1,9,34)             119.2193         estimate D2E/DX2                !
 ! A18   A(2,9,34)             119.2193         estimate D2E/DX2                !
 ! A19   A(1,10,11)            108.2282         estimate D2E/DX2                !
 ! A20   A(1,10,12)            112.9382         estimate D2E/DX2                !
 ! A21   A(1,10,16)            110.2364         estimate D2E/DX2                !
 ! A22   A(11,10,12)           108.8315         estimate D2E/DX2                !
 ! A23   A(11,10,16)           106.1724         estimate D2E/DX2                !
 ! A24   A(12,10,16)           110.1779         estimate D2E/DX2                !
 ! A25   A(2,13,14)            108.2282         estimate D2E/DX2                !
 ! A26   A(2,13,15)            112.9382         estimate D2E/DX2                !
 ! A27   A(2,13,17)            110.2364         estimate D2E/DX2                !
 ! A28   A(14,13,15)           108.8315         estimate D2E/DX2                !
 ! A29   A(14,13,17)           106.1724         estimate D2E/DX2                !
 ! A30   A(15,13,17)           110.1779         estimate D2E/DX2                !
 ! A31   A(10,16,18)           109.1065         estimate D2E/DX2                !
 ! A32   A(10,16,22)           107.8846         estimate D2E/DX2                !
 ! A33   A(10,16,34)           104.9171         estimate D2E/DX2                !
 ! A34   A(18,16,22)           108.8388         estimate D2E/DX2                !
 ! A35   A(18,16,34)           116.862          estimate D2E/DX2                !
 ! A36   A(22,16,34)           108.8699         estimate D2E/DX2                !
 ! A37   A(13,17,26)           109.1065         estimate D2E/DX2                !
 ! A38   A(13,17,30)           107.8846         estimate D2E/DX2                !
 ! A39   A(13,17,34)           104.9171         estimate D2E/DX2                !
 ! A40   A(26,17,30)           108.8388         estimate D2E/DX2                !
 ! A41   A(26,17,34)           116.862          estimate D2E/DX2                !
 ! A42   A(30,17,34)           108.8699         estimate D2E/DX2                !
 ! A43   A(16,18,19)           108.5973         estimate D2E/DX2                !
 ! A44   A(16,18,20)           110.5339         estimate D2E/DX2                !
 ! A45   A(16,18,21)           108.9207         estimate D2E/DX2                !
 ! A46   A(19,18,20)           109.1296         estimate D2E/DX2                !
 ! A47   A(19,18,21)           109.4261         estimate D2E/DX2                !
 ! A48   A(20,18,21)           110.2048         estimate D2E/DX2                !
 ! A49   A(16,22,23)           109.5983         estimate D2E/DX2                !
 ! A50   A(16,22,24)           109.2463         estimate D2E/DX2                !
 ! A51   A(16,22,25)           108.8627         estimate D2E/DX2                !
 ! A52   A(23,22,24)           109.9816         estimate D2E/DX2                !
 ! A53   A(23,22,25)           109.9598         estimate D2E/DX2                !
 ! A54   A(24,22,25)           109.1698         estimate D2E/DX2                !
 ! A55   A(17,26,27)           110.5339         estimate D2E/DX2                !
 ! A56   A(17,26,28)           108.5973         estimate D2E/DX2                !
 ! A57   A(17,26,29)           108.9207         estimate D2E/DX2                !
 ! A58   A(27,26,28)           109.1296         estimate D2E/DX2                !
 ! A59   A(27,26,29)           110.2048         estimate D2E/DX2                !
 ! A60   A(28,26,29)           109.4261         estimate D2E/DX2                !
 ! A61   A(17,30,31)           109.2463         estimate D2E/DX2                !
 ! A62   A(17,30,32)           109.5983         estimate D2E/DX2                !
 ! A63   A(17,30,33)           108.8627         estimate D2E/DX2                !
 ! A64   A(31,30,32)           109.9816         estimate D2E/DX2                !
 ! A65   A(31,30,33)           109.1698         estimate D2E/DX2                !
 ! A66   A(32,30,33)           109.9598         estimate D2E/DX2                !
 ! A67   A(9,34,16)             82.8972         estimate D2E/DX2                !
 ! A68   A(9,34,17)             82.8972         estimate D2E/DX2                !
 ! A69   A(16,34,17)           163.7513         estimate D2E/DX2                !
 ! D1    D(9,1,3,5)              0.2829         estimate D2E/DX2                !
 ! D2    D(9,1,3,6)            178.2802         estimate D2E/DX2                !
 ! D3    D(10,1,3,5)          -172.0906         estimate D2E/DX2                !
 ! D4    D(10,1,3,6)             5.9068         estimate D2E/DX2                !
 ! D5    D(3,1,9,2)             -4.1307         estimate D2E/DX2                !
 ! D6    D(3,1,9,34)           164.1544         estimate D2E/DX2                !
 ! D7    D(10,1,9,2)           169.4524         estimate D2E/DX2                !
 ! D8    D(10,1,9,34)          -22.2626         estimate D2E/DX2                !
 ! D9    D(3,1,10,11)           95.1733         estimate D2E/DX2                !
 ! D10   D(3,1,10,12)          -25.3836         estimate D2E/DX2                !
 ! D11   D(3,1,10,16)         -149.1087         estimate D2E/DX2                !
 ! D12   D(9,1,10,11)          -77.8918         estimate D2E/DX2                !
 ! D13   D(9,1,10,12)          161.5513         estimate D2E/DX2                !
 ! D14   D(9,1,10,16)           37.8262         estimate D2E/DX2                !
 ! D15   D(9,2,4,5)             -0.2829         estimate D2E/DX2                !
 ! D16   D(9,2,4,7)           -178.2802         estimate D2E/DX2                !
 ! D17   D(13,2,4,5)           172.0906         estimate D2E/DX2                !
 ! D18   D(13,2,4,7)            -5.9068         estimate D2E/DX2                !
 ! D19   D(4,2,9,1)              4.1307         estimate D2E/DX2                !
 ! D20   D(4,2,9,34)          -164.1544         estimate D2E/DX2                !
 ! D21   D(13,2,9,1)          -169.4524         estimate D2E/DX2                !
 ! D22   D(13,2,9,34)           22.2626         estimate D2E/DX2                !
 ! D23   D(4,2,13,14)          -95.1733         estimate D2E/DX2                !
 ! D24   D(4,2,13,15)           25.3836         estimate D2E/DX2                !
 ! D25   D(4,2,13,17)          149.1087         estimate D2E/DX2                !
 ! D26   D(9,2,13,14)           77.8918         estimate D2E/DX2                !
 ! D27   D(9,2,13,15)         -161.5513         estimate D2E/DX2                !
 ! D28   D(9,2,13,17)          -37.8262         estimate D2E/DX2                !
 ! D29   D(1,3,5,4)              3.2293         estimate D2E/DX2                !
 ! D30   D(1,3,5,8)           -178.5163         estimate D2E/DX2                !
 ! D31   D(6,3,5,4)           -174.8132         estimate D2E/DX2                !
 ! D32   D(6,3,5,8)              3.4412         estimate D2E/DX2                !
 ! D33   D(2,4,5,3)             -3.2293         estimate D2E/DX2                !
 ! D34   D(2,4,5,8)            178.5163         estimate D2E/DX2                !
 ! D35   D(7,4,5,3)            174.8132         estimate D2E/DX2                !
 ! D36   D(7,4,5,8)             -3.4412         estimate D2E/DX2                !
 ! D37   D(1,9,34,16)            1.8259         estimate D2E/DX2                !
 ! D38   D(1,9,34,17)         -170.2658         estimate D2E/DX2                !
 ! D39   D(2,9,34,16)          170.2658         estimate D2E/DX2                !
 ! D40   D(2,9,34,17)           -1.8259         estimate D2E/DX2                !
 ! D41   D(1,10,16,18)        -160.3024         estimate D2E/DX2                !
 ! D42   D(1,10,16,22)          81.607          estimate D2E/DX2                !
 ! D43   D(1,10,16,34)         -34.3477         estimate D2E/DX2                !
 ! D44   D(11,10,16,18)        -43.3            estimate D2E/DX2                !
 ! D45   D(11,10,16,22)       -161.3906         estimate D2E/DX2                !
 ! D46   D(11,10,16,34)         82.6547         estimate D2E/DX2                !
 ! D47   D(12,10,16,18)         74.3867         estimate D2E/DX2                !
 ! D48   D(12,10,16,22)        -43.704          estimate D2E/DX2                !
 ! D49   D(12,10,16,34)       -159.6586         estimate D2E/DX2                !
 ! D50   D(2,13,17,26)         160.3024         estimate D2E/DX2                !
 ! D51   D(2,13,17,30)         -81.607          estimate D2E/DX2                !
 ! D52   D(2,13,17,34)          34.3477         estimate D2E/DX2                !
 ! D53   D(14,13,17,26)         43.3            estimate D2E/DX2                !
 ! D54   D(14,13,17,30)        161.3906         estimate D2E/DX2                !
 ! D55   D(14,13,17,34)        -82.6547         estimate D2E/DX2                !
 ! D56   D(15,13,17,26)        -74.3867         estimate D2E/DX2                !
 ! D57   D(15,13,17,30)         43.704          estimate D2E/DX2                !
 ! D58   D(15,13,17,34)        159.6586         estimate D2E/DX2                !
 ! D59   D(10,16,18,19)       -177.2413         estimate D2E/DX2                !
 ! D60   D(10,16,18,20)        -57.5548         estimate D2E/DX2                !
 ! D61   D(10,16,18,21)         63.6612         estimate D2E/DX2                !
 ! D62   D(22,16,18,19)        -59.7516         estimate D2E/DX2                !
 ! D63   D(22,16,18,20)         59.9349         estimate D2E/DX2                !
 ! D64   D(22,16,18,21)       -178.8491         estimate D2E/DX2                !
 ! D65   D(34,16,18,19)         64.0189         estimate D2E/DX2                !
 ! D66   D(34,16,18,20)       -176.2947         estimate D2E/DX2                !
 ! D67   D(34,16,18,21)        -55.0786         estimate D2E/DX2                !
 ! D68   D(10,16,22,23)         63.5423         estimate D2E/DX2                !
 ! D69   D(10,16,22,24)       -175.8925         estimate D2E/DX2                !
 ! D70   D(10,16,22,25)        -56.76           estimate D2E/DX2                !
 ! D71   D(18,16,22,23)        -54.7201         estimate D2E/DX2                !
 ! D72   D(18,16,22,24)         65.8451         estimate D2E/DX2                !
 ! D73   D(18,16,22,25)       -175.0224         estimate D2E/DX2                !
 ! D74   D(34,16,22,23)        176.8799         estimate D2E/DX2                !
 ! D75   D(34,16,22,24)        -62.5549         estimate D2E/DX2                !
 ! D76   D(34,16,22,25)         56.5776         estimate D2E/DX2                !
 ! D77   D(10,16,34,9)          18.5681         estimate D2E/DX2                !
 ! D78   D(10,16,34,17)         47.7741         estimate D2E/DX2                !
 ! D79   D(18,16,34,9)         139.5416         estimate D2E/DX2                !
 ! D80   D(18,16,34,17)        168.7476         estimate D2E/DX2                !
 ! D81   D(22,16,34,9)         -96.7038         estimate D2E/DX2                !
 ! D82   D(22,16,34,17)        -67.4978         estimate D2E/DX2                !
 ! D83   D(13,17,26,27)         57.5548         estimate D2E/DX2                !
 ! D84   D(13,17,26,28)        177.2413         estimate D2E/DX2                !
 ! D85   D(13,17,26,29)        -63.6612         estimate D2E/DX2                !
 ! D86   D(30,17,26,27)        -59.9349         estimate D2E/DX2                !
 ! D87   D(30,17,26,28)         59.7516         estimate D2E/DX2                !
 ! D88   D(30,17,26,29)        178.8491         estimate D2E/DX2                !
 ! D89   D(34,17,26,27)        176.2947         estimate D2E/DX2                !
 ! D90   D(34,17,26,28)        -64.0189         estimate D2E/DX2                !
 ! D91   D(34,17,26,29)         55.0786         estimate D2E/DX2                !
 ! D92   D(13,17,30,31)        175.8925         estimate D2E/DX2                !
 ! D93   D(13,17,30,32)        -63.5423         estimate D2E/DX2                !
 ! D94   D(13,17,30,33)         56.76           estimate D2E/DX2                !
 ! D95   D(26,17,30,31)        -65.8451         estimate D2E/DX2                !
 ! D96   D(26,17,30,32)         54.7201         estimate D2E/DX2                !
 ! D97   D(26,17,30,33)        175.0224         estimate D2E/DX2                !
 ! D98   D(34,17,30,31)         62.5549         estimate D2E/DX2                !
 ! D99   D(34,17,30,32)       -176.8799         estimate D2E/DX2                !
 ! D100  D(34,17,30,33)        -56.5776         estimate D2E/DX2                !
 ! D101  D(13,17,34,9)         -18.5681         estimate D2E/DX2                !
 ! D102  D(13,17,34,16)        -47.7741         estimate D2E/DX2                !
 ! D103  D(26,17,34,9)        -139.5416         estimate D2E/DX2                !
 ! D104  D(26,17,34,16)       -168.7476         estimate D2E/DX2                !
 ! D105  D(30,17,34,9)          96.7038         estimate D2E/DX2                !
 ! D106  D(30,17,34,16)         67.4978         estimate D2E/DX2                !
 --------------------------------------------------------------------------------
 Trust Radius=3.00D-01 FncErr=1.00D-07 GrdErr=1.00D-06 EigMax=2.50D+02 EigMin=1.00D-04
 Number of steps in this run=    204 maximum allowed number of steps=    204.
 GradGradGradGradGradGradGradGradGradGradGradGradGradGradGradGradGradGrad

                          Input orientation:                          
 ---------------------------------------------------------------------
 Center     Atomic      Atomic             Coordinates (Angstroms)
 Number     Number       Type             X           Y           Z
 ---------------------------------------------------------------------
      1          6           0       -0.239150    1.519550    1.186900
      2          6           0       -0.239150    1.519550   -1.186900
      3          6           0       -0.077390    2.880490    1.229470
      4          6           0       -0.077390    2.880490   -1.229470
      5          6           0        0.055620    3.672100    0.000000
      6          1           0       -0.076880    3.409950    2.187370
      7          1           0       -0.076880    3.409950   -2.187370
      8          8           0        0.229850    4.899950    0.000000
      9          7           0       -0.277630    0.842660    0.000000
     10          6           0       -0.551820    0.587160    2.333250
     11          1           0       -1.645870    0.427110    2.360500
     12          1           0       -0.223730    0.984130    3.314810
     13          6           0       -0.551820    0.587160   -2.333250
     14          1           0       -1.645870    0.427110   -2.360500
     15          1           0       -0.223730    0.984130   -3.314810
     16          7           0        0.063790   -0.764750    2.087740
     17          7           0        0.063790   -0.764750   -2.087740
     18          6           0       -0.619660   -1.768580    2.932310
     19          1           0       -0.130400   -2.744930    2.783410
     20          1           0       -0.551370   -1.486860    4.005120
     21          1           0       -1.673200   -1.836490    2.623700
     22          6           0        1.495640   -0.694520    2.488120
     23          1           0        1.568330   -0.492540    3.578550
     24          1           0        1.986150   -1.649540    2.249260
     25          1           0        1.983820    0.113680    1.923040
     26          6           0       -0.619660   -1.768580   -2.932310
     27          1           0       -0.551370   -1.486860   -4.005120
     28          1           0       -0.130400   -2.744930   -2.783410
     29          1           0       -1.673200   -1.836490   -2.623700
     30          6           0        1.495640   -0.694520   -2.488120
     31          1           0        1.986150   -1.649540   -2.249260
     32          1           0        1.568330   -0.492540   -3.578550
     33          1           0        1.983820    0.113680   -1.923040
     34         77           0       -0.047890   -1.041070    0.000000
 ---------------------------------------------------------------------
                    Distance matrix (angstroms):
                    1          2          3          4          5
     1  C    0.000000
     2  C    2.373800   0.000000
     3  C    1.371181   2.777979   0.000000
     4  C    2.777979   1.371181   2.458940   0.000000
     5  C    2.475700   2.475700   1.468310   1.468310   0.000000
     6  H    2.144967   3.871129   1.094486   3.457618   2.207004
     7  H    3.871129   2.144967   3.457618   1.094486   2.207004
     8  O    3.613281   3.613281   2.384158   2.384158   1.240150
     9  N    1.366892   1.366892   2.388398   2.388398   2.848997
    10  C    1.510375   3.654938   2.588972   4.263499   3.915341
    11  H    2.132985   3.969425   3.123849   4.622455   4.358553
    12  H    2.194291   4.533465   2.822453   4.926264   4.276819
    13  C    3.654938   1.510375   4.263499   2.588972   3.915341
    14  H    3.969425   2.132985   4.622455   3.123849   4.358553
    15  H    4.533465   2.194291   4.926264   2.822453   4.276819
    16  N    2.474129   4.004131   3.747577   4.930678   4.903505
    17  N    4.004131   2.474129   4.930678   3.747577   4.903505
    18  C    3.742064   5.284362   4.980720   6.263252   6.217350
    19  H    4.554828   5.827605   5.836342   6.910236   6.997160
    20  H    4.132596   6.007750   5.196406   6.833691   6.559290
    21  H    3.922231   5.276379   5.171111   6.296303   6.341702
    22  C    3.099157   4.627891   4.103574   5.392179   5.227979
    23  H    3.610468   5.479508   4.427629   6.099408   5.695484
    24  H    4.015433   5.177093   5.081274   6.072967   6.091467
    25  H    2.731294   4.073057   3.519213   4.673558   4.480892
    26  C    5.284362   3.742064   6.263252   4.980720   6.217350
    27  H    6.007750   4.132596   6.833691   5.196406   6.559290
    28  H    5.827605   4.554828   6.910236   5.836342   6.997160
    29  H    5.276379   3.922231   6.296303   5.171111   6.341702
    30  C    4.627891   3.099157   5.392179   4.103574   5.227979
    31  H    5.177093   4.015433   6.072967   5.081274   6.091467
    32  H    5.479508   3.610468   6.099408   4.427629   5.695484
    33  H    4.073057   2.731294   4.673558   3.519213   4.480892
    34  Ir   2.828796   2.828796   4.109878   4.109878   4.714306
                    6          7          8          9         10
     6  H    0.000000
     7  H    4.374740   0.000000
     8  O    2.664352   2.664352   0.000000
     9  N    3.378737   3.378737   4.088904   0.000000
    10  C    2.866181   5.350674   4.965402   2.363158   0.000000
    11  H    3.374765   5.660582   5.394125   2.759841   1.106031
    12  H    2.679046   6.014994   5.150471   3.318265   1.108462
    13  C    5.350674   2.866181   4.965402   2.363158   4.666500
    14  H    5.660582   3.374765   5.394125   2.759841   4.822225
    15  H    6.014994   2.679046   5.150471   3.318265   5.671491
    16  N    4.178257   5.976995   6.039459   2.656877   1.505627
    17  N    5.976995   4.178257   6.039459   2.656877   4.663881
    18  C    5.259916   7.302254   7.334126   3.941320   2.431663
    19  H    6.183905   7.911641   8.143792   4.543110   3.388667
    20  H    5.244817   7.908908   7.579092   4.641399   2.663965
    21  H    5.501250   7.295188   7.475629   4.001158   2.686249
    22  C    4.405672   6.417141   6.252284   3.420256   2.420492
    23  H    4.457749   7.154158   6.608820   4.242210   2.685435
    24  H    5.464281   7.038339   7.144199   4.049065   3.383958
    25  H    3.896377   5.657504   5.448199   3.056739   2.611882
    26  C    7.302254   5.259916   7.334126   3.941320   5.768902
    27  H    7.908908   5.244817   7.579092   4.641399   6.669070
    28  H    7.911641   6.183905   8.143792   4.543110   6.120509
    29  H    7.295188   5.501250   7.475629   4.001158   5.630535
    30  C    6.417141   4.405672   6.252284   3.420256   5.392625
    31  H    7.038339   5.464281   7.144199   4.049065   5.695921
    32  H    7.154158   4.457749   6.608820   4.242210   6.372611
    33  H    5.657504   3.896377   5.448199   3.056739   4.976913
    34  Ir   4.959537   4.959537   5.947509   1.897688   2.889487
                   11         12         13         14         15
    11  H    0.000000
    12  H    1.800961   0.000000
    13  C    4.822225   5.671491   0.000000
    14  H    4.721000   5.877235   1.106031   0.000000
    15  H    5.877235   6.629620   1.108462   1.800961   0.000000
    16  N    2.101872   2.155678   4.663881   4.912261   5.685842
    17  N    4.912261   5.685842   1.505627   2.101872   2.155678
    18  C    2.490206   2.807219   5.768902   5.821340   6.838178
    19  H    3.540811   3.767889   6.120509   6.230433   7.148628
    20  H    2.750634   2.586439   6.669070   6.736641   7.732691
    21  H    2.279014   3.245688   5.630535   5.474201   6.732218
    22  C    3.338177   2.541164   5.392625   5.885257   6.280772
    23  H    3.558157   2.337005   6.372611   6.815362   7.273957
    24  H    4.185262   3.599331   5.695921   6.225266   6.540540
    25  H    3.669368   2.750997   4.976913   5.623309   5.750307
    26  C    5.821340   6.838178   2.431663   2.490206   2.807219
    27  H    6.736641   7.732691   2.663965   2.750634   2.586439
    28  H    6.230433   7.148628   3.388667   3.540811   3.767889
    29  H    5.474201   6.732218   2.686249   2.279014   3.245688
    30  C    5.885257   6.280772   2.420492   3.338177   2.541164
    31  H    6.225266   6.540540   3.383958   4.185262   3.599331
    32  H    6.815362   7.273957   2.685435   3.558157   2.337005
    33  H    5.623309   5.750307   2.611882   3.669368   2.750997
    34  Ir   3.206408   3.888486   2.889487   3.206408   3.888486
                   16         17         18         19         20
    16  N    0.000000
    17  N    4.175480   0.000000
    18  C    1.479215   5.164850   0.000000
    19  H    2.107790   5.261837   1.102182   0.000000
    20  H    2.139208   6.166264   1.111283   1.803478   0.000000
    21  H    2.110217   5.134533   1.099908   1.797499   1.813578
    22  C    1.488432   4.795166   2.413587   2.633512   2.668209
    23  H    2.135475   5.868951   2.614040   2.931074   2.379866
    24  H    2.122360   4.825753   2.696474   2.442331   3.090067
    25  H    2.117848   4.532605   3.367438   3.658116   3.650202
    26  C    5.164850   1.479215   5.864620   5.819114   6.943484
    27  H    6.166264   2.139208   6.943484   6.916943   8.010240
    28  H    5.261837   2.107790   5.819114   5.566820   6.916943
    29  H    5.134533   2.110217   5.655423   5.695817   6.732161
    30  C    4.795166   1.488432   5.916854   5.885339   6.854212
    31  H    4.825753   2.122360   5.801128   5.568432   6.751499
    32  H    5.868951   2.135475   6.986192   6.959417   7.936867
    33  H    4.532605   2.117848   5.821979   5.898495   6.643192
    34  Ir   2.108906   2.108906   3.074839   3.264555   4.061183
                   21         22         23         24         25
    21  H    0.000000
    22  C    3.371057   0.000000
    23  H    3.636682   1.111358   0.000000
    24  H    3.683205   1.099872   1.811142   0.000000
    25  H    4.203318   1.100374   1.811311   1.793145   0.000000
    26  C    5.655423   5.916854   6.986192   5.801128   5.821979
    27  H    6.732161   6.854212   7.936867   6.751499   6.643192
    28  H    5.695817   5.885339   6.959417   5.568432   5.898495
    29  H    5.247400   6.121793   7.126123   6.096846   6.152219
    30  C    6.121793   4.976240   6.070467   4.857513   4.511080
    31  H    6.096846   4.857513   5.956223   4.498520   4.529574
    32  H    7.126123   6.070467   7.157100   5.956223   5.550462
    33  H    6.152219   4.511080   5.550462   4.529574   3.846080
    34  Ir   3.187182   2.948444   3.964729   3.093012   3.026446
                   26         27         28         29         30
    26  C    0.000000
    27  H    1.111283   0.000000
    28  H    1.102182   1.803478   0.000000
    29  H    1.099908   1.813578   1.797499   0.000000
    30  C    2.413587   2.668209   2.633512   3.371057   0.000000
    31  H    2.696474   3.090067   2.442331   3.683205   1.099872
    32  H    2.614040   2.379866   2.931074   3.636682   1.111358
    33  H    3.367438   3.650202   3.658116   4.203318   1.100374
    34  Ir   3.074839   4.061183   3.264555   3.187182   2.948444
                   31         32         33         34
    31  H    0.000000
    32  H    1.811142   0.000000
    33  H    1.793145   1.811311   0.000000
    34  Ir   3.093012   3.964729   3.026446   0.000000
 Stoichiometry    C11H18IrN3O
 Framework group  CS[SG(CIrNO),X(C10H18N2)]
 Deg. of freedom    50
 Full point group                 CS      NOp   2
 Largest Abelian subgroup         CS      NOp   2
 Largest concise Abelian subgroup CS      NOp   2
                         Standard orientation:                         
 ---------------------------------------------------------------------
 Center     Atomic      Atomic             Coordinates (Angstroms)
 Number     Number       Type             X           Y           Z
 ---------------------------------------------------------------------
      1          6           0       -0.239149    1.519549    1.186900
      2          6           0       -0.239149    1.519549   -1.186900
      3          6           0       -0.077389    2.880489    1.229470
      4          6           0       -0.077389    2.880489   -1.229470
      5          6           0        0.055621    3.672099   -0.000000
      6          1           0       -0.076879    3.409949    2.187370
      7          1           0       -0.076879    3.409949   -2.187370
      8          8           0        0.229850    4.899949   -0.000000
      9          7           0       -0.277629    0.842659   -0.000000
     10          6           0       -0.551819    0.587159    2.333250
     11          1           0       -1.645869    0.427109    2.360500
     12          1           0       -0.223729    0.984129    3.314810
     13          6           0       -0.551819    0.587159   -2.333250
     14          1           0       -1.645869    0.427109   -2.360500
     15          1           0       -0.223729    0.984129   -3.314810
     16          7           0        0.063791   -0.764751    2.087740
     17          7           0        0.063791   -0.764751   -2.087740
     18          6           0       -0.619659   -1.768581    2.932310
     19          1           0       -0.130398   -2.744931    2.783410
     20          1           0       -0.551369   -1.486861    4.005120
     21          1           0       -1.673199   -1.836491    2.623700
     22          6           0        1.495641   -0.694521    2.488120
     23          1           0        1.568331   -0.492541    3.578550
     24          1           0        1.986151   -1.649540    2.249260
     25          1           0        1.983821    0.113680    1.923040
     26          6           0       -0.619659   -1.768581   -2.932310
     27          1           0       -0.551369   -1.486861   -4.005120
     28          1           0       -0.130398   -2.744931   -2.783410
     29          1           0       -1.673199   -1.836491   -2.623700
     30          6           0        1.495641   -0.694521   -2.488120
     31          1           0        1.986151   -1.649540   -2.249260
     32          1           0        1.568331   -0.492541   -3.578550
     33          1           0        1.983821    0.113680   -1.923040
     34         77           0       -0.047889   -1.041071    0.000000
 ---------------------------------------------------------------------
 Rotational constants (GHZ):           0.5416940           0.3908647           0.2511638
 Standard basis: def2TZVPP (5D, 7F)
 There are   473 symmetry adapted cartesian basis functions of A'  symmetry.
 There are   408 symmetry adapted cartesian basis functions of A"  symmetry.
 There are   411 symmetry adapted basis functions of A'  symmetry.
 There are   362 symmetry adapted basis functions of A"  symmetry.
   773 basis functions,  1171 primitive gaussians,   881 cartesian basis functions
    65 alpha electrons       65 beta electrons
       nuclear repulsion energy      1347.2096305331 Hartrees.
 NAtoms=   34 NActive=   34 NUniq=   19 SFac= 3.20D+00 NAtFMM=   60 NAOKFM=F Big=F
 Integral buffers will be    131072 words long.
 Raffenetti 2 integral format.
 Two-electron integral symmetry is turned on.
 Nuclear repulsion after empirical dispersion term =     1347.1743779926 Hartrees.
 ------------------------------------------------------------------------------
 Polarizable Continuum Model (PCM)
 =================================
 Model                : PCM.
 Atomic radii         : UFF (Universal Force Field).
 Polarization charges : Total charges.
 Charge compensation  : None.
 Solution method      : On-the-fly selection.
 Cavity type          : Scaled VdW (van der Waals Surface) (Alpha=1.100).
 Cavity algorithm     : GePol (No added spheres)
                        Default sphere list used, NSphG=   34.
                        Lebedev-Laikov grids with approx.  5.0 points / Ang**2.
                        Smoothing algorithm: York/Karplus (Gamma=1.0000).
                        Polarization charges: spherical gaussians, with
                                              point-specific exponents (IZeta= 3).
                        Self-potential: point-specific (ISelfS= 7).
                        Self-field    : sphere-specific E.n sum rule (ISelfD= 2).
 1st derivatives      : Analytical E(r).r(x)/FMM algorithm (CHGder, D1EAlg=3).
                        Cavity 1st derivative terms included.
 Solvent              : Dichloromethane, Eps=   8.930000 Eps(inf)=   2.028346
 ------------------------------------------------------------------------------
 One-electron integrals computed using PRISM.
 PrsmSu:  requested number of processors reduced to:   5 ShMem   1 Linda.
   2 Symmetry operations used in ECPInt.
 ECPInt:  NShTT=   41905 NPrTT=  110145 LenC2=   38040 LenP2D=   76585.
 LDataN:  DoStor=T MaxTD1= 9 Len=  602
 NBasis=   773 RedAO= T EigKep=  2.14D-05  NBF=   411   362
 NBsUse=   773 1.00D-06 EigRej= -1.00D+00 NBFU=   411   362
 Defaulting to unpruned grid for atomic number  77.
 ExpMin= 5.00D-02 ExpMax= 2.70D+04 ExpMxC= 9.22D+02 IAcc=3 IRadAn=         5 AccDes= 0.00D+00
 Harris functional with IExCor= 4639 and IRadAn=       5 diagonalized for initial guess.
 HarFok:  IExCor= 4639 AccDes= 0.00D+00 IRadAn=         5 IDoV= 1 UseB2=F ITyADJ=14
 ICtDFT=  3500011 ScaDFX=  1.000000  1.000000  1.000000  1.000000
 Defaulting to unpruned grid for atomic number  77.
 FoFCou: FMM=F IPFlag=           0 FMFlag=      100000 FMFlg1=           0
         NFxFlg=           0 DoJE=T BraDBF=F KetDBF=T FulRan=T
         wScrn=  0.000000 ICntrl=       500 IOpCl=  0 I1Cent=   200000004 NGrid=           0
         NMat0=    1 NMatS0=      1 NMatT0=    0 NMatD0=    1 NMtDS0=    0 NMtDT0=    0
 Petite list used in FoFCou.
 Initial guess orbital symmetries:
       Occupied  (A') (A') (A") (A') (A") (A') (A") (A') (A') (A")
                 (A") (A') (A') (A") (A') (A') (A') (A") (A') (A')
                 (A') (A") (A') (A") (A') (A') (A") (A') (A") (A')
                 (A") (A") (A') (A") (A') (A') (A") (A') (A') (A")
                 (A") (A') (A') (A") (A") (A') (A') (A") (A') (A")
                 (A') (A") (A') (A") (A') (A') (A') (A") (A") (A")
                 (A') (A') (A") (A") (A')
       Virtual   (A') (A") (A') (A') (A") (A') (A') (A') (A") (A")
                 (A') (A') (A") (A') (A") (A") (A') (A") (A') (A')
                 (A') (A') (A") (A') (A") (A') (A") (A') (A') (A")
                 (A") (A') (A") (A') (A') (A") (A') (A') (A") (A')
                 (A") (A') (A") (A') (A") (A") (A') (A') (A') (A")
                 (A") (A') (A") (A') (A') (A") (A') (A") (A") (A')
                 (A') (A") (A') (A') (A") (A') (A") (A') (A') (A")
                 (A") (A') (A') (A") (A') (A") (A') (A") (A') (A")
                 (A") (A') (A') (A") (A') (A") (A") (A') (A') (A')
                 (A") (A') (A") (A") (A') (A") (A') (A") (A') (A')
                 (A") (A") (A') (A') (A') (A") (A") (A') (A') (A")
                 (A") (A') (A') (A") (A') (A') (A") (A') (A") (A")
                 (A') (A") (A') (A') (A") (A') (A') (A") (A") (A")
                 (A') (A') (A") (A') (A") (A") (A') (A') (A') (A')
                 (A") (A') (A") (A") (A') (A') (A") (A') (A") (A")
                 (A') (A") (A') (A") (A') (A") (A') (A") (A') (A')
                 (A") (A') (A") (A') (A") (A") (A") (A') (A') (A')
                 (A') (A") (A') (A") (A') (A") (A") (A') (A') (A")
                 (A') (A") (A') (A') (A") (A") (A') (A') (A") (A")
                 (A') (A") (A') (A') (A") (A") (A") (A') (A") (A")
                 (A') (A') (A') (A") (A') (A") (A') (A') (A") (A')
                 (A") (A') (A") (A') (A") (A") (A') (A') (A') (A")
                 (A') (A") (A") (A') (A") (A') (A') (A") (A') (A')
                 (A") (A") (A") (A') (A') (A') (A") (A') (A") (A")
                 (A') (A") (A') (A") (A') (A") (A") (A') (A') (A")
                 (A') (A') (A") (A') (A') (A') (A") (A') (A") (A")
                 (A") (A') (A") (A') (A") (A') (A') (A") (A') (A")
                 (A") (A') (A") (A") (A') (A') (A") (A') (A") (A')
                 (A") (A') (A") (A') (A') (A") (A") (A') (A') (A')
                 (A") (A') (A") (A") (A') (A") (A") (A') (A') (A')
                 (A") (A') (A") (A') (A') (A") (A") (A") (A') (A')
                 (A') (A") (A") (A') (A") (A') (A') (A") (A") (A')
                 (A') (A") (A') (A') (A") (A') (A") (A') (A") (A")
                 (A') (A') (A") (A') (A") (A') (A") (A') (A") (A')
                 (A") (A') (A') (A") (A") (A') (A") (A') (A') (A")
                 (A") (A') (A') (A") (A") (A') (A") (A') (A") (A')
                 (A') (A') (A") (A") (A') (A") (A') (A") (A') (A")
                 (A') (A") (A") (A') (A') (A") (A") (A') (A") (A')
                 (A') (A") (A") (A') (A') (A") (A') (A') (A") (A')
                 (A") (A') (A') (A") (A') (A") (A') (A') (A") (A')
                 (A") (A') (A') (A") (A") (A") (A') (A') (A') (A")
                 (A") (A") (A') (A') (A') (A") (A') (A") (A") (A')
                 (A") (A") (A') (A") (A') (A') (A") (A') (A") (A')
                 (A") (A') (A') (A") (A') (A") (A') (A") (A') (A")
                 (A') (A") (A') (A") (A") (A') (A") (A') (A") (A')
                 (A") (A') (A") (A') (A") (A") (A') (A') (A") (A')
                 (A") (A") (A') (A') (A") (A') (A") (A') (A') (A")
                 (A") (A') (A") (A') (A") (A') (A') (A") (A') (A')
                 (A") (A") (A") (A') (A") (A') (A") (A') (A') (A")
                 (A') (A") (A') (A") (A') (A") (A") (A') (A') (A")
                 (A') (A") (A') (A') (A') (A") (A") (A") (A') (A")
                 (A') (A') (A') (A") (A") (A') (A") (A') (A') (A")
                 (A") (A') (A") (A") (A') (A') (A") (A") (A') (A')
                 (A") (A') (A') (A") (A") (A") (A') (A') (A") (A')
                 (A") (A') (A") (A") (A') (A") (A') (A') (A") (A")
                 (A') (A') (A') (A") (A") (A") (A') (A') (A") (A')
                 (A') (A") (A') (A") (A') (A") (A') (A') (A") (A")
                 (A') (A') (A") (A') (A") (A") (A') (A') (A") (A")
                 (A') (A") (A') (A') (A") (A") (A") (A') (A") (A')
                 (A') (A') (A") (A") (A') (A') (A") (A') (A") (A")
                 (A') (A") (A') (A") (A') (A') (A") (A') (A") (A')
                 (A") (A') (A") (A') (A") (A') (A') (A") (A') (A')
                 (A") (A") (A') (A") (A") (A') (A') (A") (A') (A")
                 (A") (A') (A") (A") (A') (A') (A") (A') (A") (A')
                 (A') (A") (A') (A") (A') (A') (A") (A') (A") (A')
                 (A") (A") (A") (A') (A') (A") (A") (A') (A") (A')
                 (A") (A') (A") (A') (A") (A') (A") (A') (A") (A')
                 (A") (A') (A') (A") (A') (A') (A") (A') (A") (A")
                 (A') (A") (A') (A') (A') (A") (A') (A") (A') (A")
                 (A') (A") (A') (A") (A') (A') (A") (A") (A') (A')
                 (A") (A') (A') (A') (A") (A') (A') (A')
 The electronic state of the initial guess is 1-A'.
 Requested convergence on RMS density matrix=1.00D-08 within 128 cycles.
 Requested convergence on MAX density matrix=1.00D-06.
 Requested convergence on             energy=1.00D-06.
 No special actions if energy rises.
 Defaulting to unpruned grid for atomic number  77.
 Defaulting to unpruned grid for atomic number  77.
 Defaulting to unpruned grid for atomic number  77.
 Defaulting to unpruned grid for atomic number  77.
 Defaulting to unpruned grid for atomic number  77.
 Defaulting to unpruned grid for atomic number  77.
 Defaulting to unpruned grid for atomic number  77.
 Defaulting to unpruned grid for atomic number  77.
 Inv3:  Mode=1 IEnd=    17078988.
 Iteration    1 A*A^-1 deviation from unit magnitude is 3.33D-15 for   1657.
 Iteration    1 A*A^-1 deviation from orthogonality  is 2.28D-15 for   2018   1514.
 Iteration    1 A^-1*A deviation from unit magnitude is 3.33D-15 for    193.
 Iteration    1 A^-1*A deviation from orthogonality  is 2.44D-15 for   2221    964.
 Restarting incremental Fock formation.
 Error on total polarization charges =  0.02116
 SCF Done:  E(RwB97XD) =  -773.945988407     A.U. after   21 cycles
            NFock= 21  Conv=0.40D-08     -V/T= 2.1036

 **********************************************************************

            Population analysis using the SCF Density.

 **********************************************************************

 Orbital symmetries:
       Occupied  (A') (A") (A') (A') (A') (A") (A') (A") (A') (A")
                 (A') (A") (A') (A") (A') (A') (A') (A") (A') (A')
                 (A') (A") (A') (A") (A') (A') (A") (A') (A") (A')
                 (A") (A") (A') (A') (A") (A') (A") (A') (A") (A')
                 (A") (A') (A') (A") (A') (A") (A') (A") (A') (A")
                 (A') (A") (A') (A") (A') (A') (A') (A") (A") (A')
                 (A") (A") (A") (A') (A')
       Virtual   (A') (A') (A") (A') (A') (A") (A') (A') (A') (A")
                 (A") (A') (A') (A") (A") (A') (A") (A") (A') (A')
                 (A') (A') (A") (A') (A') (A") (A") (A') (A") (A')
                 (A") (A') (A") (A') (A') (A") (A') (A') (A") (A')
                 (A") (A") (A') (A') (A") (A') (A") (A') (A') (A")
                 (A') (A") (A") (A') (A") (A') (A') (A") (A') (A")
                 (A') (A") (A') (A') (A") (A') (A") (A') (A') (A")
                 (A") (A') (A') (A") (A') (A") (A') (A") (A') (A")
                 (A") (A') (A') (A") (A") (A') (A') (A") (A') (A')
                 (A') (A") (A") (A") (A') (A") (A') (A") (A') (A')
                 (A") (A") (A') (A') (A') (A") (A") (A') (A') (A")
                 (A") (A') (A') (A") (A') (A') (A") (A') (A") (A")
                 (A') (A") (A') (A") (A') (A') (A') (A") (A") (A")
                 (A') (A') (A") (A") (A') (A") (A') (A') (A') (A")
                 (A') (A") (A') (A") (A') (A') (A") (A') (A") (A")
                 (A") (A') (A') (A") (A') (A") (A") (A') (A') (A')
                 (A") (A') (A") (A') (A") (A") (A") (A') (A') (A')
                 (A') (A") (A') (A") (A') (A") (A") (A') (A') (A")
                 (A') (A") (A') (A') (A") (A") (A') (A") (A') (A")
                 (A') (A") (A') (A') (A") (A") (A") (A') (A") (A')
                 (A") (A') (A') (A") (A') (A") (A') (A") (A') (A')
                 (A") (A') (A") (A") (A') (A") (A') (A') (A') (A')
                 (A") (A") (A') (A") (A') (A") (A') (A") (A') (A')
                 (A") (A") (A") (A') (A') (A') (A") (A") (A') (A")
                 (A') (A") (A') (A") (A') (A") (A') (A") (A') (A')
                 (A") (A') (A") (A') (A') (A') (A') (A") (A") (A")
                 (A') (A") (A') (A') (A") (A') (A") (A") (A') (A")
                 (A") (A') (A") (A") (A') (A') (A") (A') (A") (A')
                 (A") (A') (A") (A') (A") (A') (A") (A') (A') (A')
                 (A") (A') (A") (A") (A') (A") (A") (A') (A') (A")
                 (A') (A') (A') (A") (A') (A") (A") (A") (A') (A')
                 (A") (A') (A') (A") (A") (A') (A') (A") (A") (A')
                 (A") (A') (A') (A") (A') (A") (A') (A') (A") (A")
                 (A') (A') (A") (A') (A") (A") (A') (A') (A") (A')
                 (A") (A') (A') (A") (A") (A') (A') (A") (A') (A")
                 (A") (A') (A') (A") (A") (A') (A') (A") (A') (A")
                 (A') (A') (A") (A") (A') (A") (A') (A") (A') (A")
                 (A') (A") (A") (A') (A') (A") (A") (A') (A") (A')
                 (A') (A") (A") (A') (A') (A") (A') (A') (A") (A')
                 (A') (A") (A") (A') (A') (A") (A') (A') (A") (A')
                 (A") (A') (A') (A") (A') (A") (A') (A") (A') (A")
                 (A") (A') (A") (A') (A') (A") (A') (A") (A") (A')
                 (A") (A") (A') (A") (A") (A') (A') (A') (A") (A')
                 (A") (A') (A') (A') (A") (A") (A') (A") (A') (A")
                 (A') (A') (A") (A") (A') (A") (A") (A') (A") (A')
                 (A") (A") (A') (A") (A') (A') (A") (A') (A") (A')
                 (A") (A') (A") (A') (A") (A') (A") (A') (A') (A")
                 (A') (A") (A") (A') (A') (A") (A') (A") (A') (A')
                 (A") (A") (A") (A') (A") (A') (A") (A') (A') (A")
                 (A') (A") (A') (A') (A") (A") (A") (A') (A') (A")
                 (A') (A") (A') (A') (A") (A') (A") (A") (A") (A')
                 (A') (A') (A') (A") (A') (A") (A') (A") (A') (A")
                 (A') (A") (A") (A") (A') (A') (A") (A") (A') (A')
                 (A") (A') (A") (A') (A") (A") (A') (A') (A") (A')
                 (A") (A') (A") (A") (A') (A") (A') (A") (A') (A")
                 (A') (A') (A") (A') (A") (A") (A') (A') (A") (A')
                 (A') (A") (A') (A") (A') (A") (A') (A') (A") (A")
                 (A') (A') (A") (A') (A") (A") (A') (A') (A") (A")
                 (A') (A') (A") (A') (A") (A") (A") (A') (A') (A")
                 (A') (A') (A") (A") (A') (A') (A") (A') (A") (A")
                 (A') (A") (A') (A") (A') (A') (A") (A') (A") (A')
                 (A") (A') (A") (A') (A') (A") (A') (A') (A") (A")
                 (A') (A") (A') (A") (A") (A') (A') (A") (A') (A")
                 (A") (A') (A") (A") (A') (A') (A") (A') (A") (A')
                 (A') (A") (A') (A") (A') (A') (A") (A') (A') (A")
                 (A") (A") (A') (A") (A') (A") (A") (A') (A") (A')
                 (A") (A') (A") (A") (A') (A") (A') (A") (A') (A')
                 (A") (A') (A') (A") (A') (A") (A') (A') (A") (A')
                 (A") (A") (A') (A') (A') (A") (A') (A") (A') (A")
                 (A') (A") (A') (A") (A') (A') (A") (A") (A') (A')
                 (A") (A') (A') (A') (A") (A') (A') (A')
 The electronic state is 1-A'.
 Alpha  occ. eigenvalues --  -19.18136 -14.50014 -14.50014 -14.46789 -10.34206
 Alpha  occ. eigenvalues --  -10.33460 -10.33460 -10.33360 -10.33357 -10.31974
 Alpha  occ. eigenvalues --  -10.31974 -10.31766 -10.31766 -10.27388 -10.27388
 Alpha  occ. eigenvalues --   -3.72136  -2.06668  -2.06023  -2.03021  -1.09063
 Alpha  occ. eigenvalues --   -1.07495  -1.05728  -1.03953  -0.90109  -0.85741
 Alpha  occ. eigenvalues --   -0.83091  -0.81875  -0.81846  -0.79739  -0.72741
 Alpha  occ. eigenvalues --   -0.71995  -0.70042  -0.66182  -0.61310  -0.59946
 Alpha  occ. eigenvalues --   -0.58906  -0.58165  -0.57591  -0.56584  -0.56402
 Alpha  occ. eigenvalues --   -0.55725  -0.52466  -0.51102  -0.50266  -0.49433
 Alpha  occ. eigenvalues --   -0.49296  -0.48976  -0.47621  -0.47271  -0.46769
 Alpha  occ. eigenvalues --   -0.46500  -0.46255  -0.45832  -0.44246  -0.44006
 Alpha  occ. eigenvalues --   -0.43258  -0.42882  -0.37389  -0.33467  -0.31146
 Alpha  occ. eigenvalues --   -0.30883  -0.27455  -0.25390  -0.24074  -0.22728
 Alpha virt. eigenvalues --    0.04070   0.05152   0.05625   0.09236   0.10773
 Alpha virt. eigenvalues --    0.11235   0.11996   0.13953   0.15357   0.15361
 Alpha virt. eigenvalues --    0.15745   0.15753   0.16610   0.16671   0.16932
 Alpha virt. eigenvalues --    0.17414   0.17584   0.19510   0.19513   0.19875
 Alpha virt. eigenvalues --    0.20093   0.20912   0.21348   0.21724   0.22236
 Alpha virt. eigenvalues --    0.22456   0.22956   0.23619   0.23789   0.23827
 Alpha virt. eigenvalues --    0.24383   0.25456   0.26351   0.26438   0.28203
 Alpha virt. eigenvalues --    0.29076   0.30252   0.30696   0.31798   0.31833
 Alpha virt. eigenvalues --    0.32373   0.33355   0.33458   0.34721   0.35402
 Alpha virt. eigenvalues --    0.36173   0.36814   0.37227   0.37351   0.37727
 Alpha virt. eigenvalues --    0.38983   0.39058   0.39967   0.40304   0.41059
 Alpha virt. eigenvalues --    0.41192   0.41547   0.41743   0.43920   0.44073
 Alpha virt. eigenvalues --    0.44953   0.45092   0.45265   0.45859   0.46253
 Alpha virt. eigenvalues --    0.46692   0.47211   0.47811   0.48476   0.48544
 Alpha virt. eigenvalues --    0.49230   0.49866   0.50055   0.50191   0.50610
 Alpha virt. eigenvalues --    0.50771   0.50771   0.51517   0.51922   0.52049
 Alpha virt. eigenvalues --    0.52636   0.53294   0.53840   0.54213   0.54632
 Alpha virt. eigenvalues --    0.54756   0.55472   0.56168   0.56966   0.57988
 Alpha virt. eigenvalues --    0.58303   0.58426   0.59043   0.60058   0.60688
 Alpha virt. eigenvalues --    0.61087   0.61762   0.62867   0.64235   0.64761
 Alpha virt. eigenvalues --    0.65227   0.65934   0.67264   0.67405   0.68226
 Alpha virt. eigenvalues --    0.69218   0.70578   0.70624   0.71629   0.72640
 Alpha virt. eigenvalues --    0.73046   0.74182   0.75063   0.75142   0.76212
 Alpha virt. eigenvalues --    0.76435   0.76812   0.78122   0.79523   0.80899
 Alpha virt. eigenvalues --    0.81845   0.81918   0.84042   0.85139   0.85172
 Alpha virt. eigenvalues --    0.85992   0.86993   0.87576   0.88766   0.89882
 Alpha virt. eigenvalues --    0.90212   0.90926   0.91439   0.92446   0.92712
 Alpha virt. eigenvalues --    0.93875   0.94732   0.95839   0.96262   0.97061
 Alpha virt. eigenvalues --    0.97268   0.97613   0.97929   1.00289   1.00616
 Alpha virt. eigenvalues --    1.01053   1.01996   1.02271   1.02827   1.03745
 Alpha virt. eigenvalues --    1.04756   1.04763   1.05363   1.06381   1.06798
 Alpha virt. eigenvalues --    1.07690   1.08025   1.08088   1.09154   1.09456
 Alpha virt. eigenvalues --    1.09686   1.10535   1.11192   1.11973   1.12371
 Alpha virt. eigenvalues --    1.12720   1.13805   1.15007   1.16232   1.17867
 Alpha virt. eigenvalues --    1.18496   1.18627   1.19565   1.20626   1.20718
 Alpha virt. eigenvalues --    1.21590   1.23218   1.23829   1.24297   1.25586
 Alpha virt. eigenvalues --    1.25631   1.26421   1.26752   1.27736   1.28276
 Alpha virt. eigenvalues --    1.29136   1.29786   1.31426   1.31525   1.32918
 Alpha virt. eigenvalues --    1.33773   1.34179   1.34377   1.35666   1.35828
 Alpha virt. eigenvalues --    1.36421   1.36874   1.37127   1.38041   1.39153
 Alpha virt. eigenvalues --    1.39232   1.40888   1.41232   1.41415   1.42208
 Alpha virt. eigenvalues --    1.43499   1.43974   1.45200   1.45416   1.46376
 Alpha virt. eigenvalues --    1.46456   1.47704   1.47726   1.48872   1.49101
 Alpha virt. eigenvalues --    1.49601   1.51728   1.52248   1.52510   1.52639
 Alpha virt. eigenvalues --    1.52850   1.53884   1.54689   1.54727   1.56770
 Alpha virt. eigenvalues --    1.57079   1.57548   1.57667   1.58455   1.59695
 Alpha virt. eigenvalues --    1.60161   1.61589   1.62648   1.63016   1.64569
 Alpha virt. eigenvalues --    1.65608   1.65633   1.66955   1.67041   1.68693
 Alpha virt. eigenvalues --    1.68859   1.69942   1.70088   1.72422   1.72778
 Alpha virt. eigenvalues --    1.73541   1.73920   1.74359   1.74657   1.76312
 Alpha virt. eigenvalues --    1.77302   1.78359   1.80920   1.81182   1.82473
 Alpha virt. eigenvalues --    1.82688   1.84211   1.84480   1.84750   1.86108
 Alpha virt. eigenvalues --    1.87913   1.88541   1.89642   1.91070   1.91767
 Alpha virt. eigenvalues --    1.91930   1.92130   1.92646   1.94214   1.95476
 Alpha virt. eigenvalues --    1.96620   1.96874   1.98152   2.00203   2.03760
 Alpha virt. eigenvalues --    2.04827   2.06423   2.07694   2.09708   2.11817
 Alpha virt. eigenvalues --    2.14676   2.17526   2.17763   2.20308   2.20935
 Alpha virt. eigenvalues --    2.21625   2.22739   2.23233   2.24225   2.26078
 Alpha virt. eigenvalues --    2.26349   2.27850   2.28310   2.29826   2.32581
 Alpha virt. eigenvalues --    2.33553   2.35827   2.36221   2.38152   2.38329
 Alpha virt. eigenvalues --    2.38639   2.40947   2.42826   2.43635   2.46032
 Alpha virt. eigenvalues --    2.47929   2.50792   2.55402   2.55481   2.57644
 Alpha virt. eigenvalues --    2.60162   2.60180   2.62337   2.62908   2.65061
 Alpha virt. eigenvalues --    2.65531   2.66069   2.67278   2.67451   2.68721
 Alpha virt. eigenvalues --    2.69248   2.70268   2.71699   2.73288   2.73725
 Alpha virt. eigenvalues --    2.75027   2.75029   2.76364   2.77106   2.78810
 Alpha virt. eigenvalues --    2.80518   2.80732   2.81689   2.84130   2.84517
 Alpha virt. eigenvalues --    2.85348   2.85405   2.85985   2.87618   2.87637
 Alpha virt. eigenvalues --    2.89065   2.89429   2.89915   2.90134   2.90465
 Alpha virt. eigenvalues --    2.91600   2.92826   2.92922   2.94245   2.94964
 Alpha virt. eigenvalues --    2.95643   2.96080   2.96407   2.97815   2.99069
 Alpha virt. eigenvalues --    2.99473   3.00286   3.00302   3.01415   3.01775
 Alpha virt. eigenvalues --    3.02988   3.03970   3.04375   3.04450   3.05049
 Alpha virt. eigenvalues --    3.06385   3.06664   3.07532   3.08635   3.09450
 Alpha virt. eigenvalues --    3.10042   3.10353   3.11539   3.11828   3.12637
 Alpha virt. eigenvalues --    3.13125   3.13867   3.15332   3.15459   3.15934
 Alpha virt. eigenvalues --    3.16709   3.17595   3.18921   3.19307   3.20203
 Alpha virt. eigenvalues --    3.20965   3.21100   3.23556   3.23557   3.24808
 Alpha virt. eigenvalues --    3.25076   3.25191   3.25828   3.26457   3.27616
 Alpha virt. eigenvalues --    3.27631   3.28514   3.29067   3.29334   3.30050
 Alpha virt. eigenvalues --    3.30362   3.31769   3.33008   3.33535   3.34030
 Alpha virt. eigenvalues --    3.34810   3.35035   3.35035   3.36861   3.37486
 Alpha virt. eigenvalues --    3.38495   3.38559   3.39269   3.39710   3.40133
 Alpha virt. eigenvalues --    3.40860   3.41674   3.42038   3.43538   3.44758
 Alpha virt. eigenvalues --    3.44984   3.45560   3.46081   3.47081   3.47971
 Alpha virt. eigenvalues --    3.48068   3.48358   3.49410   3.49911   3.51150
 Alpha virt. eigenvalues --    3.53162   3.53285   3.53730   3.54482   3.54488
 Alpha virt. eigenvalues --    3.55289   3.55816   3.56346   3.57494   3.58259
 Alpha virt. eigenvalues --    3.58932   3.60215   3.60789   3.61966   3.63445
 Alpha virt. eigenvalues --    3.63741   3.64744   3.65523   3.65806   3.67406
 Alpha virt. eigenvalues --    3.67814   3.68526   3.68712   3.68938   3.69043
 Alpha virt. eigenvalues --    3.69320   3.70756   3.71305   3.72442   3.73697
 Alpha virt. eigenvalues --    3.74810   3.75604   3.75853   3.76167   3.76532
 Alpha virt. eigenvalues --    3.78087   3.78352   3.78505   3.79829   3.81010
 Alpha virt. eigenvalues --    3.82023   3.82086   3.82639   3.83262   3.85302
 Alpha virt. eigenvalues --    3.85712   3.86015   3.87407   3.87603   3.88909
 Alpha virt. eigenvalues --    3.89356   3.91720   3.92710   3.94186   3.94464
 Alpha virt. eigenvalues --    3.94922   3.96388   3.97023   3.98211   3.99066
 Alpha virt. eigenvalues --    3.99514   4.00884   4.02019   4.02491   4.03478
 Alpha virt. eigenvalues --    4.04651   4.06036   4.06716   4.08478   4.08620
 Alpha virt. eigenvalues --    4.08751   4.10846   4.12199   4.13907   4.14176
 Alpha virt. eigenvalues --    4.15025   4.15427   4.16021   4.16549   4.16830
 Alpha virt. eigenvalues --    4.17717   4.19188   4.19930   4.19956   4.20686
 Alpha virt. eigenvalues --    4.20856   4.21053   4.21168   4.22644   4.23338
 Alpha virt. eigenvalues --    4.23704   4.24023   4.24615   4.25745   4.26245
 Alpha virt. eigenvalues --    4.26691   4.27137   4.29487   4.30347   4.30548
 Alpha virt. eigenvalues --    4.31372   4.32088   4.32951   4.32985   4.33348
 Alpha virt. eigenvalues --    4.33834   4.34508   4.35490   4.35737   4.36942
 Alpha virt. eigenvalues --    4.38283   4.39206   4.40081   4.41308   4.43936
 Alpha virt. eigenvalues --    4.44923   4.45500   4.45990   4.46478   4.47451
 Alpha virt. eigenvalues --    4.49089   4.50723   4.51705   4.51933   4.54689
 Alpha virt. eigenvalues --    4.55969   4.56210   4.57280   4.59075   4.63239
 Alpha virt. eigenvalues --    4.64337   4.66410   4.67564   4.70769   4.71612
 Alpha virt. eigenvalues --    4.74479   4.74984   4.75274   4.76868   4.78457
 Alpha virt. eigenvalues --    4.79415   4.81060   4.81415   4.83006   4.83779
 Alpha virt. eigenvalues --    4.85869   4.87843   4.89364   4.89881   4.91593
 Alpha virt. eigenvalues --    4.91631   4.93345   4.94030   4.95864   4.98830
 Alpha virt. eigenvalues --    4.99970   5.03155   5.04494   5.05197   5.05339
 Alpha virt. eigenvalues --    5.05490   5.07475   5.08283   5.09634   5.09738
 Alpha virt. eigenvalues --    5.11909   5.12494   5.13524   5.15542   5.17094
 Alpha virt. eigenvalues --    5.17609   5.18406   5.19144   5.20227   5.20426
 Alpha virt. eigenvalues --    5.22396   5.22479   5.23621   5.24102   5.25953
 Alpha virt. eigenvalues --    5.26347   5.26438   5.28210   5.28481   5.28708
 Alpha virt. eigenvalues --    5.30614   5.31225   5.32539   5.32599   5.33522
 Alpha virt. eigenvalues --    5.34102   5.34928   5.35669   5.36778   5.37503
 Alpha virt. eigenvalues --    5.38001   5.39128   5.39310   5.41052   5.41821
 Alpha virt. eigenvalues --    5.42664   5.44051   5.48048   5.48764   5.49176
 Alpha virt. eigenvalues --    5.50325   5.52250   5.53151   5.53373   5.54024
 Alpha virt. eigenvalues --    5.55701   5.56201   5.56997   5.61152   5.62600
 Alpha virt. eigenvalues --    5.63146   5.63273   5.64388   5.66405   5.66683
 Alpha virt. eigenvalues --    5.67809   5.68908   5.70779   5.72029   5.73663
 Alpha virt. eigenvalues --    5.74296   5.75169   5.75838   5.75980   5.77223
 Alpha virt. eigenvalues --    5.78187   5.78410   5.79777   5.81158   5.81336
 Alpha virt. eigenvalues --    5.83664   5.87138   5.90195   5.91601   6.04233
 Alpha virt. eigenvalues --    6.06081   6.07888   6.11909   6.14488   6.14652
 Alpha virt. eigenvalues --    6.22724   6.25097   6.28796   6.30125   6.31920
 Alpha virt. eigenvalues --    6.32386   6.52303   6.58492   6.78833   6.95013
 Alpha virt. eigenvalues --    6.97184   7.21758   7.26616  22.92706  23.13132
 Alpha virt. eigenvalues --   23.29365  23.41253  23.43290  23.51601  23.67956
 Alpha virt. eigenvalues --   23.71948  23.76027  23.79065  23.80769  32.85055
 Alpha virt. eigenvalues --   32.89908  33.08220  33.60353  39.77968  41.04560
 Alpha virt. eigenvalues --   44.12738  59.53388 363.31868
          Condensed to atoms (all electrons):
               1          2          3          4          5          6
     1  C    5.599651  -0.190782  -0.056136   0.125498   0.035046  -0.013315
     2  C   -0.190782   5.599651   0.125498  -0.056136   0.035046  -0.006275
     3  C   -0.056136   0.125498   6.128241  -0.309774   0.251581   0.384253
     4  C    0.125498  -0.056136  -0.309774   6.128241   0.251581   0.023101
     5  C    0.035046   0.035046   0.251581   0.251581   4.539783  -0.032157
     6  H   -0.013315  -0.006275   0.384253   0.023101  -0.032157   0.533360
     7  H   -0.006275  -0.013315   0.023101   0.384253  -0.032157  -0.000204
     8  O    0.031525   0.031525  -0.156143  -0.156143   0.671963   0.008212
     9  N    0.396911   0.396911  -0.080709  -0.080709  -0.001289   0.003426
    10  C    0.204138  -0.000177  -0.014367   0.003177  -0.004495  -0.002203
    11  H   -0.035130   0.001504  -0.002764  -0.000124  -0.000181   0.000090
    12  H   -0.054415  -0.000401  -0.001346  -0.000154   0.001181   0.000389
    13  C   -0.000177   0.204138   0.003177  -0.014367  -0.004495   0.000143
    14  H    0.001504  -0.035130  -0.000124  -0.002764  -0.000181   0.000002
    15  H   -0.000401  -0.054415  -0.000154  -0.001346   0.001181  -0.000004
    16  N   -0.038198   0.004203  -0.002599   0.000431   0.000144   0.000179
    17  N    0.004203  -0.038198   0.000431  -0.002599   0.000144  -0.000004
    18  C    0.014138   0.000314   0.000385  -0.000018  -0.000061  -0.000040
    19  H   -0.000678  -0.000009   0.000034   0.000002  -0.000001   0.000000
    20  H    0.001467  -0.000012  -0.000010  -0.000003   0.000002   0.000013
    21  H   -0.001545   0.000027  -0.000167   0.000003   0.000002  -0.000004
    22  C    0.003228  -0.000059   0.004535  -0.000034  -0.000240  -0.000035
    23  H   -0.004547  -0.000102  -0.000461   0.000021  -0.000011   0.000016
    24  H   -0.000286   0.000071  -0.000272  -0.000014   0.000017  -0.000003
    25  H    0.013724  -0.000200   0.005950   0.000151  -0.000273   0.000115
    26  C    0.000314   0.014138  -0.000018   0.000385  -0.000061   0.000001
    27  H   -0.000012   0.001467  -0.000003  -0.000010   0.000002  -0.000000
    28  H   -0.000009  -0.000678   0.000002   0.000034  -0.000001  -0.000000
    29  H    0.000027  -0.001545   0.000003  -0.000167   0.000002   0.000000
    30  C   -0.000059   0.003228  -0.000034   0.004535  -0.000240   0.000001
    31  H    0.000071  -0.000286  -0.000014  -0.000272   0.000017  -0.000000
    32  H   -0.000102  -0.004547   0.000021  -0.000461  -0.000011   0.000000
    33  H   -0.000200   0.013724   0.000151   0.005950  -0.000273   0.000002
    34  Ir  -0.104832  -0.104832   0.003955   0.003955  -0.002714   0.000057
               7          8          9         10         11         12
     1  C   -0.006275   0.031525   0.396911   0.204138  -0.035130  -0.054415
     2  C   -0.013315   0.031525   0.396911  -0.000177   0.001504  -0.000401
     3  C    0.023101  -0.156143  -0.080709  -0.014367  -0.002764  -0.001346
     4  C    0.384253  -0.156143  -0.080709   0.003177  -0.000124  -0.000154
     5  C   -0.032157   0.671963  -0.001289  -0.004495  -0.000181   0.001181
     6  H   -0.000204   0.008212   0.003426  -0.002203   0.000090   0.000389
     7  H    0.533360   0.008212   0.003426   0.000143   0.000002  -0.000004
     8  O    0.008212   8.115156   0.000987  -0.000662  -0.000006   0.000012
     9  N    0.003426   0.000987   6.276724  -0.016975  -0.005242   0.003739
    10  C    0.000143  -0.000662  -0.016975   4.938784   0.439986   0.441067
    11  H    0.000002  -0.000006  -0.005242   0.439986   0.539404  -0.016543
    12  H   -0.000004   0.000012   0.003739   0.441067  -0.016543   0.537639
    13  C   -0.002203  -0.000662  -0.016975   0.000539   0.000044   0.000038
    14  H    0.000090  -0.000006  -0.005242   0.000044  -0.000058  -0.000001
    15  H    0.000389   0.000012   0.003739   0.000038  -0.000001  -0.000001
    16  N   -0.000004   0.000005  -0.012948   0.265874  -0.039259  -0.025363
    17  N    0.000179   0.000005  -0.012948  -0.000148   0.000127  -0.000052
    18  C    0.000001  -0.000001  -0.002740  -0.048476  -0.004669  -0.006612
    19  H   -0.000000   0.000000   0.000026   0.010241   0.000468  -0.000593
    20  H   -0.000000   0.000000   0.000119  -0.011410  -0.002874   0.005423
    21  H    0.000000  -0.000000  -0.000267  -0.007079   0.002895  -0.000211
    22  C    0.000001   0.000005  -0.004324  -0.036051   0.006384  -0.012980
    23  H    0.000000   0.000000   0.000589  -0.009717  -0.000307   0.006333
    24  H   -0.000000   0.000000  -0.000051   0.008785  -0.000194  -0.000110
    25  H    0.000002  -0.000005  -0.004481  -0.014281   0.000432  -0.003315
    26  C   -0.000040  -0.000001  -0.002740  -0.000103  -0.000006   0.000002
    27  H    0.000013   0.000000   0.000119  -0.000000  -0.000000  -0.000000
    28  H    0.000000   0.000000   0.000026   0.000000   0.000001   0.000000
    29  H   -0.000004  -0.000000  -0.000267  -0.000044  -0.000001  -0.000000
    30  C   -0.000035   0.000005  -0.004324  -0.000007  -0.000001  -0.000002
    31  H   -0.000003   0.000000  -0.000051   0.000013   0.000000   0.000001
    32  H    0.000016   0.000000   0.000589  -0.000007   0.000000   0.000000
    33  H    0.000115  -0.000005  -0.004481   0.000122  -0.000002  -0.000003
    34  Ir   0.000057   0.000097   0.311639  -0.052086  -0.007509   0.012308
              13         14         15         16         17         18
     1  C   -0.000177   0.001504  -0.000401  -0.038198   0.004203   0.014138
     2  C    0.204138  -0.035130  -0.054415   0.004203  -0.038198   0.000314
     3  C    0.003177  -0.000124  -0.000154  -0.002599   0.000431   0.000385
     4  C   -0.014367  -0.002764  -0.001346   0.000431  -0.002599  -0.000018
     5  C   -0.004495  -0.000181   0.001181   0.000144   0.000144  -0.000061
     6  H    0.000143   0.000002  -0.000004   0.000179  -0.000004  -0.000040
     7  H   -0.002203   0.000090   0.000389  -0.000004   0.000179   0.000001
     8  O   -0.000662  -0.000006   0.000012   0.000005   0.000005  -0.000001
     9  N   -0.016975  -0.005242   0.003739  -0.012948  -0.012948  -0.002740
    10  C    0.000539   0.000044   0.000038   0.265874  -0.000148  -0.048476
    11  H    0.000044  -0.000058  -0.000001  -0.039259   0.000127  -0.004669
    12  H    0.000038  -0.000001  -0.000001  -0.025363  -0.000052  -0.006612
    13  C    4.938784   0.439986   0.441067  -0.000148   0.265874  -0.000103
    14  H    0.439986   0.539404  -0.016543   0.000127  -0.039259  -0.000006
    15  H    0.441067  -0.016543   0.537639  -0.000052  -0.025363   0.000002
    16  N   -0.000148   0.000127  -0.000052   6.349957  -0.008166   0.255737
    17  N    0.265874  -0.039259  -0.025363  -0.008166   6.349957   0.000616
    18  C   -0.000103  -0.000006   0.000002   0.255737   0.000616   4.841904
    19  H    0.000000   0.000001   0.000000  -0.032697   0.000050   0.417747
    20  H   -0.000000  -0.000000  -0.000000  -0.018565  -0.000016   0.404510
    21  H   -0.000044  -0.000001  -0.000000  -0.036063   0.000062   0.427682
    22  C   -0.000007  -0.000001  -0.000002   0.261260   0.000467  -0.046524
    23  H   -0.000007   0.000000   0.000000  -0.023363  -0.000035  -0.009593
    24  H    0.000013   0.000000   0.000001  -0.031975   0.000150  -0.007334
    25  H    0.000122  -0.000002  -0.000003  -0.030962   0.000266   0.008228
    26  C   -0.048476  -0.004669  -0.006612   0.000616   0.255737  -0.000147
    27  H   -0.011410  -0.002874   0.005423  -0.000016  -0.018565   0.000004
    28  H    0.010241   0.000468  -0.000593   0.000050  -0.032697  -0.000019
    29  H   -0.007079   0.002895  -0.000211   0.000062  -0.036063  -0.000018
    30  C   -0.036051   0.006384  -0.012980   0.000467   0.261260  -0.000022
    31  H    0.008785  -0.000194  -0.000110   0.000150  -0.031975  -0.000015
    32  H   -0.009717  -0.000307   0.006333  -0.000035  -0.023363   0.000000
    33  H   -0.014281   0.000432  -0.003315   0.000266  -0.030962  -0.000009
    34  Ir  -0.052086  -0.007509   0.012308   0.186169   0.186169  -0.069426
              19         20         21         22         23         24
     1  C   -0.000678   0.001467  -0.001545   0.003228  -0.004547  -0.000286
     2  C   -0.000009  -0.000012   0.000027  -0.000059  -0.000102   0.000071
     3  C    0.000034  -0.000010  -0.000167   0.004535  -0.000461  -0.000272
     4  C    0.000002  -0.000003   0.000003  -0.000034   0.000021  -0.000014
     5  C   -0.000001   0.000002   0.000002  -0.000240  -0.000011   0.000017
     6  H    0.000000   0.000013  -0.000004  -0.000035   0.000016  -0.000003
     7  H   -0.000000  -0.000000   0.000000   0.000001   0.000000  -0.000000
     8  O    0.000000   0.000000  -0.000000   0.000005   0.000000   0.000000
     9  N    0.000026   0.000119  -0.000267  -0.004324   0.000589  -0.000051
    10  C    0.010241  -0.011410  -0.007079  -0.036051  -0.009717   0.008785
    11  H    0.000468  -0.002874   0.002895   0.006384  -0.000307  -0.000194
    12  H   -0.000593   0.005423  -0.000211  -0.012980   0.006333  -0.000110
    13  C    0.000000  -0.000000  -0.000044  -0.000007  -0.000007   0.000013
    14  H    0.000001  -0.000000  -0.000001  -0.000001   0.000000   0.000000
    15  H    0.000000  -0.000000  -0.000000  -0.000002   0.000000   0.000001
    16  N   -0.032697  -0.018565  -0.036063   0.261260  -0.023363  -0.031975
    17  N    0.000050  -0.000016   0.000062   0.000467  -0.000035   0.000150
    18  C    0.417747   0.404510   0.427682  -0.046524  -0.009593  -0.007334
    19  H    0.556023  -0.021293  -0.019010  -0.007908  -0.001783   0.003382
    20  H   -0.021293   0.549440  -0.020790  -0.009940   0.006731  -0.001378
    21  H   -0.019010  -0.020790   0.543481   0.008129  -0.000285   0.000067
    22  C   -0.007908  -0.009940   0.008129   4.841981   0.406465   0.420469
    23  H   -0.001783   0.006731  -0.000285   0.406465   0.556388  -0.020452
    24  H    0.003382  -0.001378   0.000067   0.420469  -0.020452   0.544606
    25  H    0.000265  -0.000496  -0.000192   0.424487  -0.021158  -0.017144
    26  C   -0.000019   0.000004  -0.000018  -0.000022   0.000000  -0.000015
    27  H    0.000000  -0.000000   0.000000   0.000001   0.000000   0.000000
    28  H   -0.000003   0.000000  -0.000001   0.000001  -0.000000  -0.000003
    29  H   -0.000001   0.000000  -0.000010  -0.000009   0.000000   0.000000
    30  C    0.000001   0.000001  -0.000009  -0.000269   0.000016   0.000060
    31  H   -0.000003   0.000000   0.000000   0.000060  -0.000001   0.000004
    32  H   -0.000000   0.000000   0.000000   0.000016  -0.000000  -0.000001
    33  H    0.000002   0.000000  -0.000002   0.000014  -0.000007   0.000012
    34  Ir  -0.010587   0.013806  -0.003245  -0.055528   0.015594  -0.007422
              25         26         27         28         29         30
     1  C    0.013724   0.000314  -0.000012  -0.000009   0.000027  -0.000059
     2  C   -0.000200   0.014138   0.001467  -0.000678  -0.001545   0.003228
     3  C    0.005950  -0.000018  -0.000003   0.000002   0.000003  -0.000034
     4  C    0.000151   0.000385  -0.000010   0.000034  -0.000167   0.004535
     5  C   -0.000273  -0.000061   0.000002  -0.000001   0.000002  -0.000240
     6  H    0.000115   0.000001  -0.000000  -0.000000   0.000000   0.000001
     7  H    0.000002  -0.000040   0.000013   0.000000  -0.000004  -0.000035
     8  O   -0.000005  -0.000001   0.000000   0.000000  -0.000000   0.000005
     9  N   -0.004481  -0.002740   0.000119   0.000026  -0.000267  -0.004324
    10  C   -0.014281  -0.000103  -0.000000   0.000000  -0.000044  -0.000007
    11  H    0.000432  -0.000006  -0.000000   0.000001  -0.000001  -0.000001
    12  H   -0.003315   0.000002  -0.000000   0.000000  -0.000000  -0.000002
    13  C    0.000122  -0.048476  -0.011410   0.010241  -0.007079  -0.036051
    14  H   -0.000002  -0.004669  -0.002874   0.000468   0.002895   0.006384
    15  H   -0.000003  -0.006612   0.005423  -0.000593  -0.000211  -0.012980
    16  N   -0.030962   0.000616  -0.000016   0.000050   0.000062   0.000467
    17  N    0.000266   0.255737  -0.018565  -0.032697  -0.036063   0.261260
    18  C    0.008228  -0.000147   0.000004  -0.000019  -0.000018  -0.000022
    19  H    0.000265  -0.000019   0.000000  -0.000003  -0.000001   0.000001
    20  H   -0.000496   0.000004  -0.000000   0.000000   0.000000   0.000001
    21  H   -0.000192  -0.000018   0.000000  -0.000001  -0.000010  -0.000009
    22  C    0.424487  -0.000022   0.000001   0.000001  -0.000009  -0.000269
    23  H   -0.021158   0.000000   0.000000  -0.000000   0.000000   0.000016
    24  H   -0.017144  -0.000015   0.000000  -0.000003   0.000000   0.000060
    25  H    0.531252  -0.000009   0.000000   0.000002  -0.000002   0.000014
    26  C   -0.000009   4.841904   0.404510   0.417747   0.427682  -0.046524
    27  H    0.000000   0.404510   0.549440  -0.021293  -0.020790  -0.009940
    28  H    0.000002   0.417747  -0.021293   0.556023  -0.019010  -0.007908
    29  H   -0.000002   0.427682  -0.020790  -0.019010   0.543481   0.008129
    30  C    0.000014  -0.046524  -0.009940  -0.007908   0.008129   4.841981
    31  H    0.000012  -0.007334  -0.001378   0.003382   0.000067   0.420469
    32  H   -0.000007  -0.009593   0.006731  -0.001783  -0.000285   0.406465
    33  H    0.000221   0.008228  -0.000496   0.000265  -0.000192   0.424487
    34  Ir  -0.017700  -0.069426   0.013806  -0.010587  -0.003245  -0.055528
              31         32         33         34
     1  C    0.000071  -0.000102  -0.000200  -0.104832
[...]
 00000047,0.00000049,-0.00000201,0.00000047,0.00000132,0.00000542,0.000
 00485,0.00000829,-0.00000969,0.00000516,-0.00000546,0.00000393,0.00000
 503,-0.00000294,0.00000592,0.00000029,-0.00000337,-0.00000286,0.000000
 16,0.00353914,-0.04956016,-0.00037686,-0.00801874,-0.00002466,0.003028
 17,0.02676917,0.00280640,-0.00939241,0.00689882,0.05311410,0.00001701,
 -0.00005441,-0.00006054,-0.00012509,0.00016596,0.00013148,-0.00000308,
 0.00007486,-0.00004621,-0.00000402,0.00000881,-0.00002400,0.00001582,-
 0.00005169,0.00006288,-0.00000368,0.00000688,-0.00000102,-0.00000230,0
 .00000936,-0.00000377,-0.00000214,0.00006474,-0.00001783,-0.00005587,-
 0.00006579,0.00000538,0.00001912,-0.00003668,-0.00002241,-0.00000297,0
 .00000162,-0.00000116,0.00000276,0.00000745,0.00000926,-0.00050665,0.0
 0075343,-0.00013969,0.00007452,0.00020093,0.00025629,0.00011856,-0.000
 08771,0.00002386,0.00021453,-0.00000627,-0.00005084,-0.02266963,-0.001
 87327,0.00381397,0.00000927,0.00001477,-0.00002841,-0.00000140,0.00000
 266,-0.00000361,0.00000114,0.00000281,0.00002012,-0.00000581,-0.000004
 85,-0.00002013,-0.00001792,0.00001625,0.00005207,0.00001376,0.00000549
 ,0.00004569,-0.00000529,0.00001171,-0.00000038,-0.00000670,-0.00001083
 ,0.00000748,0.08875255,0.00154005,-0.07558379,0.02830963,-0.00044846,-
 0.00712414,-0.00541267,0.00003151,0.00125253,-0.08599874,0.00306601,0.
 07833252,-0.00001017,0.00009203,-0.00004284,0.00130513,0.00012729,0.00
 187476,-0.00002728,-0.00014870,0.00001152,-0.00020864,-0.00091242,-0.0
 0121791,-0.00013653,0.00066133,0.00052805,0.00003251,-0.00003822,-0.00
 004577,0.00008749,-0.00000311,0.00003774,-0.00002913,-0.00084460,-0.00
 016432,-0.00058054,0.00078031,-0.00037710,-0.00025810,0.00039603,-0.00
 015495,0.00002281,-0.00000113,-0.00001402,0.00003267,-0.00015711,-0.00
 011462,-0.02434660,0.01155321,0.00390866,0.00025845,0.00108919,0.00073
 950,0.00097796,-0.00282951,0.00093048,0.00009092,-0.00014170,-0.002086
 02,-0.18285671,0.00123063,0.01403392,-0.00032213,-0.00046385,-0.000099
 13,-0.00000247,0.00003624,0.00001503,0.00008291,0.00009760,-0.00027412
 ,0.00001357,0.00000829,0.00001792,0.00059783,-0.00002829,-0.00010146,-
 0.00015934,-0.00005655,-0.00019582,-0.00002417,0.00002015,-0.00000132,
 -0.00003380,-0.00001864,0.00000063,-0.03201611,-0.00920663,0.00368138,
 0.00178046,0.00187420,0.00185781,0.00117893,0.00168495,0.00090502,-0.0
 0026413,-0.00127658,-0.00081730,0.48948751,-0.00002987,-0.00011095,-0.
 00010458,0.00143142,0.00021733,0.00077968,-0.00002204,0.00006072,-0.00
 010504,-0.00017667,-0.00020253,-0.00047057,-0.00007283,0.00021467,0.00
 037756,-0.00000304,-0.00000190,-0.00001565,0.00004427,0.00001338,0.000
 02644,-0.00000143,-0.00022698,-0.00010268,0.00029873,-0.00009568,-0.00
 052987,0.00005517,-0.00009200,-0.00000045,0.00000130,0.00001442,-0.000
 00635,0.00000012,0.00001065,-0.00000640,0.03754101,-0.00481970,-0.0067
 3040,0.00318932,-0.00553625,-0.00012068,0.00157313,0.00068464,-0.00112
 152,0.00062321,0.00018453,0.00013214,-0.00509138,-0.09367041,-0.003180
 45,-0.00000706,0.00004996,-0.00007788,-0.00000433,-0.00001014,0.000004
 11,0.00001958,0.00000435,0.00000777,0.00000887,-0.00000969,-0.00001625
 ,-0.00002829,0.00010398,0.00017134,0.00005651,-0.00000895,0.00004691,-
 0.00000073,-0.00000513,0.00001071,-0.00000946,-0.00001274,-0.00001261,
 -0.02907264,-0.00170020,0.00667708,0.00065068,0.00055719,0.00039811,-0
 .00169594,0.00033493,0.00007333,-0.00336960,-0.00335697,-0.00248490,-0
 .00216370,0.63119666,-0.00001355,0.00000148,-0.00002826,0.00065154,-0.
 00092105,-0.00128945,-0.00001257,-0.00001636,0.00015552,-0.00007515,0.
 00017839,0.00051210,-0.00000846,-0.00025777,-0.00031746,0.00000662,0.0
 0000273,0.00002064,-0.00003061,-0.00000963,-0.00000955,0.00001808,0.00
 024473,0.00009196,0.00023491,-0.00046710,-0.00008645,-0.00009789,0.000
 22771,0.00022949,0.00002104,-0.00002284,0.00004235,-0.00000579,0.00002
 624,0.00001500,-0.00462006,0.00170243,-0.00113081,-0.00155405,0.001834
 92,-0.00011828,-0.00284911,0.00182742,0.00177914,-0.00308324,0.0000757
 3,-0.00040125,0.05265684,-0.00709895,-0.08569842,-0.00011869,-0.000046
 88,0.00039219,-0.00000773,0.00001479,-0.00002646,-0.00001091,-0.000039
 07,0.00006674,0.00002998,-0.00000516,0.00005207,0.00010146,-0.00017134
 ,-0.00094712,-0.00028029,-0.00004157,-0.00016412,0.00004554,-0.0000117
 2,-0.00002556,0.00002158,-0.00002243,-0.00001605,-0.02049257,-0.000824
 80,0.00283965,-0.00315381,-0.00135273,0.00089880,0.00004875,0.00050153
 ,0.00028265,-0.00294656,-0.00241869,-0.00143252,0.05454061,0.00950965,
 0.56781839,-0.00003522,-0.00007318,-0.00002084,-0.00027088,-0.00011248
 ,-0.00047773,-0.00000931,0.00001119,0.00005999,0.00011639,0.00003851,0
 .00024002,0.00001581,-0.00001465,-0.00006797,0.00000161,-0.00000279,0.
 00000680,-0.00002369,-0.00000645,-0.00000917,0.00000345,0.00004314,0.0
 0003305,0.00020301,0.00026444,-0.00008561,-0.00000295,0.00000561,0.000
 02925,0.00000292,0.00000213,0.00000984,-0.00000435,-0.00000095,0.00000
 514,-0.00574925,-0.00187752,0.00103139,-0.00080821,0.00184986,0.000001
 53,0.00003767,-0.00017856,-0.00002809,-0.00007361,0.00004727,0.0002396
 8,-0.01811597,0.03122508,-0.00430740,0.00000455,0.00002584,0.00001830,
 0.00000018,-0.00000696,0.00000373,-0.00000583,-0.00001047,0.00000783,-
 0.00000421,-0.00000294,0.00000529,-0.00002417,-0.00000073,-0.00004554,
 -0.00000730,-0.00000411,-0.00000063,0.00001283,0.00000028,-0.00000207,
 0.00000401,-0.00000390,0.00000184,0.00106580,0.00225840,0.00014342,-0.
 00008820,-0.00019283,-0.00004901,-0.00045177,-0.00078584,-0.00007426,0
 .00030026,-0.00015521,0.00022663,-0.08978892,0.09019318,-0.02232641,0.
 10474590,-0.00008228,-0.00004390,-0.00010268,0.00007644,0.00025595,0.0
 0061656,0.00002253,0.00011000,-0.00007752,-0.00000379,-0.00000576,-0.0
 0015820,-0.00001761,0.00001796,0.00017968,0.00001808,0.00000602,-0.000
 00904,-0.00000376,0.00001910,-0.00000114,0.00000574,-0.00000683,-0.000
 05544,-0.00028880,0.00008442,0.00009769,-0.00000322,-0.00002058,-0.000
 04564,0.00000086,-0.00000097,-0.00001619,0.00001034,0.00000019,-0.0000
 0079,-0.00005730,0.00125070,-0.00013591,0.00015353,0.00001287,-0.00012
 397,-0.00012680,0.00024730,-0.00031247,-0.00001641,-0.00009427,-0.0001
 3305,-0.00092903,0.00064644,-0.00093849,-0.00000695,-0.00001075,-0.000
 00319,0.00000309,0.00000459,0.00000089,0.00000484,0.00000343,-0.000000
 24,0.00000399,0.00000592,-0.00001171,0.00002015,-0.00000513,0.00001172
 ,0.00000280,-0.00000025,-0.00000676,0.00000028,0.00000522,-0.00000208,
 0.00000204,-0.00000469,-0.00000190,-0.00101074,0.00074548,-0.00004531,
 0.00002742,-0.00015969,-0.00000206,-0.00005647,0.00031138,0.00016276,0
 .00008950,0.00032831,-0.00007699,0.09942864,-0.27164621,0.05216210,-0.
 10682916,0.28769108,-0.00001926,-0.00001037,0.00001381,-0.00036802,0.0
 0019005,0.00024294,0.00000720,0.00002487,-0.00003187,0.00007435,0.0000
 4370,-0.00006998,0.00001983,-0.00000329,0.00004126,0.00000113,0.000000
 38,-0.00000222,0.00000083,0.00000137,0.00000154,-0.00001092,-0.0000016
 7,-0.00001461,-0.00007948,0.00000380,0.00002363,0.00001455,-0.00001650
 ,0.00001757,-0.00000217,0.00000100,-0.00000450,0.00000024,0.00001165,0
 .00000314,0.00183610,0.00109324,0.00011372,0.00031013,-0.00063959,0.00
 041200,-0.00001120,-0.00038554,0.00035461,-0.00008732,0.00012161,-0.00
 002505,0.00620693,-0.01123406,0.00071606,-0.00000186,0.00000037,-0.000
 00860,-0.00000052,0.00000059,-0.00000390,0.00000775,0.00000029,0.00000
 547,0.00000528,-0.00000029,-0.00000038,0.00000132,-0.00001071,-0.00002
 556,-0.00000177,0.00000106,0.00000558,0.00000207,0.00000208,-0.0000170
 4,0.00000020,-0.00000417,0.00000018,-0.00051626,0.00007653,-0.00023725
 ,0.00011818,0.00021090,-0.00002033,-0.00027226,-0.00007249,0.00016513,
 0.00004882,-0.00011605,-0.00010531,-0.02516259,0.05524982,-0.06116329,
 0.02174089,-0.05710317,0.06142001,0.00000357,0.00002872,0.00004025,0.0
 0002633,0.00022209,-0.00018522,-0.00000687,-0.00000950,-0.00002700,0.0
 0000448,0.00009289,0.00007285,0.00001790,-0.00002200,-0.00003809,-0.00
 000700,0.00000351,0.00000293,0.00000280,0.00000780,0.00000052,-0.00000
 159,0.00004983,0.00000882,0.00009556,-0.00028630,-0.00010164,0.0000863
 9,-0.00016628,-0.00002088,-0.00001324,0.00001252,-0.00000018,-0.000008
 09,0.00002830,0.00001390,0.00088962,-0.00309843,0.00202634,0.00022214,
 -0.00008885,-0.00020764,0.00028549,0.00059830,-0.00063169,0.00091175,0
 .00002333,0.00063922,-0.01346455,-0.00574781,0.03700290,0.00011071,0.0
 0011986,-0.00009159,0.00000097,-0.00001030,0.00000343,-0.00002437,-0.0
 0001139,0.00004173,-0.00002241,-0.00000546,-0.00001376,-0.00015934,0.0
 0005651,0.00028029,0.00010602,0.00002240,0.00009232,-0.00000730,0.0000
 0280,0.00000177,-0.00000010,0.00000188,0.00000225,0.00165998,0.0010926
 5,0.00339433,-0.00013008,0.00010321,-0.00101153,-0.00010439,-0.0000750
 0,-0.00026980,0.00021536,0.00017801,-0.00038998,-0.05071094,-0.0000174
 8,0.00111379,0.00127718,0.00067645,-0.01219784,0.05961028,-0.00002856,
 -0.00000597,-0.00000566,-0.00002825,-0.00031386,-0.00018387,0.00001867
 ,0.00003717,-0.00002044,0.00000813,0.00016988,0.00010960,-0.00002485,-
 0.00013477,-0.00008100,0.00000439,0.00000800,0.00000709,0.00002001,-0.
 00001221,-0.00000026,0.00000880,0.00014300,0.00002256,-0.00022851,-0.0
 0013264,0.00041139,0.00000743,-0.00002766,-0.00003572,-0.00000381,-0.0
 0000621,-0.00000348,0.00000151,0.00000842,0.00001364,0.00047792,0.0009
 5975,-0.00214193,-0.00010593,0.00001015,0.00005960,0.00022511,-0.00006
 851,0.00021445,0.00011560,-0.00015060,0.00014122,-0.00089475,-0.000689
 80,0.00047166,0.00004479,0.00003063,-0.00000917,0.00000481,-0.00000045
 ,0.00000304,-0.00001602,-0.00000474,0.00001887,-0.00001153,0.00000393,
 -0.00000549,-0.00005655,-0.00000895,0.00004157,0.00002240,0.00001323,0
 .00001890,-0.00000411,-0.00000025,-0.00000106,0.00000380,0.00000585,-0
 .00000068,-0.00016589,0.00014697,0.00130283,-0.00032041,-0.00001681,-0
 .00014305,0.00011492,-0.00008119,0.00010274,0.00007886,-0.00006594,-0.
 00022342,-0.00090084,-0.05980062,0.04318546,-0.00139651,-0.00275072,0.
 02747657,0.00156750,0.05595534,0.00009080,0.00008971,0.00015837,-0.000
 01757,0.00017007,-0.00015611,-0.00002340,-0.00018088,0.00009124,-0.000
 04937,-0.00020342,-0.00013969,0.00001931,0.00036895,0.00000508,-0.0000
 1092,-0.00002434,-0.00001185,0.00001525,-0.00003366,0.00001467,-0.0000
 2815,-0.00038555,0.00000526,-0.00006300,0.00017479,0.00007027,-0.00007
 751,0.00018039,0.00005540,0.00000280,0.00000625,0.00001860,-0.00000427
 ,-0.00004421,-0.00003832,-0.00110810,0.00095262,0.00060070,-0.00009825
 ,-0.00022762,0.00035191,0.00051970,-0.00097871,0.00045919,-0.00048063,
 0.00009678,-0.00034153,0.00653047,0.00213344,-0.01292822,-0.00010467,-
 0.00015414,0.00005773,-0.00000433,0.00001272,0.00000826,0.00000707,0.0
 0001181,-0.00008724,-0.00001023,-0.00000503,0.00004569,0.00019582,-0.0
 0004691,-0.00016412,-0.00009232,-0.00001890,-0.00006895,0.00000063,0.0
 0000676,0.00000558,-0.00000288,-0.00000432,0.00001565,-0.00129626,-0.0
 0089423,0.00164699,0.00062995,0.00072818,0.00041143,0.00005054,0.00006
 096,-0.00014668,-0.00005422,-0.00003252,0.00041197,0.00641108,0.042794
 44,-0.29286527,-0.00034004,-0.00013773,-0.00466818,-0.01398717,-0.0483
 5052,0.32009087,-0.00003960,0.00008209,0.00010394,-0.00036037,0.000681
 22,0.00025895,-0.00001594,-0.00004073,-0.00004502,0.00006127,0.0000754
 9,-0.00004277,0.00000048,0.00022149,0.00007930,0.00000459,-0.00000272,
 -0.00001220,0.00000839,-0.00000732,0.00000631,-0.00001090,-0.00016894,
 -0.00002622,-0.00004117,-0.00013844,0.00024297,0.00002956,-0.00003725,
 0.00002247,-0.00000386,0.00001434,-0.00000303,-0.00000781,0.00001413,-
 0.00000540,0.00080894,-0.00156089,-0.00057565,0.00022517,-0.00012847,-
 0.00001932,-0.00012077,0.00022499,-0.00017472,-0.00000959,0.00003017,0
 .00026969,-0.02138134,-0.02547736,-0.01579707,0.00001515,0.00001951,0.
 00000695,0.00000423,0.00000035,0.00000602,-0.00002166,-0.00001235,-0.0
 0000503,-0.00002057,-0.00000337,0.00000670,-0.00003380,-0.00000946,-0.
 00002158,-0.00000010,0.00000380,0.00000288,0.00000401,0.00000204,-0.00
 000020,0.00001620,-0.00000055,0.00000653,-0.00565892,0.00180013,0.0031
 6530,0.00005533,0.00013983,-0.00004078,0.00025202,-0.00008886,0.000148
 80,-0.00105830,-0.00136288,-0.00102850,-0.11254712,-0.09023858,-0.0641
 3609,0.00790981,0.00903323,0.00722011,0.00168538,0.00157710,0.00044274
 ,0.13029548,0.00005295,0.00008736,0.00008957,0.00014429,0.00025089,-0.
 00048291,-0.00000826,-0.00009535,0.00006875,-0.00011947,-0.00000390,0.
 00021208,0.00003989,-0.00004361,-0.00020877,-0.00001179,-0.00000386,0.
 00000872,0.00000230,-0.00000684,0.00000560,-0.00000618,0.00003505,0.00
 006040,-0.00000849,-0.00005153,0.00001795,-0.00000674,0.00002600,0.000
 01176,-0.00000509,-0.00000309,0.00001212,-0.00000822,-0.00000400,-0.00
 000074,0.00083058,0.00038473,0.00062143,-0.00015129,0.00007179,0.00002
 236,0.00005407,0.00009558,0.00006156,0.00007908,0.00000067,0.00011676,
 0.00149999,0.00063340,0.00120344,0.00002405,-0.00000688,-0.00000692,-0
 .00000087,0.00000004,0.00000262,-0.00001754,-0.00000203,-0.00001171,-0
 .00001518,-0.00000286,0.00001083,-0.00001864,-0.00001274,0.00002243,0.
 00000188,0.00000585,0.00000432,-0.00000390,-0.00000469,0.00000417,-0.0
 0000055,0.00001139,0.00001723,0.00006604,0.00053946,0.00058826,0.00000
 339,-0.00005906,-0.00013158,0.00008337,0.00048029,0.00000466,-0.000086
 82,0.00036167,-0.00032367,-0.09844714,-0.19223977,-0.09939448,-0.01408
 254,-0.01744635,-0.01431333,0.00437304,0.00552566,0.00413714,0.1052933
 9,0.20108235,-0.00001878,-0.00002216,-0.00005027,0.00018300,-0.0001712
 5,0.00024073,-0.00000017,0.00003633,-0.00003598,-0.00000276,0.00004107
 ,-0.00003777,0.00002018,-0.00004334,0.00003884,0.00000066,0.00000397,-
 0.00000213,-0.00002792,0.00002281,-0.00001000,0.00000443,0.00005027,-0
 .00001689,-0.00001249,-0.00030791,-0.00027904,0.00001148,-0.00002446,-
 0.00001214,-0.00000422,0.00000146,-0.00000135,0.00000316,0.00000462,0.
 00000304,-0.00030497,-0.00000105,0.00045405,0.00003184,0.00013503,-0.0
 0012699,-0.00002887,-0.00009514,-0.00040447,-0.00002173,-0.00005809,0.
 00012276,0.00681852,0.00985787,0.00529746,0.00001265,0.00001918,0.0000
 1649,0.00000155,0.00000156,-0.00000071,-0.00000625,-0.00000701,0.00001
 579,-0.00000562,-0.00000016,0.00000748,-0.00000063,0.00001261,-0.00001
 605,-0.00000225,0.00000068,0.00001565,-0.00000184,0.00000190,0.0000001
 8,-0.00000653,-0.00001723,-0.00001879,0.00107688,-0.00029748,-0.000074
 35,0.00036942,0.00010246,0.00048642,0.00006613,-0.00013571,-0.00016320
 ,0.00045562,0.00008989,0.00048780,-0.07052088,-0.10226572,-0.11878290,
 0.00430684,0.00587513,0.00350163,-0.01442085,-0.02189000,-0.01306426,0
 .07071759,0.10807371,0.12359898,0.00293303,0.00045806,0.00212229,0.002
 93301,0.00045807,-0.00212237,0.00156823,0.00135383,-0.00157075,0.00156
 823,0.00135385,0.00157079,-0.00076766,-0.00204623,0.00000002,0.0003112
 5,-0.00012894,0.00002601,0.00031127,-0.00012894,-0.00002602,0.00016909
 ,0.00226095,-0.00000002,-0.01130610,0.02279723,-0.00000015,-0.00002866
 ,0.00182685,0.00502062,0.00033405,-0.00060088,0.00036738,0.00015777,0.
 00179402,0.00033098,-0.00002872,0.00182684,-0.00502055,0.00033409,-0.0
 0060088,-0.00036736,0.00015780,0.00179403,-0.00033102,-0.04524317,-0.0
 0001234,-0.00015910,-0.04524313,-0.00001229,0.00015895,0.00081906,0.00
 258278,0.00863673,0.00029068,-0.00024513,-0.00017767,-0.00003153,-0.00
 155040,0.00167511,0.00028368,0.00047401,0.00071553,-0.00162626,-0.0036
 8137,-0.01633275,-0.00255162,-0.00011523,-0.00293718,-0.00023753,-0.00
 014765,-0.00111556,-0.00004420,0.00045041,-0.00130681,0.00081906,0.002
 58273,-0.00863672,-0.00003153,-0.00155040,-0.00167509,0.00029067,-0.00
 024510,0.00017767,0.00028369,0.00047402,-0.00071554,-0.00162627,-0.003
 68139,0.01633279,-0.00023753,-0.00014767,0.00111554,-0.00255162,-0.000
 11523,0.00293714,-0.00004419,0.00045045,0.00130682,0.09803514,0.003519
 84,-0.01943113,-0.01477015,0.00351984,-0.01943111,0.01476998,-0.000039
 60,-0.00415226,0.00379300,-0.00003964,-0.00415214,-0.00379296,0.000484
 83,0.00733499,0.00000011,-0.00011138,0.00003765,0.00003601,-0.00011138
 ,0.00003764,-0.00003601,-0.00048796,-0.00826281,-0.00000003,0.02069902
 ,-0.19504532,0.00000037,0.00002373,-0.00613777,-0.01230171,-0.00013653
 ,0.00055651,-0.00041149,0.00088643,-0.00273822,-0.00009774,0.00002373,
 -0.00613782,0.01230185,-0.00013655,0.00055649,0.00041149,0.00088646,-0
 .00273820,0.00009769,0.00025265,-0.04860058,0.00232575,0.00025264,-0.0
 4860055,-0.00232590,0.00180750,0.00536885,0.00965345,0.00015744,0.0005
 6619,0.00071653,-0.00151012,-0.00087005,0.00295319,0.00009264,-0.00002
 992,0.00023636,-0.00144135,-0.00010059,-0.00162721,0.00027719,0.001253
 92,0.00020229,-0.00022714,0.00044973,0.00059866,0.00006488,0.00039437,
 -0.00100617,0.00180749,0.00536879,-0.00965347,-0.00151011,-0.00087004,
 -0.00295317,0.00015743,0.00056623,-0.00071654,0.00009266,-0.00002992,-
 0.00023638,-0.00144140,-0.00010053,0.00162731,-0.00022713,0.00044969,-
 0.00059866,0.00027718,0.00125391,-0.00020233,0.00006488,0.00039436,0.0
 0100616,-0.02792806,0.34283970,0.00133354,-0.01791758,-0.00017540,-0.0
 0133347,0.01791751,-0.00017527,-0.00003740,0.00098042,-0.00442251,0.00
 003726,-0.00098029,-0.00442254,0.00000009,-0.00000014,0.00218387,-0.00
 032907,-0.00066576,0.00015518,0.00032904,0.00066577,0.00015515,-0.0000
 0005,0.00000010,-0.00051889,-0.00000011,0.00000019,-0.03127572,0.00523
 069,-0.01566151,-0.01032311,-0.00069133,0.00057036,-0.00002528,0.00011
 787,0.00079334,0.00050488,-0.00523070,0.01566150,-0.01032310,0.0006913
 3,-0.00057038,-0.00002527,-0.00011787,-0.00079335,0.00050487,-0.000693
 67,-0.01280283,-0.05446975,0.00069360,0.01280286,-0.05446951,0.0050096
 1,0.00326806,-0.01069545,-0.00074633,-0.00008645,0.00010577,-0.0012192
 3,-0.00019639,0.00130989,-0.00096719,-0.00081531,-0.00024755,-0.011896
 01,-0.00109292,-0.01069340,0.00114278,0.00050542,0.00015550,0.00027667
 ,-0.00039510,-0.00064019,0.00077367,0.00050376,-0.00119004,-0.00500960
 ,-0.00326812,-0.01069548,0.00121924,0.00019639,0.00130994,0.00074632,0
 .00008650,0.00010573,0.00096717,0.00081531,-0.00024755,0.01189603,0.00
 109299,-0.01069345,-0.00027665,0.00039509,-0.00064021,-0.00114279,-0.0
 0050546,0.00015558,-0.00077368,-0.00050378,-0.00119003,0.00000036,-0.0
 0000009,0.21091273\\0.00002199,-0.00001395,0.00002558,0.00002199,-0.00
 001395,-0.00002558,0.00001225,0.00002708,-0.00001974,0.00001225,0.0000
 2708,0.00001974,-0.00001405,-0.00007255,0.,0.00000176,0.00000548,-0.00
 000027,0.00000176,0.00000548,0.00000027,0.00000829,0.00003821,0.,-0.00
 002198,-0.00002109,0.,-0.00001756,-0.00001230,-0.00003849,-0.00001360,
 0.00001149,0.00001372,0.00000200,0.00000547,-0.00000935,-0.00001756,-0
 .00001230,0.00003849,-0.00001360,0.00001149,-0.00001372,0.00000200,0.0
 0000547,0.00000935,-0.00002441,0.00000864,0.00004570,-0.00002441,0.000
 00864,-0.00004570,-0.00000247,-0.00000328,-0.00002754,-0.00000005,0.00
 000181,0.00000015,0.00000310,-0.00000129,0.00000112,-0.00000091,0.0000
 0681,-0.00000322,0.00002044,-0.00001597,-0.00003482,-0.00000447,-0.000
 00104,0.00000849,0.00001165,-0.00000629,0.00000679,-0.00000808,-0.0000
 0282,0.00000242,-0.00000247,-0.00000328,0.00002754,0.00000310,-0.00000
 129,-0.00000112,-0.00000005,0.00000181,-0.00000015,-0.00000091,0.00000
 681,0.00000322,0.00002044,-0.00001597,0.00003482,0.00001165,-0.0000062
 9,-0.00000679,-0.00000447,-0.00000104,-0.00000849,-0.00000808,-0.00000
 282,-0.00000242,0.00002448,0.00003577,0.\\\@
 The archive entry for this job was punched.


 IT IS IMPOSSIBLE TO MEDITATE ON TIME AND THE MYSTERY 
 OF NATURE WITHOUT AN OVERWHELMING EMOTION AT THE
 LIMITATIONS OF HUMAN INTELLIGENCE.

                                         -- ALFRED NORTH WHITEHEAD
 Job cpu time:       1 days 10 hours 16 minutes 12.8 seconds.
 Elapsed time:       0 days  4 hours 31 minutes 14.9 seconds.
 File lengths (MBytes):  RWF=   1344 Int=      0 D2E=      0 Chk=     58 Scr=      1
 Normal termination of Gaussian 16 at Thu Mar  7 21:10:05 2024.
