 Entering Gaussian System, Link 0=/cm/shared/apps//g16/g16
 Input=ZIrMeH.gjf
 Output=ZIrMeH.log
 Initial command:
 /cm/shared/apps//g16/l1.exe "/local/mvanvleet/pbs.14050.josephine/Gau-1994050.inp" -scrdir="/local/mvanvleet/pbs.14050.josephine/"
 Entering Link 1 = /cm/shared/apps//g16/l1.exe PID=   1994053.
  
 Copyright (c) 1988-2019, Gaussian, Inc.  All Rights Reserved.
  
 This is part of the Gaussian(R) 16 program.  It is based on
 the Gaussian(R) 09 system (copyright 2009, Gaussian, Inc.),
 the Gaussian(R) 03 system (copyright 2003, Gaussian, Inc.),
 the Gaussian(R) 98 system (copyright 1998, Gaussian, Inc.),
 the Gaussian(R) 94 system (copyright 1995, Gaussian, Inc.),
 the Gaussian 92(TM) system (copyright 1992, Gaussian, Inc.),
 the Gaussian 90(TM) system (copyright 1990, Gaussian, Inc.),
 the Gaussian 88(TM) system (copyright 1988, Gaussian, Inc.),
 the Gaussian 86(TM) system (copyright 1986, Carnegie Mellon
 University), and the Gaussian 82(TM) system (copyright 1983,
 Carnegie Mellon University). Gaussian is a federally registered
 trademark of Gaussian, Inc.
  
 This software contains proprietary and confidential information,
 including trade secrets, belonging to Gaussian, Inc.
  
 This software is provided under written license and may be
 used, copied, transmitted, or stored only in accord with that
 written license.
  
 The following legend is applicable only to US Government
 contracts under FAR:
  
                    RESTRICTED RIGHTS LEGEND
  
 Use, reproduction and disclosure by the US Government is
 subject to restrictions as set forth in subparagraphs (a)
 and (c) of the Commercial Computer Software - Restricted
 Rights clause in FAR 52.227-19.
  
 Gaussian, Inc.
 340 Quinnipiac St., Bldg. 40, Wallingford CT 06492
  
  
 ---------------------------------------------------------------
 Warning -- This program may not be used in any manner that
 competes with the business of Gaussian, Inc. or will provide
 assistance to any competitor of Gaussian, Inc.  The licensee
 of this program is prohibited from giving any competitor of
 Gaussian, Inc. access to this program.  By using this program,
 the user acknowledges that Gaussian, Inc. is engaged in the
 business of creating and licensing software in the field of
 computational chemistry and represents and warrants to the
 licensee that it is not a competitor of Gaussian, Inc. and that
 it will not use this program in any manner prohibited above.
 ---------------------------------------------------------------
  

 Cite this work as:
 Gaussian 16, Revision C.01,
 M. J. Frisch, G. W. Trucks, H. B. Schlegel, G. E. Scuseria, 
 M. A. Robb, J. R. Cheeseman, G. Scalmani, V. Barone, 
 G. A. Petersson, H. Nakatsuji, X. Li, M. Caricato, A. V. Marenich, 
 J. Bloino, B. G. Janesko, R. Gomperts, B. Mennucci, H. P. Hratchian, 
 J. V. Ortiz, A. F. Izmaylov, J. L. Sonnenberg, D. Williams-Young, 
 F. Ding, F. Lipparini, F. Egidi, J. Goings, B. Peng, A. Petrone, 
 T. Henderson, D. Ranasinghe, V. G. Zakrzewski, J. Gao, N. Rega, 
 G. Zheng, W. Liang, M. Hada, M. Ehara, K. Toyota, R. Fukuda, 
 J. Hasegawa, M. Ishida, T. Nakajima, Y. Honda, O. Kitao, H. Nakai, 
 T. Vreven, K. Throssell, J. A. Montgomery, Jr., J. E. Peralta, 
 F. Ogliaro, M. J. Bearpark, J. J. Heyd, E. N. Brothers, K. N. Kudin, 
 V. N. Staroverov, T. A. Keith, R. Kobayashi, J. Normand, 
 K. Raghavachari, A. P. Rendell, J. C. Burant, S. S. Iyengar, 
 J. Tomasi, M. Cossi, J. M. Millam, M. Klene, C. Adamo, R. Cammi, 
 J. W. Ochterski, R. L. Martin, K. Morokuma, O. Farkas, 
 J. B. Foresman, and D. J. Fox, Gaussian, Inc., Wallingford CT, 2019.
 
 ******************************************
 Gaussian 16:  ES64L-G16RevC.01  3-Jul-2019
                 7-Mar-2024 
 ******************************************
 %nprocshared=8
 Will use up to    8 processors via shared memory.
 %chk=ZIrMeH.chk
 %mem=1GB
 ----------------------------------------------------------
 # wb97xd def2TZVPP SCRF=(solvent=dichloromethane) opt freq
 ----------------------------------------------------------
 1/18=20,19=15,26=3,38=1/1,3;
 2/9=110,12=2,17=6,18=5,40=1/2;
 3/5=44,7=202,11=2,25=1,30=1,70=2201,71=1,72=9,74=-58/1,2,3;
 4//1;
 5/5=2,38=5,53=9/2;
 6/7=2,8=2,9=2,10=2,28=1/1;
 7//1,2,3,16;
 1/18=20,19=15,26=3/3(2);
 2/9=110/2;
 99//99;
 2/9=110/2;
 3/5=44,7=202,11=2,25=1,30=1,70=2205,71=1,72=9,74=-58/1,2,3;
 4/5=5,16=3,69=1/1;
 5/5=2,38=5,53=9/2;
 7//1,2,3,16;
 1/18=20,19=15,26=3/3(-5);
 2/9=110/2;
 6/7=2,8=2,9=2,10=2,19=2,28=1/1;
 99/9=1/99;
 ------
 ZIrMeH
 ------
 Symbolic Z-matrix:
 Charge =  0 Multiplicity = 1
 C                    -1.69521  -1.18753  -0.34072 
 C                    -1.69523   1.18749  -0.34075 
 C                    -3.01337  -1.23938   0.02141 
 C                    -3.0134    1.23932   0.02138 
 C                    -3.78329  -0.00004   0.22779 
 H                    -3.53078  -2.19308   0.16459 
 H                    -3.53083   2.19301   0.16454 
 O                    -4.97556  -0.00005   0.55872 
 N                    -1.03862  -0.00002  -0.52645 
 C                    -0.75743  -2.3326   -0.66358 
 H                    -0.59363  -2.348    -1.75713 
 H                    -1.14759  -3.31887  -0.34449 
 C                    -0.75748   2.33257  -0.66363 
 H                    -0.59366   2.34794  -1.75718 
 H                    -1.14766   3.31883  -0.34457 
 N                     0.60223  -2.09651  -0.0395 
 N                     0.60217   2.09652  -0.0395 
 C                     2.60722   0.00004   1.12475 
 H                     2.23246   0.00009   2.17469 
 H                     3.27426  -0.88331   1.02802 
 H                     3.27428   0.88336   1.02795 
 C                     1.61092  -2.93285  -0.72674 
 H                     2.58294  -2.78364  -0.23259 
 H                     1.32501  -4.00415  -0.67487 
 H                     1.68239  -2.61101  -1.77616 
 C                     0.5286   -2.50433   1.38889 
 H                     0.28019  -3.58321   1.45804 
 H                     1.49721  -2.31215   1.87149 
 H                    -0.25794  -1.91548   1.8891 
 C                     1.61086   2.93289  -0.72669 
 H                     1.32491   4.00419  -0.67483 
 H                     2.58287   2.78371  -0.2325 
 H                     1.68238   2.61106  -1.77611 
 C                     0.52846   2.50433   1.38889 
 H                     1.49705   2.31217   1.87154 
 H                     0.28002   3.58321   1.45803 
 H                    -0.2581    1.91546   1.88906 
 H                     2.22469   0.00003  -0.97277 
 Ir                    0.92129   0.00001  -0.11625 
 

 GradGradGradGradGradGradGradGradGradGradGradGradGradGradGradGradGradGrad
 Berny optimization.
 Initialization pass.
                           ----------------------------
                           !    Initial Parameters    !
                           ! (Angstroms and Degrees)  !
 --------------------------                            --------------------------
 ! Name  Definition              Value          Derivative Info.                !
 --------------------------------------------------------------------------------
 ! R1    R(1,3)                  1.368          estimate D2E/DX2                !
 ! R2    R(1,9)                  1.3696         estimate D2E/DX2                !
 ! R3    R(1,10)                 1.5149         estimate D2E/DX2                !
 ! R4    R(2,4)                  1.368          estimate D2E/DX2                !
 ! R5    R(2,9)                  1.3696         estimate D2E/DX2                !
 ! R6    R(2,13)                 1.5149         estimate D2E/DX2                !
 ! R7    R(3,5)                  1.4735         estimate D2E/DX2                !
 ! R8    R(3,6)                  1.0944         estimate D2E/DX2                !
 ! R9    R(4,5)                  1.4735         estimate D2E/DX2                !
 ! R10   R(4,7)                  1.0944         estimate D2E/DX2                !
 ! R11   R(5,8)                  1.2373         estimate D2E/DX2                !
 ! R12   R(9,39)                 2.0024         estimate D2E/DX2                !
 ! R13   R(10,11)                1.1059         estimate D2E/DX2                !
 ! R14   R(10,12)                1.1076         estimate D2E/DX2                !
 ! R15   R(10,16)                1.5146         estimate D2E/DX2                !
 ! R16   R(13,14)                1.1059         estimate D2E/DX2                !
 ! R17   R(13,15)                1.1076         estimate D2E/DX2                !
 ! R18   R(13,17)                1.5146         estimate D2E/DX2                !
 ! R19   R(16,22)                1.4796         estimate D2E/DX2                !
 ! R20   R(16,26)                1.4873         estimate D2E/DX2                !
 ! R21   R(16,39)                2.122          estimate D2E/DX2                !
 ! R22   R(17,30)                1.4796         estimate D2E/DX2                !
 ! R23   R(17,34)                1.4873         estimate D2E/DX2                !
 ! R24   R(17,39)                2.122          estimate D2E/DX2                !
 ! R25   R(18,19)                1.1148         estimate D2E/DX2                !
 ! R26   R(18,20)                1.1111         estimate D2E/DX2                !
 ! R27   R(18,21)                1.1111         estimate D2E/DX2                !
 ! R28   R(18,39)                2.0934         estimate D2E/DX2                !
 ! R29   R(22,23)                1.1006         estimate D2E/DX2                !
 ! R30   R(22,24)                1.11           estimate D2E/DX2                !
 ! R31   R(22,25)                1.1            estimate D2E/DX2                !
 ! R32   R(26,27)                1.1093         estimate D2E/DX2                !
 ! R33   R(26,28)                1.0991         estimate D2E/DX2                !
 ! R34   R(26,29)                1.1025         estimate D2E/DX2                !
 ! R35   R(30,31)                1.11           estimate D2E/DX2                !
 ! R36   R(30,32)                1.1006         estimate D2E/DX2                !
 ! R37   R(30,33)                1.1            estimate D2E/DX2                !
 ! R38   R(34,35)                1.0991         estimate D2E/DX2                !
 ! R39   R(34,36)                1.1093         estimate D2E/DX2                !
 ! R40   R(34,37)                1.1025         estimate D2E/DX2                !
 ! R41   R(38,39)                1.5596         estimate D2E/DX2                !
 ! A1    A(3,1,9)              122.0533         estimate D2E/DX2                !
 ! A2    A(3,1,10)             128.6286         estimate D2E/DX2                !
 ! A3    A(9,1,10)             109.2514         estimate D2E/DX2                !
 ! A4    A(4,2,9)              122.0528         estimate D2E/DX2                !
 ! A5    A(4,2,13)             128.6285         estimate D2E/DX2                !
 ! A6    A(9,2,13)             109.252          estimate D2E/DX2                !
 ! A7    A(1,3,5)              120.5749         estimate D2E/DX2                !
 ! A8    A(1,3,6)              121.5481         estimate D2E/DX2                !
 ! A9    A(5,3,6)              117.8769         estimate D2E/DX2                !
 ! A10   A(2,4,5)              120.5746         estimate D2E/DX2                !
 ! A11   A(2,4,7)              121.5481         estimate D2E/DX2                !
 ! A12   A(5,4,7)              117.8771         estimate D2E/DX2                !
 ! A13   A(3,5,4)              114.5057         estimate D2E/DX2                !
 ! A14   A(3,5,8)              122.7458         estimate D2E/DX2                !
 ! A15   A(4,5,8)              122.7456         estimate D2E/DX2                !
 ! A16   A(1,9,2)              120.2355         estimate D2E/DX2                !
 ! A17   A(1,9,39)             116.1977         estimate D2E/DX2                !
 ! A18   A(2,9,39)             116.1972         estimate D2E/DX2                !
 ! A19   A(1,10,11)            108.2386         estimate D2E/DX2                !
 ! A20   A(1,10,12)            113.1798         estimate D2E/DX2                !
 ! A21   A(1,10,16)            110.4927         estimate D2E/DX2                !
 ! A22   A(11,10,12)           108.9451         estimate D2E/DX2                !
 ! A23   A(11,10,16)           106.0614         estimate D2E/DX2                !
 ! A24   A(12,10,16)           109.6532         estimate D2E/DX2                !
 ! A25   A(2,13,14)            108.2386         estimate D2E/DX2                !
 ! A26   A(2,13,15)            113.18           estimate D2E/DX2                !
 ! A27   A(2,13,17)            110.4918         estimate D2E/DX2                !
 ! A28   A(14,13,15)           108.9456         estimate D2E/DX2                !
 ! A29   A(14,13,17)           106.0621         estimate D2E/DX2                !
 ! A30   A(15,13,17)           109.6528         estimate D2E/DX2                !
 ! A31   A(10,16,22)           109.4211         estimate D2E/DX2                !
 ! A32   A(10,16,26)           107.9718         estimate D2E/DX2                !
 ! A33   A(10,16,39)           105.9072         estimate D2E/DX2                !
 ! A34   A(22,16,26)           108.9558         estimate D2E/DX2                !
 ! A35   A(22,16,39)           116.0494         estimate D2E/DX2                !
 ! A36   A(26,16,39)           108.2452         estimate D2E/DX2                !
 ! A37   A(13,17,30)           109.4214         estimate D2E/DX2                !
 ! A38   A(13,17,34)           107.9713         estimate D2E/DX2                !
 ! A39   A(13,17,39)           105.9069         estimate D2E/DX2                !
 ! A40   A(30,17,34)           108.956          estimate D2E/DX2                !
 ! A41   A(30,17,39)           116.0495         estimate D2E/DX2                !
 ! A42   A(34,17,39)           108.2452         estimate D2E/DX2                !
 ! A43   A(19,18,20)           106.4891         estimate D2E/DX2                !
 ! A44   A(19,18,21)           106.4888         estimate D2E/DX2                !
 ! A45   A(19,18,39)           106.7133         estimate D2E/DX2                !
 ! A46   A(20,18,21)           105.3088         estimate D2E/DX2                !
 ! A47   A(20,18,39)           115.5851         estimate D2E/DX2                !
 ! A48   A(21,18,39)           115.5852         estimate D2E/DX2                !
 ! A49   A(16,22,23)           108.4767         estimate D2E/DX2                !
 ! A50   A(16,22,24)           110.3794         estimate D2E/DX2                !
 ! A51   A(16,22,25)           108.7861         estimate D2E/DX2                !
 ! A52   A(23,22,24)           109.7157         estimate D2E/DX2                !
 ! A53   A(23,22,25)           109.3477         estimate D2E/DX2                !
 ! A54   A(24,22,25)           110.1024         estimate D2E/DX2                !
 ! A55   A(16,26,27)           109.7336         estimate D2E/DX2                !
 ! A56   A(16,26,28)           109.2761         estimate D2E/DX2                !
 ! A57   A(16,26,29)           108.9407         estimate D2E/DX2                !
 ! A58   A(27,26,28)           109.8794         estimate D2E/DX2                !
 ! A59   A(27,26,29)           109.3547         estimate D2E/DX2                !
 ! A60   A(28,26,29)           109.6391         estimate D2E/DX2                !
 ! A61   A(17,30,31)           110.3793         estimate D2E/DX2                !
 ! A62   A(17,30,32)           108.477          estimate D2E/DX2                !
 ! A63   A(17,30,33)           108.786          estimate D2E/DX2                !
 ! A64   A(31,30,32)           109.7157         estimate D2E/DX2                !
 ! A65   A(31,30,33)           110.102          estimate D2E/DX2                !
 ! A66   A(32,30,33)           109.3479         estimate D2E/DX2                !
 ! A67   A(17,34,35)           109.2763         estimate D2E/DX2                !
 ! A68   A(17,34,36)           109.7334         estimate D2E/DX2                !
 ! A69   A(17,34,37)           108.9408         estimate D2E/DX2                !
 ! A70   A(35,34,36)           109.8794         estimate D2E/DX2                !
 ! A71   A(35,34,37)           109.6392         estimate D2E/DX2                !
 ! A72   A(36,34,37)           109.3545         estimate D2E/DX2                !
 ! A73   A(9,39,16)             81.9654         estimate D2E/DX2                !
 ! A74   A(9,39,17)             81.9655         estimate D2E/DX2                !
 ! A75   A(9,39,18)            155.4646         estimate D2E/DX2                !
 ! A76   A(9,39,38)            134.8683         estimate D2E/DX2                !
 ! A77   A(16,39,17)           162.2061         estimate D2E/DX2                !
 ! A78   A(16,39,18)            95.7196         estimate D2E/DX2                !
 ! A79   A(16,39,38)            98.3678         estimate D2E/DX2                !
 ! A80   A(17,39,18)            95.7193         estimate D2E/DX2                !
 ! A81   A(17,39,38)            98.3677         estimate D2E/DX2                !
 ! A82   A(18,39,38)            69.6671         estimate D2E/DX2                !
 ! D1    D(9,1,3,5)             -0.031          estimate D2E/DX2                !
 ! D2    D(9,1,3,6)            179.8067         estimate D2E/DX2                !
 ! D3    D(10,1,3,5)          -176.7297         estimate D2E/DX2                !
 ! D4    D(10,1,3,6)             3.108          estimate D2E/DX2                !
 ! D5    D(3,1,9,2)              0.509          estimate D2E/DX2                !
 ! D6    D(3,1,9,39)           149.4057         estimate D2E/DX2                !
 ! D7    D(10,1,9,2)           177.7777         estimate D2E/DX2                !
 ! D8    D(10,1,9,39)          -33.3256         estimate D2E/DX2                !
 ! D9    D(3,1,10,11)          106.3279         estimate D2E/DX2                !
 ! D10   D(3,1,10,12)          -14.5328         estimate D2E/DX2                !
 ! D11   D(3,1,10,16)         -137.9416         estimate D2E/DX2                !
 ! D12   D(9,1,10,11)          -70.7087         estimate D2E/DX2                !
 ! D13   D(9,1,10,12)          168.4306         estimate D2E/DX2                !
 ! D14   D(9,1,10,16)           45.0219         estimate D2E/DX2                !
 ! D15   D(9,2,4,5)              0.0311         estimate D2E/DX2                !
 ! D16   D(9,2,4,7)           -179.8069         estimate D2E/DX2                !
 ! D17   D(13,2,4,5)           176.73           estimate D2E/DX2                !
 ! D18   D(13,2,4,7)            -3.108          estimate D2E/DX2                !
 ! D19   D(4,2,9,1)             -0.509          estimate D2E/DX2                !
 ! D20   D(4,2,9,39)          -149.4059         estimate D2E/DX2                !
 ! D21   D(13,2,9,1)          -177.7779         estimate D2E/DX2                !
 ! D22   D(13,2,9,39)           33.3252         estimate D2E/DX2                !
 ! D23   D(4,2,13,14)         -106.3291         estimate D2E/DX2                !
 ! D24   D(4,2,13,15)           14.5324         estimate D2E/DX2                !
 ! D25   D(4,2,13,17)          137.94           estimate D2E/DX2                !
 ! D26   D(9,2,13,14)           70.7076         estimate D2E/DX2                !
 ! D27   D(9,2,13,15)         -168.4308         estimate D2E/DX2                !
 ! D28   D(9,2,13,17)          -45.0233         estimate D2E/DX2                !
 ! D29   D(1,3,5,4)             -0.4116         estimate D2E/DX2                !
 ! D30   D(1,3,5,8)           -179.8102         estimate D2E/DX2                !
 ! D31   D(6,3,5,4)            179.7449         estimate D2E/DX2                !
 ! D32   D(6,3,5,8)              0.3463         estimate D2E/DX2                !
 ! D33   D(2,4,5,3)              0.4115         estimate D2E/DX2                !
 ! D34   D(2,4,5,8)            179.8102         estimate D2E/DX2                !
 ! D35   D(7,4,5,3)           -179.7447         estimate D2E/DX2                !
 ! D36   D(7,4,5,8)             -0.346          estimate D2E/DX2                !
 ! D37   D(1,9,39,16)           11.0812         estimate D2E/DX2                !
 ! D38   D(1,9,39,17)         -161.2513         estimate D2E/DX2                !
 ! D39   D(1,9,39,18)          -75.0853         estimate D2E/DX2                !
 ! D40   D(1,9,39,38)          104.915          estimate D2E/DX2                !
 ! D41   D(2,9,39,16)          161.253          estimate D2E/DX2                !
 ! D42   D(2,9,39,17)          -11.0795         estimate D2E/DX2                !
 ! D43   D(2,9,39,18)           75.0865         estimate D2E/DX2                !
 ! D44   D(2,9,39,38)         -104.9133         estimate D2E/DX2                !
 ! D45   D(1,10,16,22)        -160.3302         estimate D2E/DX2                !
 ! D46   D(1,10,16,26)          81.2147         estimate D2E/DX2                !
 ! D47   D(1,10,16,39)         -34.5511         estimate D2E/DX2                !
 ! D48   D(11,10,16,22)        -43.2465         estimate D2E/DX2                !
 ! D49   D(11,10,16,26)       -161.7016         estimate D2E/DX2                !
 ! D50   D(11,10,16,39)         82.5326         estimate D2E/DX2                !
 ! D51   D(12,10,16,22)         74.2419         estimate D2E/DX2                !
 ! D52   D(12,10,16,26)        -44.2132         estimate D2E/DX2                !
 ! D53   D(12,10,16,39)       -159.979          estimate D2E/DX2                !
 ! D54   D(2,13,17,30)         160.3326         estimate D2E/DX2                !
 ! D55   D(2,13,17,34)         -81.2122         estimate D2E/DX2                !
 ! D56   D(2,13,17,39)          34.5533         estimate D2E/DX2                !
 ! D57   D(14,13,17,30)         43.2489         estimate D2E/DX2                !
 ! D58   D(14,13,17,34)        161.7041         estimate D2E/DX2                !
 ! D59   D(14,13,17,39)        -82.5304         estimate D2E/DX2                !
 ! D60   D(15,13,17,30)        -74.2403         estimate D2E/DX2                !
 ! D61   D(15,13,17,34)         44.215          estimate D2E/DX2                !
 ! D62   D(15,13,17,39)        159.9805         estimate D2E/DX2                !
 ! D63   D(10,16,22,23)       -177.49           estimate D2E/DX2                !
 ! D64   D(10,16,22,24)        -57.2537         estimate D2E/DX2                !
 ! D65   D(10,16,22,25)         63.6532         estimate D2E/DX2                !
 ! D66   D(26,16,22,23)        -59.649          estimate D2E/DX2                !
 ! D67   D(26,16,22,24)         60.5874         estimate D2E/DX2                !
 ! D68   D(26,16,22,25)       -178.5058         estimate D2E/DX2                !
 ! D69   D(39,16,22,23)         62.7867         estimate D2E/DX2                !
 ! D70   D(39,16,22,24)       -176.9769         estimate D2E/DX2                !
 ! D71   D(39,16,22,25)        -56.0701         estimate D2E/DX2                !
 ! D72   D(10,16,26,27)         61.2142         estimate D2E/DX2                !
 ! D73   D(10,16,26,28)       -178.2442         estimate D2E/DX2                !
 ! D74   D(10,16,26,29)        -58.4785         estimate D2E/DX2                !
 ! D75   D(22,16,26,27)        -57.5379         estimate D2E/DX2                !
 ! D76   D(22,16,26,28)         63.0038         estimate D2E/DX2                !
 ! D77   D(22,16,26,29)       -177.2306         estimate D2E/DX2                !
 ! D78   D(39,16,26,27)        175.4394         estimate D2E/DX2                !
 ! D79   D(39,16,26,28)        -64.019          estimate D2E/DX2                !
 ! D80   D(39,16,26,29)         55.7467         estimate D2E/DX2                !
 ! D81   D(10,16,39,9)          13.7964         estimate D2E/DX2                !
 ! D82   D(10,16,39,17)         39.4111         estimate D2E/DX2                !
 ! D83   D(10,16,39,18)        169.1889         estimate D2E/DX2                !
 ! D84   D(10,16,39,38)       -120.5806         estimate D2E/DX2                !
 ! D85   D(22,16,39,9)         135.4071         estimate D2E/DX2                !
 ! D86   D(22,16,39,17)        161.0219         estimate D2E/DX2                !
 ! D87   D(22,16,39,18)        -69.2003         estimate D2E/DX2                !
 ! D88   D(22,16,39,38)          1.0302         estimate D2E/DX2                !
 ! D89   D(26,16,39,9)        -101.7835         estimate D2E/DX2                !
 ! D90   D(26,16,39,17)        -76.1687         estimate D2E/DX2                !
 ! D91   D(26,16,39,18)         53.609          estimate D2E/DX2                !
 ! D92   D(26,16,39,38)        123.8395         estimate D2E/DX2                !
 ! D93   D(13,17,30,31)         57.2532         estimate D2E/DX2                !
 ! D94   D(13,17,30,32)        177.4898         estimate D2E/DX2                !
 ! D95   D(13,17,30,33)        -63.6531         estimate D2E/DX2                !
 ! D96   D(34,17,30,31)        -60.5875         estimate D2E/DX2                !
 ! D97   D(34,17,30,32)         59.6491         estimate D2E/DX2                !
 ! D98   D(34,17,30,33)        178.5063         estimate D2E/DX2                !
 ! D99   D(39,17,30,31)        176.9765         estimate D2E/DX2                !
 ! D100  D(39,17,30,32)        -62.787          estimate D2E/DX2                !
 ! D101  D(39,17,30,33)         56.0702         estimate D2E/DX2                !
 ! D102  D(13,17,34,35)        178.2434         estimate D2E/DX2                !
 ! D103  D(13,17,34,36)        -61.2149         estimate D2E/DX2                !
 ! D104  D(13,17,34,37)         58.4774         estimate D2E/DX2                !
 ! D105  D(30,17,34,35)        -63.0044         estimate D2E/DX2                !
 ! D106  D(30,17,34,36)         57.5373         estimate D2E/DX2                !
 ! D107  D(30,17,34,37)        177.2297         estimate D2E/DX2                !
 ! D108  D(39,17,34,35)         64.0187         estimate D2E/DX2                !
 ! D109  D(39,17,34,36)       -175.4396         estimate D2E/DX2                !
 ! D110  D(39,17,34,37)        -55.7472         estimate D2E/DX2                !
 ! D111  D(13,17,39,9)         -13.7984         estimate D2E/DX2                !
 ! D112  D(13,17,39,16)        -39.4132         estimate D2E/DX2                !
 ! D113  D(13,17,39,18)       -169.191          estimate D2E/DX2                !
 ! D114  D(13,17,39,38)        120.5786         estimate D2E/DX2                !
 ! D115  D(30,17,39,9)        -135.4095         estimate D2E/DX2                !
 ! D116  D(30,17,39,16)       -161.0243         estimate D2E/DX2                !
 ! D117  D(30,17,39,18)         69.1979         estimate D2E/DX2                !
 ! D118  D(30,17,39,38)         -1.0325         estimate D2E/DX2                !
 ! D119  D(34,17,39,9)         101.7807         estimate D2E/DX2                !
 ! D120  D(34,17,39,16)         76.1659         estimate D2E/DX2                !
 ! D121  D(34,17,39,18)        -53.6119         estimate D2E/DX2                !
 ! D122  D(34,17,39,38)       -123.8423         estimate D2E/DX2                !
 ! D123  D(19,18,39,9)          -0.0027         estimate D2E/DX2                !
 ! D124  D(19,18,39,16)        -83.1767         estimate D2E/DX2                !
 ! D125  D(19,18,39,17)         83.1708         estimate D2E/DX2                !
 ! D126  D(19,18,39,38)        179.9971         estimate D2E/DX2                !
 ! D127  D(20,18,39,9)         118.1834         estimate D2E/DX2                !
 ! D128  D(20,18,39,16)         35.0094         estimate D2E/DX2                !
 ! D129  D(20,18,39,17)       -158.6431         estimate D2E/DX2                !
 ! D130  D(20,18,39,38)        -61.8168         estimate D2E/DX2                !
 ! D131  D(21,18,39,9)        -118.1885         estimate D2E/DX2                !
 ! D132  D(21,18,39,16)        158.6375         estimate D2E/DX2                !
 ! D133  D(21,18,39,17)        -35.015          estimate D2E/DX2                !
 ! D134  D(21,18,39,38)         61.8113         estimate D2E/DX2                !
 --------------------------------------------------------------------------------
 Trust Radius=3.00D-01 FncErr=1.00D-07 GrdErr=1.00D-06 EigMax=2.50D+02 EigMin=1.00D-04
 Number of steps in this run=    234 maximum allowed number of steps=    234.
 GradGradGradGradGradGradGradGradGradGradGradGradGradGradGradGradGradGrad

                          Input orientation:                          
 ---------------------------------------------------------------------
 Center     Atomic      Atomic             Coordinates (Angstroms)
 Number     Number       Type             X           Y           Z
 ---------------------------------------------------------------------
      1          6           0       -1.695210   -1.187530   -0.340720
      2          6           0       -1.695230    1.187490   -0.340750
      3          6           0       -3.013370   -1.239380    0.021410
      4          6           0       -3.013400    1.239320    0.021380
      5          6           0       -3.783290   -0.000040    0.227790
      6          1           0       -3.530780   -2.193080    0.164590
      7          1           0       -3.530830    2.193010    0.164540
      8          8           0       -4.975560   -0.000050    0.558720
      9          7           0       -1.038620   -0.000020   -0.526450
     10          6           0       -0.757430   -2.332600   -0.663580
     11          1           0       -0.593630   -2.348000   -1.757130
     12          1           0       -1.147590   -3.318870   -0.344490
     13          6           0       -0.757480    2.332570   -0.663630
     14          1           0       -0.593660    2.347940   -1.757180
     15          1           0       -1.147660    3.318830   -0.344570
     16          7           0        0.602230   -2.096510   -0.039500
     17          7           0        0.602170    2.096520   -0.039500
     18          6           0        2.607220    0.000040    1.124750
     19          1           0        2.232460    0.000090    2.174690
     20          1           0        3.274260   -0.883310    1.028020
     21          1           0        3.274280    0.883360    1.027950
     22          6           0        1.610920   -2.932850   -0.726740
     23          1           0        2.582940   -2.783640   -0.232590
     24          1           0        1.325010   -4.004150   -0.674870
     25          1           0        1.682390   -2.611010   -1.776160
     26          6           0        0.528600   -2.504330    1.388890
     27          1           0        0.280190   -3.583210    1.458040
     28          1           0        1.497210   -2.312150    1.871490
     29          1           0       -0.257940   -1.915480    1.889100
     30          6           0        1.610860    2.932890   -0.726690
     31          1           0        1.324910    4.004190   -0.674830
     32          1           0        2.582870    2.783710   -0.232500
     33          1           0        1.682380    2.611060   -1.776110
     34          6           0        0.528460    2.504330    1.388890
     35          1           0        1.497050    2.312170    1.871540
     36          1           0        0.280020    3.583210    1.458030
     37          1           0       -0.258100    1.915460    1.889060
     38          1           0        2.224690    0.000030   -0.972770
     39         77           0        0.921290    0.000010   -0.116250
 ---------------------------------------------------------------------
                    Distance matrix (angstroms):
                    1          2          3          4          5
     1  C    0.000000
     2  C    2.375020   0.000000
     3  C    1.367981   2.785382   0.000000
     4  C    2.785380   1.367990   2.478700   0.000000
     5  C    2.468484   2.468493   1.473544   1.473550   0.000000
     6  H    2.153088   3.879802   1.094421   3.474127   2.208434
     7  H    3.879799   2.153094   3.474126   1.094419   2.208439
     8  O    3.602749   3.602758   2.382190   2.382193   1.237345
     9  N    1.369593   1.369599   2.394953   2.394961   2.846417
    10  C    1.514878   3.657147   2.598770   4.279858   3.923163
    11  H    2.136910   3.964763   3.201154   4.678381   4.430209
    12  H    2.200571   4.539516   2.817676   4.938846   4.276570
    13  C    3.657145   1.514871   4.279854   2.598771   3.923165
    14  H    3.964760   2.136908   4.678380   3.201165   4.430221
    15  H    4.539505   2.200558   4.938835   2.817670   4.276569
    16  N    2.489018   4.019170   3.716308   4.919781   4.868205
    17  N    4.019163   2.489003   4.919763   3.716294   4.868189
    18  C    4.697747   4.697745   5.860423   5.860427   6.453151
    19  H    4.812933   4.812910   5.804449   5.804436   6.322948
    20  H    5.163490   5.554959   6.377644   6.712194   7.157482
    21  H    5.554968   5.163513   6.712205   6.377681   7.157510
    22  C    3.758410   5.296869   4.981127   6.273039   6.213695
    23  H    4.567475   5.838177   5.811019   6.896936   6.963423
    24  H    4.143276   6.015531   5.191368   6.841092   6.553047
    25  H    3.936364   5.281791   5.211793   6.332980   6.380175
    26  C    3.109798   4.643986   4.001956   5.332051   5.119767
    27  H    3.588457   5.467861   4.290103   6.014027   5.555582
    28  H    4.043537   5.228112   4.991890   6.031704   5.994271
    29  H    2.750955   4.082457   3.396730   4.586251   4.342459
    30  C    5.296880   3.758404   6.273037   4.981121   6.213692
    31  H    6.015539   4.143266   6.841085   5.191353   6.553037
    32  H    5.838187   4.567469   6.896929   5.811010   6.963413
    33  H    5.281832   3.936376   6.333011   5.211813   6.380204
    34  C    4.643930   3.109746   5.331972   4.001888   5.119689
    35  H    5.228051   4.043487   6.031615   4.991819   5.994182
    36  H    5.467814   3.588411   6.013956   4.290035   5.555507
    37  H    4.082371   2.750879   4.586136   3.396627   4.342341
    38  H    4.144322   4.144307   5.473738   5.473734   6.126758
    39  Ir   2.882136   2.882132   4.127540   4.127544   4.717143
                    6          7          8          9         10
     6  H    0.000000
     7  H    4.386090   0.000000
     8  O    2.655581   2.655586   0.000000
     9  N    3.390857   3.390864   4.083759   0.000000
    10  C    2.897724   5.372027   4.972668   2.353466   0.000000
    11  H    3.513383   5.739402   5.484281   2.688048   1.105857
    12  H    2.684429   6.026588   5.146232   3.325620   1.107597
    13  C    5.372025   2.897725   4.972671   2.353473   4.665170
    14  H    5.739402   3.513400   5.484296   2.688048   4.809390
    15  H    6.026579   2.684430   5.146233   3.325618   5.673862
    16  N    4.139173   5.960184   5.988719   2.706433   1.514559
    17  N    5.960167   4.139158   5.988701   2.706435   4.674943
    18  C    6.588378   6.588382   7.603877   4.002326   4.467684
    19  H    6.485787   6.485762   7.386942   4.242184   4.736735
    20  H    6.983522   7.517885   8.310230   4.668781   4.606135
    21  H    7.517893   6.983565   8.310262   4.668793   5.427555
    22  C    5.270560   7.314808   7.323622   3.957483   2.444048
    23  H    6.155005   7.893221   8.093545   4.577182   3.398126
    24  H    5.250082   7.917612   7.566488   4.652078   2.670349
    25  H    5.578379   7.350006   7.523103   3.972775   2.695935
    26  C    4.251394   6.327954   6.103800   3.520834   2.428168
    27  H    4.257812   7.040009   6.424229   4.303105   2.672443
    28  H    5.311155   6.963572   6.997566   4.186466   3.392698
    29  H    3.709781   5.528617   5.262577   3.180146   2.634322
    30  C    7.314808   5.270549   7.323616   3.957499   5.773921
    31  H    7.917607   5.250060   7.566472   4.652095   6.670170
    32  H    7.893215   6.154989   8.093529   4.577199   6.125362
    33  H    7.350042   5.578391   7.523130   3.972811   5.624071
    34  C    6.327875   4.251328   6.103715   3.520800   5.409440
    35  H    6.963478   5.311085   6.997467   4.186431   5.751817
    36  H    7.039937   4.257740   6.424144   4.303081   6.369799
    37  H    5.528502   3.709685   5.262453   3.180089   4.981096
    38  H    6.263286   6.263278   7.361322   3.293690   3.798658
    39  Ir   4.970859   4.970862   5.935354   2.002376   2.925532
                   11         12         13         14         15
    11  H    0.000000
    12  H    1.801392   0.000000
    13  C    4.809400   5.673871   0.000000
    14  H    4.695940   5.866453   1.105859   0.000000
    15  H    5.866450   6.637700   1.107587   1.801391   0.000000
    16  N    2.107980   2.156166   4.674944   4.912608   5.699218
    17  N    4.912632   5.699222   1.514565   2.107996   2.156157
    18  C    4.905504   5.222301   4.467685   4.905485   5.222298
    19  H    5.381405   5.365305   4.736693   5.381353   5.365251
    20  H    4.986276   5.231491   5.427568   5.758396   6.252628
    21  H    5.758393   6.252620   4.606163   4.986272   5.231527
    22  C    2.502757   2.811495   5.773902   5.814527   6.843926
    23  H    3.550296   3.770391   6.125341   6.224811   7.153325
    24  H    2.755957   2.586989   6.670151   6.723224   7.736228
    25  H    2.291245   3.249543   5.624026   5.456368   6.724703
    26  C    3.343842   2.545132   5.409477   5.890819   6.302692
    27  H    3.553396   2.314637   6.369827   6.802925   7.275047
    28  H    4.188052   3.594304   5.751859   6.265415   6.604104
    29  H    3.687107   2.783865   4.981154   5.620037   5.760112
    30  C    5.814584   6.843948   2.444053   2.502795   2.811476
    31  H    6.723279   7.736252   2.670353   2.756004   2.586966
    32  H    6.224877   7.153346   3.398138   3.550336   3.770380
    33  H    5.456451   6.724755   2.695939   2.291277   3.249519
    34  C    5.890809   6.302651   2.428164   3.343855   2.545127
    35  H    6.265411   6.604053   3.392699   4.188073   3.594301
    36  H    6.802924   7.275016   2.672442   3.553419   2.314635
    37  H    5.619998   5.760048   2.634310   3.687100   2.783858
    38  H    3.751186   4.773060   3.798638   3.751143   4.773030
    39  Ir   3.240466   3.917566   2.925531   3.240448   3.917557
                   16         17         18         19         20
    16  N    0.000000
    17  N    4.193030   0.000000
    18  C    3.125857   3.125849   0.000000
    19  H    3.457748   3.457673   1.114818   0.000000
    20  H    3.122691   4.142348   1.111128   1.783422   0.000000
    21  H    4.142333   3.122720   1.111123   1.783415   1.766670
    22  C    1.479601   5.175368   3.608666   4.172139   3.169621
    23  H    2.105384   5.270360   3.097069   3.696889   2.382922
    24  H    2.136632   6.176113   4.573427   4.997739   4.054510
    25  H    2.108896   5.132612   4.011006   4.767561   3.658199
    26  C    1.487292   4.818042   3.265318   3.129335   3.208829
    27  H    2.134622   5.882655   4.285537   4.143065   4.054483
    28  H    2.121172   4.887673   2.671323   2.445195   2.431241
    29  H    2.119472   4.533810   3.530239   3.154847   3.779321
    30  C    5.175368   1.479595   3.608625   4.172015   4.517664
    31  H    6.176119   2.136633   4.573404   4.997622   5.530580
    32  H    5.270363   2.105386   3.097021   3.696741   3.938777
    33  H    5.132617   2.108891   4.010953   4.767449   4.754771
    34  C    4.818036   1.487293   3.265346   3.129268   4.375586
    35  H    4.887662   2.121176   2.671351   2.445085   3.752478
    36  H    5.882655   2.134625   4.285562   4.142991   5.394459
    37  H    4.533808   2.119479   3.530306   3.154856   4.588254
    38  H    2.810489   2.810486   2.132116   3.147470   2.425912
    39  Ir   2.122048   2.122047   2.093428   2.639616   2.761535
                   21         22         23         24         25
    21  H    0.000000
    22  C    4.517650   0.000000
    23  H    3.938756   1.100577   0.000000
    24  H    5.530552   1.110008   1.807663   0.000000
    25  H    4.754763   1.099987   1.795383   1.811463   0.000000
    26  C    4.375555   2.414733   2.632019   2.672608   3.370483
    27  H    5.394423   2.639522   2.966513   2.412083   3.656691
    28  H    3.752442   2.673761   2.414180   3.062102   3.664554
    29  H    4.588209   3.371987   3.650462   3.666363   4.205089
    30  C    3.169590   5.865740   5.819604   6.943120   5.642812
    31  H    4.054514   6.943128   6.917576   8.008340   6.715772
    32  H    2.382879   5.819624   5.567350   6.917582   5.683023
    33  H    3.658120   5.642803   5.682979   6.715761   5.222070
    34  C    3.208948   5.933847   5.900230   6.874148   6.125014
    35  H    2.431396   5.854422   5.619057   6.812467   6.130071
    36  H    4.054596   7.000254   6.978425   7.950428   7.127060
    37  H    3.779477   5.817367   5.886803   6.642421   6.139077
    38  H    2.425859   3.006498   2.902590   4.114806   2.785149
    39  Ir   2.761533   3.074078   3.243967   4.063046   3.186220
                   26         27         28         29         30
    26  C    0.000000
    27  H    1.109266   0.000000
    28  H    1.099109   1.807670   0.000000
    29  H    1.102542   1.804638   1.799502   0.000000
    30  C    5.933829   7.000235   5.854392   5.817342   0.000000
    31  H    6.874146   7.950422   6.812458   6.642413   1.110018
    32  H    5.900195   6.978390   5.619005   5.886746   1.100583
    33  H    6.125002   7.127050   6.130030   6.139069   1.099987
    34  C    5.008660   6.092993   4.936584   4.517007   2.414732
    35  H    4.936549   6.033841   4.624320   4.577480   2.673770
    36  H    6.093005   7.166420   6.033885   5.541734   2.639518
    37  H    4.517036   5.541742   4.577566   3.830940   3.371991
    38  H    3.837444   4.746528   3.737007   4.245342   3.006495
    39  Ir   2.948113   3.965963   3.103043   3.013489   3.074074
                   31         32         33         34         35
    31  H    0.000000
    32  H    1.807675   0.000000
    33  H    1.811467   1.795389   0.000000
    34  C    2.672612   2.632026   3.370482   0.000000
    35  H    3.062118   2.414195   3.664564   1.099110   0.000000
    36  H    2.412076   2.966515   3.656686   1.109272   1.807677
    37  H    3.666367   3.650477   4.205091   1.102549   1.799510
    38  H    4.114811   2.902614   2.785127   3.837467   3.737051
    39  Ir   4.063050   3.243971   3.186216   2.948115   3.103046
                   36         37         38         39
    36  H    0.000000
    37  H    1.804647   0.000000
    38  H    4.746547   4.245373   0.000000
    39  Ir   3.965969   3.013499   1.559640   0.000000
 Stoichiometry    C12H22IrN3O
 Framework group  C1[X(C12H22IrN3O)]
 Deg. of freedom   111
 Full point group                 C1      NOp   1
 Largest Abelian subgroup         C1      NOp   1
 Largest concise Abelian subgroup C1      NOp   1
                         Standard orientation:                         
 ---------------------------------------------------------------------
 Center     Atomic      Atomic             Coordinates (Angstroms)
 Number     Number       Type             X           Y           Z
 ---------------------------------------------------------------------
      1          6           0       -1.695209   -1.187528   -0.340721
      2          6           0       -1.695227    1.187492   -0.340751
      3          6           0       -3.013369   -1.239377    0.021409
      4          6           0       -3.013397    1.239323    0.021379
      5          6           0       -3.783288   -0.000037    0.227789
      6          1           0       -3.530780   -2.193077    0.164589
      7          1           0       -3.530827    2.193013    0.164539
      8          8           0       -4.975558   -0.000046    0.558719
      9          7           0       -1.038618   -0.000019   -0.526451
     10          6           0       -0.757430   -2.332599   -0.663581
     11          1           0       -0.593630   -2.347999   -1.757131
     12          1           0       -1.147591   -3.318869   -0.344491
     13          6           0       -0.757477    2.332571   -0.663631
     14          1           0       -0.593657    2.347941   -1.757181
     15          1           0       -1.147656    3.318831   -0.344571
     16          7           0        0.602230   -2.096510   -0.039501
     17          7           0        0.602173    2.096520   -0.039501
     18          6           0        2.607222    0.000038    1.124749
     19          1           0        2.232462    0.000089    2.174689
     20          1           0        3.274261   -0.883312    1.028019
     21          1           0        3.274282    0.883358    1.027949
     22          6           0        1.610919   -2.932851   -0.726741
     23          1           0        2.582939   -2.783642   -0.232591
     24          1           0        1.325009   -4.004151   -0.674871
     25          1           0        1.682390   -2.611011   -1.776161
     26          6           0        0.528600   -2.504330    1.388889
     27          1           0        0.280189   -3.583210    1.458039
     28          1           0        1.497210   -2.312151    1.871489
     29          1           0       -0.257940   -1.915479    1.889099
     30          6           0        1.610864    2.932889   -0.726691
     31          1           0        1.324915    4.004189   -0.674831
     32          1           0        2.582874    2.783708   -0.232501
     33          1           0        1.682384    2.611059   -1.776111
     34          6           0        0.528464    2.504330    1.388889
     35          1           0        1.497053    2.312169    1.871539
     36          1           0        0.280024    3.583210    1.458029
     37          1           0       -0.258097    1.915461    1.889059
     38          1           0        2.224692    0.000029   -0.972771
     39         77           0        0.921292    0.000010   -0.116251
 ---------------------------------------------------------------------
 Rotational constants (GHZ):           0.5203035           0.3523548           0.2376806
 Standard basis: def2TZVPP (5D, 7F)
 There are   977 symmetry adapted cartesian basis functions of A   symmetry.
 There are   860 symmetry adapted basis functions of A   symmetry.
   860 basis functions,  1290 primitive gaussians,   977 cartesian basis functions
    70 alpha electrons       70 beta electrons
       nuclear repulsion energy      1536.4972962890 Hartrees.
 NAtoms=   39 NActive=   39 NUniq=   39 SFac= 1.00D+00 NAtFMM=   60 NAOKFM=F Big=F
 Integral buffers will be    131072 words long.
 Raffenetti 2 integral format.
 Two-electron integral symmetry is turned on.
 Nuclear repulsion after empirical dispersion term =     1536.4525312114 Hartrees.
 ------------------------------------------------------------------------------
 Polarizable Continuum Model (PCM)
 =================================
 Model                : PCM.
 Atomic radii         : UFF (Universal Force Field).
 Polarization charges : Total charges.
 Charge compensation  : None.
 Solution method      : On-the-fly selection.
 Cavity type          : Scaled VdW (van der Waals Surface) (Alpha=1.100).
 Cavity algorithm     : GePol (No added spheres)
                        Default sphere list used, NSphG=   39.
                        Lebedev-Laikov grids with approx.  5.0 points / Ang**2.
                        Smoothing algorithm: York/Karplus (Gamma=1.0000).
                        Polarization charges: spherical gaussians, with
                                              point-specific exponents (IZeta= 3).
                        Self-potential: point-specific (ISelfS= 7).
                        Self-field    : sphere-specific E.n sum rule (ISelfD= 2).
 1st derivatives      : Analytical E(r).r(x)/FMM algorithm (CHGder, D1EAlg=3).
                        Cavity 1st derivative terms included.
 Solvent              : Dichloromethane, Eps=   8.930000 Eps(inf)=   2.028346
 ------------------------------------------------------------------------------
 One-electron integrals computed using PRISM.
 PrsmSu:  requested number of processors reduced to:   5 ShMem   1 Linda.
   1 Symmetry operations used in ECPInt.
 ECPInt:  NShTT=   52650 NPrTT=  135893 LenC2=   47913 LenP2D=   94533.
 LDataN:  DoStor=T MaxTD1= 9 Len=  602
 NBasis=   860 RedAO= T EigKep=  1.96D-05  NBF=   860
 NBsUse=   860 1.00D-06 EigRej= -1.00D+00 NBFU=   860
 Defaulting to unpruned grid for atomic number  77.
 ExpMin= 5.00D-02 ExpMax= 2.70D+04 ExpMxC= 9.22D+02 IAcc=3 IRadAn=         5 AccDes= 0.00D+00
 Harris functional with IExCor= 4639 and IRadAn=       5 diagonalized for initial guess.
 HarFok:  IExCor= 4639 AccDes= 0.00D+00 IRadAn=         5 IDoV= 1 UseB2=F ITyADJ=14
 ICtDFT=  3500011 ScaDFX=  1.000000  1.000000  1.000000  1.000000
 Defaulting to unpruned grid for atomic number  77.
 FoFCou: FMM=F IPFlag=           0 FMFlag=      100000 FMFlg1=           0
         NFxFlg=           0 DoJE=T BraDBF=F KetDBF=T FulRan=T
         wScrn=  0.000000 ICntrl=       500 IOpCl=  0 I1Cent=   200000004 NGrid=           0
         NMat0=    1 NMatS0=      1 NMatT0=    0 NMatD0=    1 NMtDS0=    0 NMtDT0=    0
 Petite list used in FoFCou.
 Requested convergence on RMS density matrix=1.00D-08 within 128 cycles.
 Requested convergence on MAX density matrix=1.00D-06.
 Requested convergence on             energy=1.00D-06.
 No special actions if energy rises.
 Defaulting to unpruned grid for atomic number  77.
 Defaulting to unpruned grid for atomic number  77.
 Defaulting to unpruned grid for atomic number  77.
 Defaulting to unpruned grid for atomic number  77.
 Defaulting to unpruned grid for atomic number  77.
 Defaulting to unpruned grid for atomic number  77.
 Defaulting to unpruned grid for atomic number  77.
 Defaulting to unpruned grid for atomic number  77.
 Inv3:  Mode=1 IEnd=    18915363.
 Iteration    1 A*A^-1 deviation from unit magnitude is 3.55D-15 for    603.
 Iteration    1 A*A^-1 deviation from orthogonality  is 2.41D-15 for   1883    757.
 Iteration    1 A^-1*A deviation from unit magnitude is 3.33D-15 for    603.
 Iteration    1 A^-1*A deviation from orthogonality  is 3.33D-15 for   2164   1457.
 Error on total polarization charges =  0.01756
 SCF Done:  E(RwB97XD) =  -814.497478869     A.U. after   17 cycles
            NFock= 17  Conv=0.51D-08     -V/T= 2.0988

 **********************************************************************

            Population analysis using the SCF Density.

 **********************************************************************

 Orbital symmetries:
       Occupied  (A) (A) (A) (A) (A) (A) (A) (A) (A) (A) (A) (A)
                 (A) (A) (A) (A) (A) (A) (A) (A) (A) (A) (A) (A)
                 (A) (A) (A) (A) (A) (A) (A) (A) (A) (A) (A) (A)
                 (A) (A) (A) (A) (A) (A) (A) (A) (A) (A) (A) (A)
                 (A) (A) (A) (A) (A) (A) (A) (A) (A) (A) (A) (A)
                 (A) (A) (A) (A) (A) (A) (A) (A) (A) (A)
       Virtual   (A) (A) (A) (A) (A) (A) (A) (A) (A) (A) (A) (A)
                 (A) (A) (A) (A) (A) (A) (A) (A) (A) (A) (A) (A)
                 (A) (A) (A) (A) (A) (A) (A) (A) (A) (A) (A) (A)
                 (A) (A) (A) (A) (A) (A) (A) (A) (A) (A) (A) (A)
                 (A) (A) (A) (A) (A) (A) (A) (A) (A) (A) (A) (A)
                 (A) (A) (A) (A) (A) (A) (A) (A) (A) (A) (A) (A)
                 (A) (A) (A) (A) (A) (A) (A) (A) (A) (A) (A) (A)
                 (A) (A) (A) (A) (A) (A) (A) (A) (A) (A) (A) (A)
                 (A) (A) (A) (A) (A) (A) (A) (A) (A) (A) (A) (A)
                 (A) (A) (A) (A) (A) (A) (A) (A) (A) (A) (A) (A)
                 (A) (A) (A) (A) (A) (A) (A) (A) (A) (A) (A) (A)
                 (A) (A) (A) (A) (A) (A) (A) (A) (A) (A) (A) (A)
                 (A) (A) (A) (A) (A) (A) (A) (A) (A) (A) (A) (A)
                 (A) (A) (A) (A) (A) (A) (A) (A) (A) (A) (A) (A)
                 (A) (A) (A) (A) (A) (A) (A) (A) (A) (A) (A) (A)
                 (A) (A) (A) (A) (A) (A) (A) (A) (A) (A) (A) (A)
                 (A) (A) (A) (A) (A) (A) (A) (A) (A) (A) (A) (A)
                 (A) (A) (A) (A) (A) (A) (A) (A) (A) (A) (A) (A)
                 (A) (A) (A) (A) (A) (A) (A) (A) (A) (A) (A) (A)
                 (A) (A) (A) (A) (A) (A) (A) (A) (A) (A) (A) (A)
                 (A) (A) (A) (A) (A) (A) (A) (A) (A) (A) (A) (A)
                 (A) (A) (A) (A) (A) (A) (A) (A) (A) (A) (A) (A)
                 (A) (A) (A) (A) (A) (A) (A) (A) (A) (A) (A) (A)
                 (A) (A) (A) (A) (A) (A) (A) (A) (A) (A) (A) (A)
                 (A) (A) (A) (A) (A) (A) (A) (A) (A) (A) (A) (A)
                 (A) (A) (A) (A) (A) (A) (A) (A) (A) (A) (A) (A)
                 (A) (A) (A) (A) (A) (A) (A) (A) (A) (A) (A) (A)
                 (A) (A) (A) (A) (A) (A) (A) (A) (A) (A) (A) (A)
                 (A) (A) (A) (A) (A) (A) (A) (A) (A) (A) (A) (A)
                 (A) (A) (A) (A) (A) (A) (A) (A) (A) (A) (A) (A)
                 (A) (A) (A) (A) (A) (A) (A) (A) (A) (A) (A) (A)
                 (A) (A) (A) (A) (A) (A) (A) (A) (A) (A) (A) (A)
                 (A) (A) (A) (A) (A) (A) (A) (A) (A) (A) (A) (A)
                 (A) (A) (A) (A) (A) (A) (A) (A) (A) (A) (A) (A)
                 (A) (A) (A) (A) (A) (A) (A) (A) (A) (A) (A) (A)
                 (A) (A) (A) (A) (A) (A) (A) (A) (A) (A) (A) (A)
                 (A) (A) (A) (A) (A) (A) (A) (A) (A) (A) (A) (A)
                 (A) (A) (A) (A) (A) (A) (A) (A) (A) (A) (A) (A)
                 (A) (A) (A) (A) (A) (A) (A) (A) (A) (A) (A) (A)
                 (A) (A) (A) (A) (A) (A) (A) (A) (A) (A) (A) (A)
                 (A) (A) (A) (A) (A) (A) (A) (A) (A) (A) (A) (A)
                 (A) (A) (A) (A) (A) (A) (A) (A) (A) (A) (A) (A)
                 (A) (A) (A) (A) (A) (A) (A) (A) (A) (A) (A) (A)
                 (A) (A) (A) (A) (A) (A) (A) (A) (A) (A) (A) (A)
                 (A) (A) (A) (A) (A) (A) (A) (A) (A) (A) (A) (A)
                 (A) (A) (A) (A) (A) (A) (A) (A) (A) (A) (A) (A)
                 (A) (A) (A) (A) (A) (A) (A) (A) (A) (A) (A) (A)
                 (A) (A) (A) (A) (A) (A) (A) (A) (A) (A) (A) (A)
                 (A) (A) (A) (A) (A) (A) (A) (A) (A) (A) (A) (A)
                 (A) (A) (A) (A) (A) (A) (A) (A) (A) (A) (A) (A)
                 (A) (A) (A) (A) (A) (A) (A) (A) (A) (A) (A) (A)
                 (A) (A) (A) (A) (A) (A) (A) (A) (A) (A) (A) (A)
                 (A) (A) (A) (A) (A) (A) (A) (A) (A) (A) (A) (A)
                 (A) (A) (A) (A) (A) (A) (A) (A) (A) (A) (A) (A)
                 (A) (A) (A) (A) (A) (A) (A) (A) (A) (A) (A) (A)
                 (A) (A) (A) (A) (A) (A) (A) (A) (A) (A) (A) (A)
                 (A) (A) (A) (A) (A) (A) (A) (A) (A) (A) (A) (A)
                 (A) (A) (A) (A) (A) (A) (A) (A) (A) (A) (A) (A)
                 (A) (A) (A) (A) (A) (A) (A) (A) (A) (A) (A) (A)
                 (A) (A) (A) (A) (A) (A) (A) (A) (A) (A) (A) (A)
                 (A) (A) (A) (A) (A) (A) (A) (A) (A) (A) (A) (A)
                 (A) (A) (A) (A) (A) (A) (A) (A) (A) (A) (A) (A)
                 (A) (A) (A) (A) (A) (A) (A) (A) (A) (A) (A) (A)
                 (A) (A) (A) (A) (A) (A) (A) (A) (A) (A) (A) (A)
                 (A) (A) (A) (A) (A) (A) (A) (A) (A) (A) (A) (A)
                 (A) (A) (A) (A) (A) (A) (A) (A) (A) (A)
 The electronic state is 1-A.
 Alpha  occ. eigenvalues --  -19.19304 -14.50843 -14.50843 -14.45186 -10.35252
 Alpha  occ. eigenvalues --  -10.34109 -10.34106 -10.33913 -10.33913 -10.32117
 Alpha  occ. eigenvalues --  -10.32117 -10.32064 -10.32063 -10.28117 -10.28117
 Alpha  occ. eigenvalues --  -10.25189  -3.76723  -2.10537  -2.09872  -2.08450
 Alpha  occ. eigenvalues --   -1.10137  -1.07739  -1.06157  -1.04152  -0.90489
 Alpha  occ. eigenvalues --   -0.86173  -0.83392  -0.82248  -0.82221  -0.80291
 Alpha  occ. eigenvalues --   -0.74653  -0.73045  -0.72408  -0.70121  -0.66717
 Alpha  occ. eigenvalues --   -0.61621  -0.60438  -0.59180  -0.58549  -0.57959
 Alpha  occ. eigenvalues --   -0.57114  -0.56867  -0.56382  -0.52553  -0.51860
 Alpha  occ. eigenvalues --   -0.50667  -0.50200  -0.49793  -0.49611  -0.47857
 Alpha  occ. eigenvalues --   -0.47785  -0.47784  -0.47191  -0.46646  -0.46564
 Alpha  occ. eigenvalues --   -0.46328  -0.44804  -0.44572  -0.44301  -0.43792
 Alpha  occ. eigenvalues --   -0.43341  -0.39894  -0.38220  -0.34386  -0.34382
 Alpha  occ. eigenvalues --   -0.31725  -0.30475  -0.29682  -0.28809  -0.26095
 Alpha virt. eigenvalues --    0.02633   0.05152   0.06607   0.09428   0.10190
 Alpha virt. eigenvalues --    0.11576   0.11891   0.13317   0.14617   0.14753
 Alpha virt. eigenvalues --    0.15211   0.15511   0.16149   0.16429   0.16862
 Alpha virt. eigenvalues --    0.17144   0.17612   0.18016   0.18499   0.18925
 Alpha virt. eigenvalues --    0.19573   0.20262   0.20624   0.21175   0.21684
 Alpha virt. eigenvalues --    0.21997   0.22066   0.22710   0.22966   0.23343
 Alpha virt. eigenvalues --    0.24088   0.24209   0.24977   0.25758   0.25926
 Alpha virt. eigenvalues --    0.25956   0.26721   0.28130   0.29124   0.29140
 Alpha virt. eigenvalues --    0.31190   0.31362   0.31399   0.32217   0.32288
 Alpha virt. eigenvalues --    0.33356   0.33478   0.34317   0.34490   0.35737
 Alpha virt. eigenvalues --    0.35812   0.37048   0.37817   0.38044   0.38903
 Alpha virt. eigenvalues --    0.39278   0.39571   0.39576   0.40227   0.40822
 Alpha virt. eigenvalues --    0.41457   0.42058   0.42275   0.43055   0.43397
 Alpha virt. eigenvalues --    0.44417   0.44648   0.44918   0.45174   0.45907
 Alpha virt. eigenvalues --    0.46516   0.47289   0.47451   0.47832   0.47851
 Alpha virt. eigenvalues --    0.48153   0.49609   0.49659   0.49848   0.50141
 Alpha virt. eigenvalues --    0.50166   0.50635   0.51312   0.51329   0.51783
 Alpha virt. eigenvalues --    0.51936   0.52653   0.53374   0.53748   0.53784
 Alpha virt. eigenvalues --    0.54098   0.54875   0.55025   0.55147   0.56163
 Alpha virt. eigenvalues --    0.56439   0.56813   0.57559   0.57771   0.58325
 Alpha virt. eigenvalues --    0.59265   0.60107   0.60529   0.61311   0.61366
 Alpha virt. eigenvalues --    0.61944   0.62446   0.63230   0.63538   0.64614
 Alpha virt. eigenvalues --    0.65323   0.65911   0.66624   0.67115   0.67227
 Alpha virt. eigenvalues --    0.68704   0.69883   0.70069   0.70631   0.71491
 Alpha virt. eigenvalues --    0.73792   0.73918   0.74055   0.74698   0.75998
 Alpha virt. eigenvalues --    0.76241   0.76598   0.77313   0.77937   0.79944
 Alpha virt. eigenvalues --    0.80927   0.81269   0.81783   0.83026   0.84888
 Alpha virt. eigenvalues --    0.85322   0.85397   0.86530   0.86755   0.87536
 Alpha virt. eigenvalues --    0.88189   0.88899   0.89721   0.90221   0.90773
 Alpha virt. eigenvalues --    0.91672   0.91984   0.92776   0.93424   0.94676
 Alpha virt. eigenvalues --    0.94690   0.95118   0.95765   0.96934   0.97242
 Alpha virt. eigenvalues --    0.98076   0.98496   0.99104   1.01221   1.01895
 Alpha virt. eigenvalues --    1.02592   1.02868   1.03104   1.03685   1.04214
 Alpha virt. eigenvalues --    1.04809   1.05242   1.06315   1.06350   1.06522
 Alpha virt. eigenvalues --    1.07495   1.08180   1.08489   1.08561   1.09626
 Alpha virt. eigenvalues --    1.09666   1.10505   1.10890   1.11187   1.11424
 Alpha virt. eigenvalues --    1.11736   1.13485   1.14441   1.15802   1.15890
 Alpha virt. eigenvalues --    1.16159   1.17276   1.18539   1.19276   1.19288
 Alpha virt. eigenvalues --    1.19987   1.20214   1.21081   1.21559   1.23344
 Alpha virt. eigenvalues --    1.23786   1.24408   1.24868   1.25436   1.26664
 Alpha virt. eigenvalues --    1.27470   1.27478   1.27993   1.28482   1.29023
 Alpha virt. eigenvalues --    1.29951   1.30793   1.31372   1.32272   1.33340
 Alpha virt. eigenvalues --    1.34041   1.34118   1.34605   1.35486   1.36101
 Alpha virt. eigenvalues --    1.37203   1.37627   1.37690   1.38188   1.38735
 Alpha virt. eigenvalues --    1.39136   1.40251   1.40418   1.41177   1.41884
 Alpha virt. eigenvalues --    1.42215   1.42419   1.43940   1.44031   1.44272
 Alpha virt. eigenvalues --    1.45374   1.45792   1.46594   1.46873   1.47479
 Alpha virt. eigenvalues --    1.47613   1.48098   1.50849   1.52273   1.52575
 Alpha virt. eigenvalues --    1.52702   1.52757   1.53713   1.54525   1.54597
 Alpha virt. eigenvalues --    1.55004   1.56677   1.57183   1.58295   1.58314
 Alpha virt. eigenvalues --    1.59319   1.59793   1.60537   1.61036   1.61426
 Alpha virt. eigenvalues --    1.61719   1.62168   1.63105   1.63866   1.64920
 Alpha virt. eigenvalues --    1.65644   1.66072   1.66672   1.67675   1.67809
 Alpha virt. eigenvalues --    1.68654   1.69214   1.69698   1.69782   1.71142
 Alpha virt. eigenvalues --    1.71960   1.72055   1.73869   1.74014   1.75072
 Alpha virt. eigenvalues --    1.75168   1.76304   1.77806   1.78723   1.79605
 Alpha virt. eigenvalues --    1.80245   1.82364   1.83165   1.83599   1.84443
 Alpha virt. eigenvalues --    1.85584   1.85712   1.86714   1.87156   1.88661
 Alpha virt. eigenvalues --    1.89609   1.90415   1.91224   1.91858   1.92632
 Alpha virt. eigenvalues --    1.94037   1.95004   1.95921   1.97779   1.98783
 Alpha virt. eigenvalues --    1.99109   1.99567   2.01492   2.03448   2.05229
 Alpha virt. eigenvalues --    2.07002   2.08385   2.10152   2.10276   2.10833
 Alpha virt. eigenvalues --    2.11591   2.15503   2.16135   2.16536   2.18611
 Alpha virt. eigenvalues --    2.19581   2.20854   2.21608   2.23159   2.24338
 Alpha virt. eigenvalues --    2.25303   2.26513   2.28327   2.29074   2.29167
 Alpha virt. eigenvalues --    2.30007   2.30859   2.32411   2.35208   2.36063
 Alpha virt. eigenvalues --    2.36141   2.39038   2.39550   2.40332   2.42409
 Alpha virt. eigenvalues --    2.42664   2.43254   2.47225   2.48169   2.49275
 Alpha virt. eigenvalues --    2.54253   2.55207   2.56367   2.59572   2.60413
 Alpha virt. eigenvalues --    2.61352   2.62455   2.63496   2.64105   2.65558
 Alpha virt. eigenvalues --    2.66363   2.66950   2.68251   2.68728   2.69429
 Alpha virt. eigenvalues --    2.70642   2.72469   2.73071   2.73937   2.75047
 Alpha virt. eigenvalues --    2.75547   2.75721   2.76059   2.77294   2.78514
 Alpha virt. eigenvalues --    2.78818   2.80126   2.80731   2.81336   2.83284
 Alpha virt. eigenvalues --    2.83991   2.85443   2.86185   2.86800   2.87941
 Alpha virt. eigenvalues --    2.88678   2.89258   2.89381   2.89895   2.90474
 Alpha virt. eigenvalues --    2.90682   2.91388   2.91578   2.92178   2.93754
 Alpha virt. eigenvalues --    2.94047   2.94416   2.95235   2.95322   2.96282
 Alpha virt. eigenvalues --    2.96414   2.97383   2.98053   2.98847   2.99344
 Alpha virt. eigenvalues --    2.99517   3.00190   3.00773   3.01219   3.01966
 Alpha virt. eigenvalues --    3.02553   3.03094   3.03940   3.03970   3.05124
 Alpha virt. eigenvalues --    3.06448   3.06891   3.07133   3.07920   3.08991
 Alpha virt. eigenvalues --    3.09505   3.10083   3.10561   3.10575   3.10948
 Alpha virt. eigenvalues --    3.12495   3.12729   3.13321   3.14282   3.14459
 Alpha virt. eigenvalues --    3.15636   3.15850   3.16295   3.16889   3.17458
 Alpha virt. eigenvalues --    3.18141   3.19880   3.21089   3.21495   3.21605
 Alpha virt. eigenvalues --    3.21737   3.22371   3.22455   3.23532   3.25213
 Alpha virt. eigenvalues --    3.25292   3.26647   3.26739   3.27330   3.27764
 Alpha virt. eigenvalues --    3.28083   3.28789   3.29197   3.29911   3.30914
 Alpha virt. eigenvalues --    3.32540   3.32673   3.33787   3.34310   3.34641
 Alpha virt. eigenvalues --    3.35382   3.36359   3.36915   3.37295   3.38357
 Alpha virt. eigenvalues --    3.38409   3.38513   3.40162   3.40710   3.41714
 Alpha virt. eigenvalues --    3.42657   3.43111   3.43340   3.43569   3.44560
 Alpha virt. eigenvalues --    3.45653   3.46192   3.46404   3.46739   3.47168
 Alpha virt. eigenvalues --    3.47512   3.47809   3.47964   3.50227   3.51421
 Alpha virt. eigenvalues --    3.51984   3.52429   3.52786   3.52945   3.53710
 Alpha virt. eigenvalues --    3.54077   3.55748   3.56685   3.57522   3.57617
 Alpha virt. eigenvalues --    3.58084   3.58966   3.59086   3.59307   3.61002
 Alpha virt. eigenvalues --    3.61176   3.62486   3.62489   3.63475   3.64193
 Alpha virt. eigenvalues --    3.65168   3.65678   3.66945   3.67290   3.68109
 Alpha virt. eigenvalues --    3.68335   3.68346   3.68645   3.69655   3.70735
 Alpha virt. eigenvalues --    3.72114   3.72654   3.73138   3.73544   3.73948
 Alpha virt. eigenvalues --    3.74394   3.74895   3.75851   3.75903   3.76232
 Alpha virt. eigenvalues --    3.77441   3.78114   3.78374   3.79571   3.80447
 Alpha virt. eigenvalues --    3.81454   3.82638   3.83218   3.83790   3.84194
 Alpha virt. eigenvalues --    3.85279   3.85841   3.86071   3.86407   3.86709
 Alpha virt. eigenvalues --    3.88669   3.89463   3.90033   3.90038   3.90772
 Alpha virt. eigenvalues --    3.91796   3.93344   3.94782   3.94833   3.96259
 Alpha virt. eigenvalues --    3.96370   3.98562   3.99418   3.99538   4.01625
 Alpha virt. eigenvalues --    4.01664   4.02008   4.02573   4.03510   4.04141
 Alpha virt. eigenvalues --    4.04337   4.05469   4.05851   4.08892   4.09017
 Alpha virt. eigenvalues --    4.10313   4.10636   4.11799   4.12544   4.12833
 Alpha virt. eigenvalues --    4.14414   4.15111   4.15531   4.16022   4.16345
 Alpha virt. eigenvalues --    4.16860   4.17703   4.18228   4.18915   4.19865
 Alpha virt. eigenvalues --    4.20148   4.20577   4.20720   4.21445   4.21920
 Alpha virt. eigenvalues --    4.22671   4.23248   4.23493   4.24234   4.24618
 Alpha virt. eigenvalues --    4.25138   4.26257   4.26682   4.27940   4.28154
 Alpha virt. eigenvalues --    4.28831   4.30100   4.30119   4.30496   4.30955
 Alpha virt. eigenvalues --    4.31765   4.32132   4.32282   4.32734   4.34505
 Alpha virt. eigenvalues --    4.35054   4.35072   4.35591   4.36783   4.37039
 Alpha virt. eigenvalues --    4.37967   4.38403   4.38917   4.39366   4.41484
 Alpha virt. eigenvalues --    4.41778   4.42337   4.44540   4.44732   4.45019
 Alpha virt. eigenvalues --    4.45785   4.47629   4.47900   4.48884   4.49174
 Alpha virt. eigenvalues --    4.49795   4.51822   4.52928   4.53705   4.54504
 Alpha virt. eigenvalues --    4.56903   4.57257   4.58430   4.59012   4.59905
 Alpha virt. eigenvalues --    4.60970   4.63898   4.64011   4.67486   4.68865
 Alpha virt. eigenvalues --    4.70270   4.70475   4.73615   4.74913   4.75026
 Alpha virt. eigenvalues --    4.76130   4.77304   4.78389   4.78835   4.80016
 Alpha virt. eigenvalues --    4.80736   4.81884   4.82144   4.84087   4.84257
 Alpha virt. eigenvalues --    4.84684   4.84748   4.86750   4.88155   4.89844
 Alpha virt. eigenvalues --    4.91346   4.91362   4.92576   4.94720   4.94978
 Alpha virt. eigenvalues --    4.97412   4.99605   5.02582   5.04480   5.05389
 Alpha virt. eigenvalues --    5.05946   5.06198   5.06969   5.07363   5.07464
 Alpha virt. eigenvalues --    5.09670   5.12218   5.13110   5.13310   5.15053
 Alpha virt. eigenvalues --    5.16289   5.16790   5.17277   5.18557   5.18750
 Alpha virt. eigenvalues --    5.20303   5.22234   5.22699   5.22867   5.23324
 Alpha virt. eigenvalues --    5.24051   5.24414   5.24867   5.25969   5.26605
 Alpha virt. eigenvalues --    5.26938   5.28304   5.29419   5.29681   5.30174
 Alpha virt. eigenvalues --    5.30524   5.31140   5.31894   5.32606   5.34210
 Alpha virt. eigenvalues --    5.34755   5.35718   5.36173   5.37078   5.37647
 Alpha virt. eigenvalues --    5.37885   5.38293   5.40137   5.41045   5.42285
 Alpha virt. eigenvalues --    5.42428   5.43472   5.45737   5.45862   5.48074
 Alpha virt. eigenvalues --    5.48708   5.49005   5.50182   5.50915   5.51358
 Alpha virt. eigenvalues --    5.51829   5.53501   5.53842   5.55308   5.56020
 Alpha virt. eigenvalues --    5.57436   5.60522   5.60997   5.62465   5.62961
 Alpha virt. eigenvalues --    5.63950   5.65971   5.66155   5.67877   5.68082
 Alpha virt. eigenvalues --    5.68489   5.71142   5.72586   5.73759   5.74712
 Alpha virt. eigenvalues --    5.74772   5.76548   5.77079   5.77957   5.78449
 Alpha virt. eigenvalues --    5.79801   5.80680   5.80919   5.81344   5.81785
 Alpha virt. eigenvalues --    5.82494   5.85129   5.87509   5.92572   5.94803
 Alpha virt. eigenvalues --    6.05703   6.10586   6.11571   6.11745   6.13942
 Alpha virt. eigenvalues --    6.15361   6.18449   6.24252   6.25698   6.28485
 Alpha virt. eigenvalues --    6.31320   6.33808   6.51186   6.58104   6.77973
 Alpha virt. eigenvalues --    6.93888   6.96823   7.21142   7.25759  22.91240
 Alpha virt. eigenvalues --   23.10687  23.29570  23.39687  23.41723  23.50285
 Alpha virt. eigenvalues --   23.55703  23.70244  23.74800  23.76836  23.80099
 Alpha virt. eigenvalues --   23.84125  32.89076  32.89450  33.08370  37.52021
 Alpha virt. eigenvalues --   40.87777  41.91336  44.11477  59.86660 363.52060
          Condensed to atoms (all electrons):
               1          2          3          4          5          6
     1  C    5.492063  -0.162475   0.013392   0.124141   0.019626  -0.008229
     2  C   -0.162475   5.492068   0.124142   0.013407   0.019625  -0.005700
     3  C    0.013392   0.124142   5.991576  -0.277878   0.274033   0.385229
     4  C    0.124141   0.013407  -0.277878   5.991553   0.274035   0.021202
     5  C    0.019626   0.019625   0.274033   0.274035   4.513134  -0.034869
     6  H   -0.008229  -0.005700   0.385229   0.021202  -0.034869   0.527648
     7  H   -0.005700  -0.008230   0.021202   0.385231  -0.034869  -0.000158
     8  O    0.030326   0.030326  -0.145739  -0.145738   0.659898   0.008274
     9  N    0.356722   0.356720  -0.103922  -0.103920   0.004363   0.003714
    10  C    0.212498  -0.004987  -0.020367   0.004291  -0.004134  -0.003074
    11  H   -0.032207   0.001102  -0.001734   0.000080  -0.000192   0.000090
    12  H   -0.049866  -0.000441  -0.001977  -0.000176   0.000986   0.000683
    13  C   -0.004987   0.212490   0.004291  -0.020369  -0.004133   0.000140
    14  H    0.001102  -0.032207   0.000080  -0.001734  -0.000192   0.000002
    15  H   -0.000441  -0.049865  -0.000176  -0.001977   0.000986  -0.000005
    16  N   -0.020799   0.000615  -0.000338   0.000151   0.000097   0.000194
    17  N    0.000615  -0.020801   0.000151  -0.000338   0.000097  -0.000005
    18  C    0.000880   0.000880  -0.000066  -0.000066  -0.000038   0.000007
    19  H   -0.000000  -0.000000   0.000113   0.000113  -0.000004  -0.000001
    20  H   -0.000141  -0.000098  -0.000003  -0.000006   0.000001  -0.000000
    21  H   -0.000098  -0.000141  -0.000006  -0.000003   0.000001  -0.000000
    22  C    0.012398   0.000121   0.000727   0.000014  -0.000076  -0.000026
    23  H   -0.000830  -0.000012   0.000024   0.000002  -0.000001  -0.000000
    24  H    0.001623   0.000004  -0.000015  -0.000003   0.000000   0.000012
    25  H   -0.002092   0.000002  -0.000177  -0.000006   0.000008  -0.000007
    26  C    0.000368   0.000033   0.001393  -0.000334  -0.000007  -0.000158
    27  H   -0.004704  -0.000071  -0.000500   0.000006   0.000007   0.000010
    28  H    0.000171   0.000060   0.000025   0.000014   0.000009  -0.000007
    29  H    0.011906  -0.000251   0.005225   0.000495  -0.000420   0.000219
    30  C    0.000121   0.012397   0.000014   0.000727  -0.000076   0.000001
    31  H    0.000004   0.001623  -0.000003  -0.000015   0.000000  -0.000000
    32  H   -0.000012  -0.000830   0.000002   0.000024  -0.000001   0.000000
    33  H    0.000002  -0.002092  -0.000006  -0.000177   0.000008   0.000000
    34  C    0.000033   0.000367  -0.000334   0.001392  -0.000007  -0.000001
    35  H    0.000060   0.000172   0.000014   0.000025   0.000009  -0.000000
    36  H   -0.000071  -0.004704   0.000006  -0.000500   0.000007  -0.000000
    37  H   -0.000252   0.011907   0.000495   0.005225  -0.000421   0.000003
    38  H   -0.000082  -0.000082   0.000070   0.000070  -0.000032   0.000001
    39  Ir  -0.056703  -0.056705  -0.006765  -0.006764   0.002753  -0.000664
               7          8          9         10         11         12
     1  C   -0.005700   0.030326   0.356722   0.212498  -0.032207  -0.049866
     2  C   -0.008230   0.030326   0.356720  -0.004987   0.001102  -0.000441
     3  C    0.021202  -0.145739  -0.103922  -0.020367  -0.001734  -0.001977
     4  C    0.385231  -0.145738  -0.103920   0.004291   0.000080  -0.000176
     5  C   -0.034869   0.659898   0.004363  -0.004134  -0.000192   0.000986
     6  H   -0.000158   0.008274   0.003714  -0.003074   0.000090   0.000683
     7  H    0.527647   0.008274   0.003714   0.000140   0.000002  -0.000005
     8  O    0.008274   8.082933   0.001033  -0.000690   0.000000   0.000023
     9  N    0.003714   0.001033   6.650840  -0.010678  -0.006654   0.004521
    10  C    0.000140  -0.000690  -0.010678   4.916340   0.437860   0.442488
    11  H    0.000002   0.000000  -0.006654   0.437860   0.529156  -0.015121
    12  H   -0.000005   0.000023   0.004521   0.442488  -0.015121   0.529469
    13  C   -0.003074  -0.000690  -0.010675  -0.002501  -0.000196   0.000089
    14  H    0.000090   0.000000  -0.006654  -0.000196  -0.000038  -0.000001
    15  H    0.000683   0.000023   0.004521   0.000089  -0.000001  -0.000000
    16  N   -0.000005   0.000006  -0.015117   0.258536  -0.036504  -0.025878
    17  N    0.000194   0.000006  -0.015115   0.000648   0.000101  -0.000042
    18  C    0.000007  -0.000000  -0.021975   0.000951  -0.000128   0.000042
    19  H   -0.000001  -0.000000  -0.000063  -0.000175   0.000011  -0.000004
    20  H   -0.000000   0.000000   0.000634  -0.000081   0.000003   0.000011
    21  H   -0.000000   0.000000   0.000634   0.000101  -0.000007   0.000002
    22  C    0.000001  -0.000001  -0.003458  -0.042781  -0.004350  -0.006221
    23  H    0.000000  -0.000000   0.000067   0.008580   0.000285  -0.000333
    24  H   -0.000000   0.000000   0.000078  -0.010869  -0.002431   0.004525
    25  H    0.000000  -0.000000   0.000144  -0.004040   0.002433  -0.000232
    26  C   -0.000001   0.000005   0.001037  -0.035287   0.005456  -0.013073
    27  H   -0.000000   0.000000   0.000454  -0.007251  -0.000197   0.005803
    28  H   -0.000000  -0.000000  -0.000002   0.006389  -0.000101  -0.000125
    29  H    0.000003  -0.000010  -0.004555  -0.014288   0.000271  -0.002549
    30  C   -0.000026  -0.000001  -0.003457  -0.000212  -0.000003   0.000001
    31  H    0.000012   0.000000   0.000078   0.000006  -0.000000  -0.000000
    32  H   -0.000000  -0.000000   0.000067  -0.000015  -0.000000   0.000000
    33  H   -0.000007  -0.000000   0.000145  -0.000014  -0.000004   0.000000
    34  C   -0.000158   0.000005   0.001036   0.000129  -0.000006   0.000006
    35  H   -0.000007  -0.000000  -0.000002  -0.000009  -0.000000   0.000000
    36  H    0.000010   0.000000   0.000454   0.000001   0.000000  -0.000000
    37  H    0.000219  -0.000010  -0.004555   0.000028   0.000001  -0.000001
    38  H    0.000001  -0.000000  -0.003906  -0.001368  -0.000297   0.000032
    39  Ir  -0.000664   0.000162   0.227304  -0.027971  -0.006478   0.010604
              13         14         15         16         17         18
     1  C   -0.004987   0.001102  -0.000441  -0.020799   0.000615   0.000880
     2  C    0.212490  -0.032207  -0.049865   0.000615  -0.020801   0.000880
     3  C    0.004291   0.000080  -0.000176  -0.000338   0.000151  -0.000066
     4  C   -0.020369  -0.001734  -0.001977   0.000151  -0.000338  -0.000066
     5  C   -0.004133  -0.000192   0.000986   0.000097   0.000097  -0.000038
     6  H    0.000140   0.000002  -0.000005   0.000194  -0.000005   0.000007
     7  H   -0.003074   0.000090   0.000683  -0.000005   0.000194   0.000007
     8  O   -0.000690   0.000000   0.000023   0.000006   0.000006  -0.000000
     9  N   -0.010675  -0.006654   0.004521  -0.015117  -0.015115  -0.021975
    10  C   -0.002501  -0.000196   0.000089   0.258536   0.000648   0.000951
    11  H   -0.000196  -0.000038  -0.000001  -0.036504   0.000101  -0.000128
    12  H    0.000089  -0.000001  -0.000000  -0.025878  -0.000042   0.000042
    13  C    4.916349   0.437859   0.442490   0.000648   0.258535   0.000950
    14  H    0.437859   0.529151  -0.015120   0.000101  -0.036502  -0.000128
    15  H    0.442490  -0.015120   0.529464  -0.000042  -0.025878   0.000042
    16  N    0.000648   0.000101  -0.000042   6.363538  -0.007028  -0.006725
    17  N    0.258535  -0.036502  -0.025878  -0.007028   6.363533  -0.006725
    18  C    0.000950  -0.000128   0.000042  -0.006725  -0.006725   5.225483
    19  H   -0.000175   0.000011  -0.000004  -0.002021  -0.002021   0.391565
    20  H    0.000101  -0.000007   0.000002  -0.001354   0.000900   0.395189
    21  H   -0.000081   0.000003   0.000011   0.000900  -0.001354   0.395190
    22  C   -0.000212  -0.000003   0.000001   0.255622   0.000379  -0.005667
    23  H   -0.000015  -0.000000   0.000000  -0.030958   0.000067  -0.002444
    24  H    0.000006  -0.000000  -0.000000  -0.019251  -0.000016   0.000212
    25  H   -0.000014  -0.000004   0.000000  -0.038120   0.000091   0.000387
    26  C    0.000129  -0.000006   0.000006   0.254541   0.000847  -0.005702
    27  H    0.000001   0.000000  -0.000000  -0.021677  -0.000031   0.000211
    28  H   -0.000009  -0.000000   0.000000  -0.033476   0.000160  -0.004871
    29  H    0.000028   0.000001  -0.000001  -0.034169   0.000282  -0.001231
    30  C   -0.042780  -0.004349  -0.006221   0.000379   0.255622  -0.005667
    31  H   -0.010869  -0.002431   0.004525  -0.000016  -0.019251   0.000212
    32  H    0.008580   0.000285  -0.000333   0.000067  -0.030958  -0.002445
    33  H   -0.004039   0.002433  -0.000232   0.000091  -0.038121   0.000387
    34  C   -0.035287   0.005456  -0.013073   0.000847   0.254542  -0.005700
    35  H    0.006389  -0.000101  -0.000125   0.000160  -0.033477  -0.004871
    36  H   -0.007250  -0.000197   0.005803  -0.000031  -0.021678   0.000211
    37  H   -0.014289   0.000271  -0.002549   0.000282  -0.034168  -0.001231
    38  H   -0.001368  -0.000297   0.000032  -0.008685  -0.008685   0.038122
    39  Ir  -0.027971  -0.006478   0.010604   0.192270   0.192271   0.209272
              19         20         21         22         23         24
     1  C   -0.000000  -0.000141  -0.000098   0.012398  -0.000830   0.001623
     2  C   -0.000000  -0.000098  -0.000141   0.000121  -0.000012   0.000004
     3  C    0.000113  -0.000003  -0.000006   0.000727   0.000024  -0.000015
     4  C    0.000113  -0.000006  -0.000003   0.000014   0.000002  -0.000003
     5  C   -0.000004   0.000001   0.000001  -0.000076  -0.000001   0.000000
     6  H   -0.000001  -0.000000  -0.000000  -0.000026  -0.000000   0.000012
     7  H   -0.000001  -0.000000  -0.000000   0.000001   0.000000  -0.000000
     8  O   -0.000000   0.000000   0.000000  -0.000001  -0.000000   0.000000
     9  N   -0.000063   0.000634   0.000634  -0.003458   0.000067   0.000078
    10  C   -0.000175  -0.000081   0.000101  -0.042781   0.008580  -0.010869
    11  H    0.000011   0.000003  -0.000007  -0.004350   0.000285  -0.002431
    12  H   -0.000004   0.000011   0.000002  -0.006221  -0.000333   0.004525
    13  C   -0.000175   0.000101  -0.000081  -0.000212  -0.000015   0.000006
    14  H    0.000011  -0.000007   0.000003  -0.000003  -0.000000  -0.000000
    15  H   -0.000004   0.000002   0.000011   0.000001   0.000000  -0.000000
    16  N   -0.002021  -0.001354   0.000900   0.255622  -0.030958  -0.019251
    17  N   -0.002021   0.000900  -0.001354   0.000379   0.000067  -0.000016
    18  C    0.391565   0.395189   0.395190  -0.005667  -0.002444   0.000212
    19  H    0.627529  -0.025838  -0.025836   0.000926   0.000018  -0.000015
    20  H   -0.025838   0.601774  -0.015095  -0.002346   0.003489  -0.000183
[...]
 00002872,0.00007108,-0.00000538,0.00000436,-0.00000137,-0.00000215,0.0
 0000319,0.00000138,-0.00000215,0.00002249,-0.00002269,0.00000239,0.000
 28125,-0.00000131,0.00000642,-0.00004838,0.00001394,-0.00003032,0.0000
 0265,-0.00000339,0.00000395,0.00001390,0.00000341,-0.00000052,0.001029
 69,-0.00004970,-0.00147544,-0.00057752,0.00043995,-0.00022123,-0.00035
 230,0.00036165,-0.00003815,0.00008859,-0.00003757,0.00004431,-0.009816
 50,0.00021494,-0.00589125,0.00001144,0.00009737,-0.00029017,0.00027621
 ,-0.00022282,0.00028778,-0.00008218,0.00008940,0.00017690,0.00005113,-
 0.00001597,0.00002927,0.00001821,-0.00001185,-0.00001151,-0.00000099,-
 0.00001842,-0.00000032,0.00000344,0.00000980,-0.00000232,0.00000023,-0
 .00000252,-0.00000007,-0.00000005,0.00002155,0.00000695,0.00000330,0.0
 0001982,0.00000731,0.00001193,-0.00002416,0.00000413,-0.00002060,-0.00
 000586,0.00000405,0.00021693,-0.00018798,0.00061644,0.00018173,-0.0000
 3601,-0.00007665,-0.00007557,0.00023477,0.00034859,-0.00008679,-0.0001
 4243,-0.00006875,0.04463843,-0.05776616,0.02248565,-0.04571292,0.05710
 791,0.00000253,-0.00001922,-0.00002015,0.00029637,0.00062057,-0.000173
 68,-0.00000246,-0.00006124,0.00000394,-0.00009481,-0.00027032,0.000115
 79,0.00004645,0.00009373,0.00000678,0.00000017,-0.00000645,-0.00000091
 ,0.00000642,0.00000971,-0.00001699,-0.00007674,-0.00003694,0.00001013,
 0.00008300,-0.00027211,0.00005660,-0.00002191,-0.00002220,0.00000020,-
 0.00000085,-0.00000445,0.00000028,0.00000021,-0.00000771,-0.00000177,0
 .00236507,-0.00109331,-0.00579687,-0.00185550,0.00003144,-0.00089301,0
 .00020137,0.00003203,0.00008736,-0.00002614,-0.00026096,-0.00007942,-0
 .03120997,0.00339346,-0.02013066,-0.00001300,0.00007892,0.00024087,0.0
 0016164,-0.00008088,0.00002722,-0.00005546,0.00016175,0.00000314,0.000
 26413,-0.00002443,-0.00006308,-0.00002743,-0.00000632,0.00000998,0.000
 00606,-0.00001386,0.00000130,0.00001393,-0.00000835,-0.00000463,0.0000
 0177,-0.00000530,-0.00000469,-0.00000124,0.00001728,-0.00002131,0.0000
 0165,0.00000256,-0.00000247,-0.00000377,-0.00000414,0.00001432,0.00000
 503,0.00000013,0.00000824,-0.00226950,-0.00026266,0.00095313,0.0001992
 0,0.00003825,-0.00005717,0.00088891,0.00027963,-0.00035291,0.00015258,
 -0.00021990,0.00033009,-0.09668978,0.01944945,-0.09643698,0.11344242,-
 0.01907521,0.11272206,-0.00000557,0.00006462,0.00005442,-0.00019129,-0
 .00014357,0.00002432,0.00000188,-0.00001072,0.00000687,0.00011949,0.00
 009027,0.00001346,-0.00008432,-0.00008661,0.00001504,0.00000299,0.0000
 0763,-0.00000302,-0.00001227,0.00000072,-0.00001037,0.00009103,0.00002
 696,-0.00001217,-0.00000473,0.00006472,-0.00022817,-0.00004470,-0.0000
 1648,-0.00002446,-0.00000210,-0.00000171,0.00000293,0.00001204,0.00001
 575,0.00000487,0.00071037,-0.00200228,-0.00071786,0.00001208,0.0000082
 8,0.00008910,-0.00000267,-0.00003937,-0.00028219,-0.00008320,0.0002131
 0,-0.00013440,-0.00141380,0.00259549,0.00147045,0.00007844,0.00011385,
 0.00009481,0.00010954,-0.00004710,0.00011022,-0.00006889,0.00002835,0.
 00003580,0.00003544,-0.00010875,-0.00001991,0.00004648,0.00000048,-0.0
 0004524,-0.00000139,-0.00000345,-0.00000064,-0.00000518,0.00002834,0.0
 0001341,0.00000007,-0.00000366,0.00000670,-0.00001812,0.00002874,0.000
 08530,0.00001684,0.00001240,-0.00003072,-0.00000611,-0.00000330,0.0000
 0165,0.00001366,-0.00000022,-0.00001067,0.00016078,0.00133398,0.000068
 02,0.00011628,-0.00024923,0.00023297,-0.00008614,0.00013186,-0.0001351
 8,-0.00004525,-0.00026689,-0.00009869,-0.06521241,0.06024770,0.0028887
 4,-0.00432062,0.02696573,0.00231028,0.06346246,0.00013254,0.00013369,-
 0.00009647,0.00016795,-0.00034970,0.00000861,-0.00013279,0.00007670,0.
 00002172,-0.00011772,-0.00009465,0.00003720,0.00026073,-0.00001002,-0.
 00001061,-0.00001326,-0.00000855,0.00000677,-0.00003306,0.00001509,-0.
 00001939,-0.00026398,0.00000847,0.00003597,-0.00010096,0.00029918,0.00
 005035,0.00017784,0.00002567,0.00011333,-0.00000438,0.00000854,-0.0000
 1289,-0.00004678,-0.00003769,-0.00000498,0.00076239,0.00057646,0.00116
 783,-0.00022009,0.00037867,0.00009362,-0.00097782,0.00024277,-0.000554
 26,-0.00004666,-0.00048923,0.00056895,0.00268849,-0.01054737,-0.006127
 13,-0.00016127,0.00012010,0.00002728,-0.00000821,0.00000831,0.00003614
 ,0.00006527,-0.00004720,0.00001233,0.00006934,0.00006459,-0.00001295,-
 0.00017693,0.00007601,0.00011187,0.00001166,0.00000772,0.00000163,0.00
 001856,-0.00007530,-0.00001682,0.00000354,0.00001871,-0.00000925,-0.00
 006499,-0.00019620,-0.00017986,-0.00001240,-0.00009057,0.00008530,-0.0
 0000134,0.00001982,-0.00000256,0.00001963,0.00000694,-0.00001945,-0.00
 087469,0.00167146,0.00111169,0.00065137,0.00051702,-0.00061866,0.00005
 980,-0.00015960,-0.00004114,-0.00005388,0.00031843,0.00000275,0.060373
 72,-0.29383362,-0.01422795,-0.00016293,-0.00312430,0.00020826,-0.06711
 298,0.31725925,-0.00001833,-0.00002002,-0.00002778,-0.00026489,0.00016
 224,-0.00001439,-0.00004218,0.00005995,0.00000279,-0.00008759,-0.00003
 863,0.00003646,0.00004249,-0.00001452,0.00001182,-0.00000577,-0.000001
 37,0.00000012,-0.00001365,-0.00000087,-0.00000169,-0.00006933,0.000007
 71,0.00000534,0.00030160,0.00002817,0.00010048,0.00020712,0.00002135,0
 .00012013,-0.00001098,0.00000668,-0.00001446,-0.00005197,-0.00002312,-
 0.00001022,0.00303593,-0.00220036,0.00104702,0.00011749,0.00023907,0.0
 0025245,-0.00073115,0.00069188,0.00028930,-0.00010865,-0.00079768,0.00
 080895,0.00873567,-0.03685007,-0.01411306,-0.00012654,0.00034420,-0.00
 001050,0.00015717,-0.00005973,0.00016093,0.00000767,-0.00003263,0.0000
 6325,0.00014303,-0.00002552,0.00001561,-0.00017234,0.00008109,0.000121
 26,0.00001572,-0.00000061,0.00000076,0.00002660,-0.00006846,-0.0000222
 3,0.00000744,0.00001365,-0.00001784,-0.00003820,-0.00020834,-0.0002265
 0,-0.00003072,-0.00008529,0.00012699,0.00000865,-0.00000731,-0.0000024
 6,-0.00001547,-0.00000822,0.00000596,-0.00109519,-0.00311435,0.0017235
 5,-0.00018290,0.00092699,0.00011129,0.00007075,0.00026209,-0.00010656,
 -0.00023036,0.00036021,0.00022519,0.00165500,-0.00815048,-0.05022249,-
 0.00163070,0.01322930,0.00177783,-0.00480830,0.02124074,0.05967456,0.0
 0006604,0.00010454,-0.00000187,0.00032044,-0.00044629,-0.00025910,-0.0
 0005836,0.00002581,0.00002650,0.00006415,0.00022821,0.00010913,-0.0001
 3498,-0.00023154,-0.00001612,-0.00000129,0.00001163,0.00000271,-0.0000
 0092,0.00000500,0.00000516,0.00012806,0.00006423,-0.00001410,0.0001310
 9,0.00002130,-0.00031614,0.00002102,0.00000481,0.00001014,-0.00000943,
 0.00000691,-0.00000038,0.00000254,0.00000560,0.00000592,0.00027628,0.0
 0045209,-0.00059625,0.00005619,0.00003695,0.00013612,0.00006135,0.0000
 6285,0.00003578,-0.00001921,0.00012635,0.00003318,-0.00094231,0.000595
 83,-0.00020941,0.00000595,-0.00004947,0.00015536,-0.00003678,-0.000027
 17,-0.00005513,0.00001259,0.00008123,-0.00002021,0.00011345,0.00002819
 ,-0.00005138,-0.00000387,0.00001334,-0.00002025,-0.00000455,-0.0000020
 3,0.00000154,-0.00000294,0.00000299,0.00000893,-0.00000090,0.00000334,
 0.00000447,-0.00003417,-0.00005831,0.00004605,0.00001365,-0.00001964,-
 0.00001547,-0.00001776,0.00002060,0.00000502,0.00003247,0.00001665,-0.
 00000776,0.00057308,0.00070891,0.00031593,-0.00003577,-0.00016069,-0.0
 0001717,0.00049342,0.00005488,-0.00005506,0.00031023,-0.00034078,0.000
 17081,-0.18501678,-0.10712936,0.08464596,-0.01644405,-0.01587523,0.012
 74530,0.00645399,0.00519461,-0.00456804,0.19404420,-0.00001551,-0.0000
 1948,0.00005625,-0.00014466,0.00023169,-0.00025976,0.00003168,-0.00004
 005,-0.00000185,0.00008678,-0.00006142,-0.00006815,0.00000452,0.000049
 52,-0.00000402,0.00000424,-0.00000375,0.00000041,0.00003141,-0.0000145
 6,0.00004768,0.00002026,-0.00001995,-0.00001457,-0.00013897,0.00108637
 ,-0.00080626,-0.00004841,0.00000007,-0.00001800,0.00000639,-0.00000446
 ,0.00000291,0.00000837,0.00000137,0.00000154,-0.00017280,0.00028990,0.
 00041773,0.00016978,-0.00011432,-0.00001753,-0.00012418,-0.00033225,-0
 .00004014,-0.00005982,0.00014622,0.00004951,0.00943184,0.00596231,-0.0
 0582794,-0.00004453,0.00002467,-0.00005717,0.00002167,0.00000580,0.000
 03576,-0.00001355,0.00000367,0.00002317,-0.00003933,-0.00000922,-0.000
 01619,0.00002854,0.00002345,-0.00000532,-0.00000024,-0.00000410,-0.000
 00061,-0.00000999,0.00001682,0.00000434,-0.00000076,0.00000142,0.00000
 079,0.00000700,0.00000324,0.00004422,0.00000022,0.00000694,0.00000822,
 0.00000123,-0.00000586,-0.00000012,-0.00001665,-0.00002571,0.00001061,
 -0.00008981,0.00004129,-0.00123973,0.00010171,0.00045690,-0.00037007,-
 0.00006321,-0.00017222,-0.00007459,0.00012086,0.00061223,-0.00034629,-
 0.10796917,-0.13664654,0.06691100,0.00499743,0.00359813,-0.00363721,-0
 .02221091,-0.01491797,0.01315142,0.11576069,0.13916198,-0.00009198,-0.
 00015890,-0.00003746,-0.00070530,-0.00014926,-0.00041834,0.00005595,0.
 00003937,-0.00002312,-0.00001208,0.00007442,0.00009546,-0.00031306,-0.
 00013428,0.00002208,0.00000816,0.00001561,0.00000258,0.00001305,-0.000
 00637,0.00000940,0.00024976,0.00003730,-0.00003680,-0.00035443,-0.0004
 7561,0.00011435,0.00004394,-0.00003794,0.00002982,-0.00001606,0.000007
 70,-0.00000114,-0.00001684,0.00000846,-0.00000812,0.00143466,0.0006235
 3,0.00092043,0.00009589,-0.00001576,0.00020788,-0.00019787,0.00010997,
 -0.00009792,-0.00003116,-0.00029435,-0.00011168,0.02603716,0.01847679,
 -0.01996800,-0.00002465,-0.00002474,-0.00010898,-0.00004064,-0.0000357
 4,-0.00002165,-0.00000720,0.00000974,0.00000749,-0.00004641,0.00002095
 ,-0.00000438,-0.00001409,-0.00002433,0.00000491,-0.00000017,-0.0000028
 7,0.00000165,0.00001092,-0.00000727,-0.00001100,0.00000452,-0.00000473
 ,-0.00001125,0.00001750,0.00000872,-0.00002465,-0.00001067,0.00001945,
 0.00000596,0.00000258,-0.00000405,0.00000824,-0.00000776,-0.00001061,0
 .00004570,-0.00141546,-0.00312789,-0.00594929,-0.00016473,0.00005575,0
 .00006132,0.00006399,-0.00013811,0.00023115,0.00141899,0.00117912,-0.0
 0090841,0.07707775,0.06085376,-0.09950285,-0.00919423,-0.00880867,0.00
 773415,-0.00191209,-0.00078305,0.00179101,-0.09294798,-0.06779950,0.11
 617261,0.00193259,0.00248534,-0.00083899,0.00193209,-0.00248471,-0.000
 83915,-0.00102480,0.00048867,0.00011829,-0.00102382,-0.00048859,0.0001
 1837,0.00143574,-0.00000016,-0.00005793,-0.00005282,-0.00004436,-0.000
 03726,-0.00005277,0.00004410,-0.00003734,-0.00142427,0.00000011,0.0001
 7198,-0.00355134,0.00000016,0.00051560,0.00009149,0.00013836,0.0003003
 5,0.00004593,-0.00013253,0.00003475,0.00001868,-0.00003936,-0.00001521
 ,0.00009120,-0.00013865,0.00030045,0.00004595,0.00013244,0.00003475,0.
 00001885,0.00003919,-0.00001526,-0.00018850,-0.00012940,0.00055775,-0.
 00018811,0.00012927,0.00055807,0.00287626,0.00000012,-0.00643753,-0.00
 046227,0.,0.00061994,0.00070636,-0.00024250,0.00090028,0.00070651,0.00
 024266,0.00090024,-0.00004658,0.00004135,0.00022751,0.00002212,-0.0000
 2395,-0.00002766,0.00004388,-0.00003746,-0.00011598,0.00002893,-0.0000
 2389,-0.00015873,-0.00048939,-0.00030092,-0.00028615,0.00016715,0.0000
 4706,0.00015165,0.00023510,-0.00006734,0.00000904,-0.00001911,-0.00004
 272,-0.00030131,-0.00004655,-0.00004178,0.00022736,0.00004374,0.000037
 49,-0.00011598,0.00002201,0.00002401,-0.00002773,0.00002894,0.00002396
 ,-0.00015850,-0.00048940,0.00030073,-0.00028626,0.00023505,0.00006742,
 0.00000909,0.00016714,-0.00004704,0.00015162,-0.00001906,0.00004273,-0
 .00030126,0.03790808,-0.00007669,-0.00015123,0.00018757,0.00007669,-0.
 00015118,-0.00018733,0.00024462,0.00001416,-0.00009246,-0.00024487,0.0
 0001390,0.00009169,0.00000015,0.00020590,0.00000046,-0.00000406,-0.000
 00347,-0.00001075,0.00000406,-0.00000338,0.00001092,-0.00000013,-0.000
 03255,0.,0.00000050,0.00028049,0.,0.00021402,0.00039693,0.00013164,-0.
 00005807,0.00001430,-0.00009411,0.00010992,0.00006674,-0.00005789,-0.0
 0021386,0.00039677,-0.00013144,0.00005808,0.00001426,0.00009405,-0.000
 10996,0.00006678,0.00005789,-0.00161609,0.00272656,0.00582098,0.001616
 07,0.00272642,-0.00582101,0.00000010,0.00019260,-0.00000006,0.,0.00009
 169,0.00000004,-0.00015091,0.00017239,0.00020328,0.00015085,0.00017239
 ,-0.00020328,0.00001140,0.00008451,-0.00018950,0.00000881,0.00004918,-
 0.00002886,-0.00003203,0.00028573,0.00003969,0.00007990,-0.00039550,0.
 00003783,-0.00024164,0.00015899,-0.00069225,0.00013259,-0.00053925,0.0
 0008003,-0.00013147,0.00014041,-0.00017041,0.00038876,-0.00008412,-0.0
 0052570,-0.00001145,0.00008452,0.00018948,0.00003205,0.00028564,-0.000
 03969,-0.00000885,0.00004917,0.00002887,-0.00007991,-0.00039548,-0.000
 03782,0.00024161,0.00015908,0.00069237,0.00013146,0.00014040,0.0001704
 3,-0.00013260,-0.00053921,-0.00008002,-0.00038876,-0.00008412,0.000525
 72,-0.00000002,0.01281030,0.00042464,0.00030846,-0.00032804,0.00042620
 ,-0.00030943,-0.00032794,-0.00004882,0.00011708,0.00002875,-0.00005070
 ,-0.00011804,0.00002843,0.00001124,0.00000133,0.00001260,0.00002590,0.
 00000242,-0.00002493,0.00002550,-0.00000216,-0.00002471,-0.00002581,-0
 .00000062,0.00000828,-0.00111032,-0.00000016,0.00144279,-0.00013829,0.
 00026235,-0.00024662,0.00008207,0.00001692,0.00005705,0.00013790,0.000
 07261,0.00005196,-0.00013734,-0.00026184,-0.00024640,0.00008201,-0.000
 01681,0.00005704,0.00013764,-0.00007239,0.00005196,0.00034551,0.000484
 24,0.00007309,0.00034486,-0.00048513,0.00007228,0.00041346,-0.00000063
 ,-0.00192971,-0.00096076,-0.00000002,0.00067709,-0.00039694,0.00014975
 ,0.00007207,-0.00039710,-0.00014987,0.00007218,0.00025838,-0.00033139,
 -0.00057542,0.00000708,-0.00000845,-0.00004580,-0.00011862,0.00009823,
 0.00024213,-0.00001607,0.00007330,0.00033487,-0.00006901,-0.00018306,0
 .00001756,0.00005280,0.00018255,0.00003996,0.00013721,-0.00012518,0.00
 002198,-0.00017225,0.00006030,-0.00001993,0.00025815,0.00033200,-0.000
 57519,-0.00011841,-0.00009823,0.00024208,0.00000735,0.00000836,-0.0000
 4568,-0.00001603,-0.00007349,0.00033467,-0.00006888,0.00018335,0.00001
 786,0.00013718,0.00012511,0.00002190,0.00005286,-0.00018252,0.00003995
 ,-0.00017234,-0.00006045,-0.00001997,-0.07306005,-0.00000029,0.1852757
 6,-0.01840443,-0.02046224,-0.00320097,-0.01840604,0.02046169,-0.003200
 68,0.00311317,0.00085908,-0.00109559,0.00311346,-0.00085810,-0.0010955
 2,-0.00444992,-0.00000107,0.00082618,0.00076983,0.00036358,-0.00010706
 ,0.00077011,-0.00036342,-0.00010712,0.00381925,0.00000043,-0.00065570,
 -0.09173274,-0.00000077,-0.01224889,-0.00504976,-0.01521601,0.00157459
 ,-0.00014595,0.00019415,-0.00018961,-0.00314416,0.00036592,-0.00171118
 ,-0.00505106,0.01521610,0.00157408,-0.00014591,-0.00019410,-0.00018958
 ,-0.00314414,-0.00036595,-0.00171111,-0.04441524,0.00997769,-0.0018161
 0,-0.04441503,-0.00997697,-0.00181584,-0.09909879,0.00000010,-0.001617
 25,0.00408576,0.00000003,-0.00491305,-0.00987776,0.00096765,-0.0051404
 2,-0.00987750,-0.00096831,-0.00514014,0.00468032,0.00988089,-0.0012157
 2,-0.00065790,0.00122107,-0.00018998,-0.00170509,0.00261599,0.00112660
 ,0.00016947,0.00043048,-0.00001189,0.00215808,-0.00445958,0.00289491,-
 0.00000220,0.00002323,-0.00038071,-0.00043931,0.00142797,-0.00085499,-
 0.00039705,-0.00028504,0.00129138,0.00468096,-0.00988024,-0.00121585,-
 0.00170502,-0.00261614,0.00112667,-0.00065798,-0.00122111,-0.00018998,
 0.00016939,-0.00043037,-0.00001197,0.00215776,0.00445988,0.00289517,-0
 .00043918,-0.00142800,-0.00085503,-0.00000225,-0.00002329,-0.00038068,
 -0.00039707,0.00028514,0.00129132,-0.03972499,-0.00000030,0.07370981,0
 .37379892,-0.01565171,0.00154778,-0.00133906,0.01564919,0.00155012,0.0
 0133978,-0.00031858,-0.00451234,0.00053518,0.00031978,-0.00451082,-0.0
 0053701,-0.00000060,0.00111860,0.00000105,-0.00070380,0.00014284,0.000
 55134,0.00070379,0.00014259,-0.00055100,0.00000032,-0.00037397,-0.0000
 0010,0.00000126,-0.04631539,-0.00000040,-0.01595199,-0.01017748,-0.006
 15701,0.00071570,-0.00010483,0.00059642,0.00134583,0.00082291,-0.00019
 163,0.01595294,-0.01017666,0.00615691,-0.00071584,-0.00010495,-0.00059
 633,-0.00134605,0.00082303,0.00019164,0.00294393,-0.05069373,-0.005996
 99,-0.00294401,-0.05069509,0.00599679,-0.00000067,-0.06582542,0.000000
 37,0.,0.00038799,-0.00000008,0.01652144,0.00471214,0.00943288,-0.01652
 175,0.00471136,-0.00943301,0.00525711,-0.01366004,-0.00365239,-0.00111
 617,0.00031353,0.00035328,-0.00065236,0.00088338,0.00037811,-0.0010897
 1,0.00018266,0.00143836,-0.00172099,-0.01039738,0.01043126,-0.00046107
 ,0.00266736,-0.00096094,-0.00009481,-0.00088108,-0.00080564,-0.0010918
 4,0.00075210,0.00002247,-0.00525647,-0.01366096,0.00365232,0.00065226,
 0.00088364,-0.00037798,0.00111609,0.00031348,-0.00035328,0.00108969,0.
 00018268,-0.00143839,0.00172199,-0.01039706,-0.01043091,0.00009436,-0.
 00088100,0.00080556,0.00046086,0.00266757,0.00096087,0.00109171,0.0007
 5197,-0.00002234,0.00000023,-0.01942073,0.00000184,-0.00000008,0.28723
 119,-0.00146350,-0.00801616,0.00242393,-0.00146676,0.00801775,0.002424
 17,0.00075530,0.00182817,0.00199723,0.00075910,-0.00182605,0.00199761,
 -0.00113114,-0.00000274,-0.00088405,0.00060634,0.00014586,0.00051987,0
 .00060714,-0.00014632,0.00051946,0.00062768,0.00000117,-0.00003172,-0.
 01040649,0.00000033,-0.03953654,-0.00283706,-0.00670290,0.00015840,0.0
 0032129,-0.00022604,0.00006901,-0.00186659,0.00000128,-0.00027777,-0.0
 0283913,0.00670181,0.00015793,0.00032138,0.00022589,0.00006903,-0.0018
 6613,-0.00000165,-0.00027773,-0.00239858,0.00018980,-0.04735559,-0.002
 39761,-0.00018854,-0.04735414,-0.01670694,0.00000106,-0.06201461,-0.01
 881910,-0.00000028,-0.00739897,0.00369376,0.00195080,0.00333375,0.0036
 9380,-0.00195081,0.00333370,-0.00112731,-0.00713177,-0.00001283,-0.000
 22079,0.00036345,0.00008731,0.00088020,-0.00146139,0.00007194,-0.00027
 070,-0.00101938,0.00032272,0.00544927,0.01883393,-0.00020948,0.0008919
 4,0.00202249,-0.00372285,-0.00015741,0.00156372,-0.00006871,0.00087997
 ,0.00010043,-0.00020120,-0.00112688,0.00713070,-0.00001339,0.00087976,
 0.00146142,0.00007209,-0.00022133,-0.00036329,0.00008709,-0.00027084,0
 .00101977,0.00032310,0.00544959,-0.01883449,-0.00020990,-0.00015733,-0
 .00156354,-0.00006860,0.00089185,-0.00202242,-0.00372283,0.00088016,-0
 .00010007,-0.00020118,0.07721119,-0.00000005,-0.18488395,-0.03704811,-
 0.00000194,0.38047772\\-0.00000881,0.00000392,0.00002262,-0.00000881,-
 0.00000392,0.00002262,-0.00000207,-0.00000095,0.00002968,-0.00000206,0
 .00000095,0.00002969,-0.00000816,0.,0.00006945,-0.00000149,0.00000101,
 0.00004154,-0.00000150,-0.00000101,0.00004154,0.00000677,0.,0.00004758
 ,-0.00001550,0.,0.00001060,-0.00000185,-0.00000105,0.00000241,-0.00002
 469,-0.00000047,0.00000836,-0.00000423,0.00000328,0.00001240,-0.000001
 86,0.00000105,0.00000241,-0.00002469,0.00000047,0.00000836,-0.00000423
 ,-0.00000327,0.00001240,-0.00000139,-0.00000709,-0.00000086,-0.0000014
 0,0.00000708,-0.00000086,0.00001021,0.,-0.00002857,0.00002796,0.,-0.00
 003647,0.,-0.00000064,-0.00004011,0.,0.00000064,-0.00004011,-0.0000072
 9,0.00000187,-0.00001539,-0.00000335,-0.00000205,-0.00002872,-0.000006
 35,0.00000247,-0.00001362,-0.00001976,-0.00000062,-0.00001575,0.000023
 21,0.00000382,-0.00000338,0.00001697,0.00000227,-0.00000092,0.00001895
 ,-0.00000129,-0.00001491,0.00002287,-0.00000225,0.00000371,-0.00000728
 ,-0.00000188,-0.00001539,-0.00000635,-0.00000247,-0.00001362,-0.000003
 35,0.00000205,-0.00002872,-0.00001977,0.00000062,-0.00001575,0.0000232
 0,-0.00000381,-0.00000339,0.00001895,0.00000129,-0.00001491,0.00001697
 ,-0.00000227,-0.00000092,0.00002287,0.00000225,0.00000370,-0.00001971,
 0.,-0.00001078,-0.00000295,0.,-0.00002593\\\@
 The archive entry for this job was punched.


 THE WORLD IS MADE UP OF THE WILLS, THE WON'TS, AND THE CANT'S:
 THE WILLS DO EVERYTHING,
 THE WON'TS DO NOTHING,
 THE CAN'TS CAN'T DO ANYTHING.

                               -- FROM WALT DISNEY'S "BLACK HOLE"
 Job cpu time:       3 days  5 hours 36 minutes 19.6 seconds.
 Elapsed time:       0 days 10 hours 14 minutes 39.3 seconds.
 File lengths (MBytes):  RWF=   1937 Int=      0 D2E=      0 Chk=     70 Scr=      1
 Normal termination of Gaussian 16 at Fri Mar  8 13:35:54 2024.
