 Entering Gaussian System, Link 0=/cm/shared/apps//g16/g16
 Input=ZIrMeH_sigma.gjf
 Output=ZIrMeH_sigma.log
 Initial command:
 /cm/shared/apps//g16/l1.exe "/local/mvanvleet/pbs.14051.josephine/Gau-3393169.inp" -scrdir="/local/mvanvleet/pbs.14051.josephine/"
 Entering Link 1 = /cm/shared/apps//g16/l1.exe PID=   3393172.
  
 Copyright (c) 1988-2019, Gaussian, Inc.  All Rights Reserved.
  
 This is part of the Gaussian(R) 16 program.  It is based on
 the Gaussian(R) 09 system (copyright 2009, Gaussian, Inc.),
 the Gaussian(R) 03 system (copyright 2003, Gaussian, Inc.),
 the Gaussian(R) 98 system (copyright 1998, Gaussian, Inc.),
 the Gaussian(R) 94 system (copyright 1995, Gaussian, Inc.),
 the Gaussian 92(TM) system (copyright 1992, Gaussian, Inc.),
 the Gaussian 90(TM) system (copyright 1990, Gaussian, Inc.),
 the Gaussian 88(TM) system (copyright 1988, Gaussian, Inc.),
 the Gaussian 86(TM) system (copyright 1986, Carnegie Mellon
 University), and the Gaussian 82(TM) system (copyright 1983,
 Carnegie Mellon University). Gaussian is a federally registered
 trademark of Gaussian, Inc.
  
 This software contains proprietary and confidential information,
 including trade secrets, belonging to Gaussian, Inc.
  
 This software is provided under written license and may be
 used, copied, transmitted, or stored only in accord with that
 written license.
  
 The following legend is applicable only to US Government
 contracts under FAR:
  
                    RESTRICTED RIGHTS LEGEND
  
 Use, reproduction and disclosure by the US Government is
 subject to restrictions as set forth in subparagraphs (a)
 and (c) of the Commercial Computer Software - Restricted
 Rights clause in FAR 52.227-19.
  
 Gaussian, Inc.
 340 Quinnipiac St., Bldg. 40, Wallingford CT 06492
  
  
 ---------------------------------------------------------------
 Warning -- This program may not be used in any manner that
 competes with the business of Gaussian, Inc. or will provide
 assistance to any competitor of Gaussian, Inc.  The licensee
 of this program is prohibited from giving any competitor of
 Gaussian, Inc. access to this program.  By using this program,
 the user acknowledges that Gaussian, Inc. is engaged in the
 business of creating and licensing software in the field of
 computational chemistry and represents and warrants to the
 licensee that it is not a competitor of Gaussian, Inc. and that
 it will not use this program in any manner prohibited above.
 ---------------------------------------------------------------
  

 Cite this work as:
 Gaussian 16, Revision C.01,
 M. J. Frisch, G. W. Trucks, H. B. Schlegel, G. E. Scuseria, 
 M. A. Robb, J. R. Cheeseman, G. Scalmani, V. Barone, 
 G. A. Petersson, H. Nakatsuji, X. Li, M. Caricato, A. V. Marenich, 
 J. Bloino, B. G. Janesko, R. Gomperts, B. Mennucci, H. P. Hratchian, 
 J. V. Ortiz, A. F. Izmaylov, J. L. Sonnenberg, D. Williams-Young, 
 F. Ding, F. Lipparini, F. Egidi, J. Goings, B. Peng, A. Petrone, 
 T. Henderson, D. Ranasinghe, V. G. Zakrzewski, J. Gao, N. Rega, 
 G. Zheng, W. Liang, M. Hada, M. Ehara, K. Toyota, R. Fukuda, 
 J. Hasegawa, M. Ishida, T. Nakajima, Y. Honda, O. Kitao, H. Nakai, 
 T. Vreven, K. Throssell, J. A. Montgomery, Jr., J. E. Peralta, 
 F. Ogliaro, M. J. Bearpark, J. J. Heyd, E. N. Brothers, K. N. Kudin, 
 V. N. Staroverov, T. A. Keith, R. Kobayashi, J. Normand, 
 K. Raghavachari, A. P. Rendell, J. C. Burant, S. S. Iyengar, 
 J. Tomasi, M. Cossi, J. M. Millam, M. Klene, C. Adamo, R. Cammi, 
 J. W. Ochterski, R. L. Martin, K. Morokuma, O. Farkas, 
 J. B. Foresman, and D. J. Fox, Gaussian, Inc., Wallingford CT, 2019.
 
 ******************************************
 Gaussian 16:  ES64L-G16RevC.01  3-Jul-2019
                 7-Mar-2024 
 ******************************************
 %nprocshared=8
 Will use up to    8 processors via shared memory.
 %chk=ZIrMeH_sigma.chk
 %mem=1GB
 ----------------------------------------------------------
 # wb97xd def2TZVPP SCRF=(solvent=dichloromethane) opt freq
 ----------------------------------------------------------
 1/18=20,19=15,26=3,38=1/1,3;
 2/9=110,12=2,17=6,18=5,40=1/2;
 3/5=44,7=202,11=2,25=1,30=1,70=2201,71=1,72=9,74=-58/1,2,3;
 4//1;
 5/5=2,38=5,53=9/2;
 6/7=2,8=2,9=2,10=2,28=1/1;
 7//1,2,3,16;
 1/18=20,19=15,26=3/3(2);
 2/9=110/2;
 99//99;
 2/9=110/2;
 3/5=44,7=202,11=2,25=1,30=1,70=2205,71=1,72=9,74=-58/1,2,3;
 4/5=5,16=3,69=1/1;
 5/5=2,38=5,53=9/2;
 7//1,2,3,16;
 1/18=20,19=15,26=3/3(-5);
 2/9=110/2;
 6/7=2,8=2,9=2,10=2,19=2,28=1/1;
 99/9=1/99;
 ------------
 ZIrMeH_sigma
 ------------
 Symbolic Z-matrix:
 Charge =  0 Multiplicity = 1
 C                    -1.71027  -1.18235  -0.25687 
 C                    -1.71056   1.18205  -0.25714 
 C                    -3.05511  -1.23139   0.00696 
 C                    -3.05542   1.23082   0.00667 
 C                    -3.83759  -0.00036   0.18182 
 H                    -3.58026  -2.18937   0.07432 
 H                    -3.58079   2.18869   0.07379 
 O                    -5.05115  -0.00048   0.43818 
 N                    -1.03743  -0.00008  -0.3701 
 C                    -0.78693  -2.33205  -0.58637 
 H                    -0.65546  -2.36489  -1.68412 
 H                    -1.17157  -3.31336  -0.24405 
 C                    -0.7874    2.33186  -0.58672 
 H                    -0.65565   2.36447  -1.68444 
 H                    -1.17229   3.31317  -0.24469 
 N                     0.58937  -2.09113  -0.01149 
 N                     0.58879   2.09125  -0.01144 
 C                     3.14721   0.00016   0.66189 
 H                     2.54823   0.00135   1.5885 
 H                     3.78151  -0.89957   0.63792 
 H                     3.78266   0.89904   0.6363 
 C                     1.5659   -2.92678  -0.74467 
 H                     2.55611  -2.80627  -0.27704 
 H                     1.27125  -3.99695  -0.70217 
 H                     1.61099  -2.58664  -1.78977 
 C                     0.57771  -2.5113    1.41429 
 H                     0.38028  -3.60243   1.48443 
 H                     1.55665  -2.2826    1.86498 
 H                    -0.2094   -1.95374   1.94464 
 C                     1.56542   2.92707  -0.74428 
 H                     1.27071   3.99722  -0.70171 
 H                     2.55552   2.80653  -0.27641 
 H                     1.61079   2.58707  -1.7894 
 C                     0.57657   2.51143   1.41433 
 H                     1.5555    2.2832    1.86528 
 H                     0.37866   3.60248   1.4844 
 H                    -0.21043   1.95354   1.9445 
 H                     2.62738  -0.00003  -0.4215 
 Ir                    0.88619   0.0001   -0.09867 
 

 GradGradGradGradGradGradGradGradGradGradGradGradGradGradGradGradGradGrad
 Berny optimization.
 Initialization pass.
                           ----------------------------
                           !    Initial Parameters    !
                           ! (Angstroms and Degrees)  !
 --------------------------                            --------------------------
 ! Name  Definition              Value          Derivative Info.                !
 --------------------------------------------------------------------------------
 ! R1    R(1,3)                  1.3714         estimate D2E/DX2                !
 ! R2    R(1,9)                  1.365          estimate D2E/DX2                !
 ! R3    R(1,10)                 1.5109         estimate D2E/DX2                !
 ! R4    R(2,4)                  1.3714         estimate D2E/DX2                !
 ! R5    R(2,9)                  1.365          estimate D2E/DX2                !
 ! R6    R(2,13)                 1.5109         estimate D2E/DX2                !
 ! R7    R(3,5)                  1.4691         estimate D2E/DX2                !
 ! R8    R(3,6)                  1.0946         estimate D2E/DX2                !
 ! R9    R(4,5)                  1.4691         estimate D2E/DX2                !
 ! R10   R(4,7)                  1.0945         estimate D2E/DX2                !
 ! R11   R(5,8)                  1.2403         estimate D2E/DX2                !
 ! R12   R(9,39)                 1.9427         estimate D2E/DX2                !
 ! R13   R(10,11)                1.1061         estimate D2E/DX2                !
 ! R14   R(10,12)                1.1082         estimate D2E/DX2                !
 ! R15   R(10,16)                1.5109         estimate D2E/DX2                !
 ! R16   R(13,14)                1.1061         estimate D2E/DX2                !
 ! R17   R(13,15)                1.1082         estimate D2E/DX2                !
 ! R18   R(13,17)                1.5109         estimate D2E/DX2                !
 ! R19   R(16,22)                1.4797         estimate D2E/DX2                !
 ! R20   R(16,26)                1.4864         estimate D2E/DX2                !
 ! R21   R(16,39)                2.114          estimate D2E/DX2                !
 ! R22   R(17,30)                1.4797         estimate D2E/DX2                !
 ! R23   R(17,34)                1.4864         estimate D2E/DX2                !
 ! R24   R(17,39)                2.114          estimate D2E/DX2                !
 ! R25   R(18,19)                1.1034         estimate D2E/DX2                !
 ! R26   R(18,20)                1.1011         estimate D2E/DX2                !
 ! R27   R(18,21)                1.1011         estimate D2E/DX2                !
 ! R28   R(18,38)                1.2016         estimate D2E/DX2                !
 ! R29   R(18,39)                2.3855         estimate D2E/DX2                !
 ! R30   R(22,23)                1.1017         estimate D2E/DX2                !
 ! R31   R(22,24)                1.1108         estimate D2E/DX2                !
 ! R32   R(22,25)                1.1            estimate D2E/DX2                !
 ! R33   R(26,27)                1.1111         estimate D2E/DX2                !
 ! R34   R(26,28)                1.1017         estimate D2E/DX2                !
 ! R35   R(26,29)                1.1008         estimate D2E/DX2                !
 ! R36   R(30,31)                1.1108         estimate D2E/DX2                !
 ! R37   R(30,32)                1.1017         estimate D2E/DX2                !
 ! R38   R(30,33)                1.1            estimate D2E/DX2                !
 ! R39   R(34,35)                1.1017         estimate D2E/DX2                !
 ! R40   R(34,36)                1.1111         estimate D2E/DX2                !
 ! R41   R(34,37)                1.1008         estimate D2E/DX2                !
 ! R42   R(38,39)                1.7709         estimate D2E/DX2                !
 ! A1    A(3,1,9)              122.0268         estimate D2E/DX2                !
 ! A2    A(3,1,10)             127.8817         estimate D2E/DX2                !
 ! A3    A(9,1,10)             109.8605         estimate D2E/DX2                !
 ! A4    A(4,2,9)              122.0268         estimate D2E/DX2                !
 ! A5    A(4,2,13)             127.8851         estimate D2E/DX2                !
 ! A6    A(9,2,13)             109.8578         estimate D2E/DX2                !
 ! A7    A(1,3,5)              121.0147         estimate D2E/DX2                !
 ! A8    A(1,3,6)              120.9071         estimate D2E/DX2                !
 ! A9    A(5,3,6)              118.068          estimate D2E/DX2                !
 ! A10   A(2,4,5)              121.0146         estimate D2E/DX2                !
 ! A11   A(2,4,7)              120.9061         estimate D2E/DX2                !
 ! A12   A(5,4,7)              118.0691         estimate D2E/DX2                !
 ! A13   A(3,5,4)              113.858          estimate D2E/DX2                !
 ! A14   A(3,5,8)              123.0684         estimate D2E/DX2                !
 ! A15   A(4,5,8)              123.0683         estimate D2E/DX2                !
 ! A16   A(1,9,2)              120.0089         estimate D2E/DX2                !
 ! A17   A(1,9,39)             118.4616         estimate D2E/DX2                !
 ! A18   A(2,9,39)             118.4666         estimate D2E/DX2                !
 ! A19   A(1,10,11)            108.1594         estimate D2E/DX2                !
 ! A20   A(1,10,12)            113.2239         estimate D2E/DX2                !
 ! A21   A(1,10,16)            110.6319         estimate D2E/DX2                !
 ! A22   A(11,10,12)           108.7558         estimate D2E/DX2                !
 ! A23   A(11,10,16)           105.9078         estimate D2E/DX2                !
 ! A24   A(12,10,16)           109.867          estimate D2E/DX2                !
 ! A25   A(2,13,14)            108.1614         estimate D2E/DX2                !
 ! A26   A(2,13,15)            113.2246         estimate D2E/DX2                !
 ! A27   A(2,13,17)            110.6267         estimate D2E/DX2                !
 ! A28   A(14,13,15)           108.7578         estimate D2E/DX2                !
 ! A29   A(14,13,17)           105.9073         estimate D2E/DX2                !
 ! A30   A(15,13,17)           109.868          estimate D2E/DX2                !
 ! A31   A(10,16,22)           108.8195         estimate D2E/DX2                !
 ! A32   A(10,16,26)           108.2249         estimate D2E/DX2                !
 ! A33   A(10,16,39)           105.6614         estimate D2E/DX2                !
 ! A34   A(22,16,26)           108.7122         estimate D2E/DX2                !
 ! A35   A(22,16,39)           116.4599         estimate D2E/DX2                !
 ! A36   A(26,16,39)           108.68           estimate D2E/DX2                !
 ! A37   A(13,17,30)           108.8236         estimate D2E/DX2                !
 ! A38   A(13,17,34)           108.2228         estimate D2E/DX2                !
 ! A39   A(13,17,39)           105.6619         estimate D2E/DX2                !
 ! A40   A(30,17,34)           108.7117         estimate D2E/DX2                !
 ! A41   A(30,17,39)           116.4535         estimate D2E/DX2                !
 ! A42   A(34,17,39)           108.6844         estimate D2E/DX2                !
 ! A43   A(19,18,20)           109.3836         estimate D2E/DX2                !
 ! A44   A(19,18,21)           109.3859         estimate D2E/DX2                !
 ! A45   A(19,18,38)           121.488          estimate D2E/DX2                !
 ! A46   A(19,18,39)            75.7124         estimate D2E/DX2                !
 ! A47   A(20,18,21)           109.5177         estimate D2E/DX2                !
 ! A48   A(20,18,38)           103.2645         estimate D2E/DX2                !
 ! A49   A(20,18,39)           122.618          estimate D2E/DX2                !
 ! A50   A(21,18,38)           103.2281         estimate D2E/DX2                !
 ! A51   A(21,18,39)           122.6561         estimate D2E/DX2                !
 ! A52   A(16,22,23)           108.7282         estimate D2E/DX2                !
 ! A53   A(16,22,24)           110.4917         estimate D2E/DX2                !
 ! A54   A(16,22,25)           108.8562         estimate D2E/DX2                !
 ! A55   A(23,22,24)           109.1209         estimate D2E/DX2                !
 ! A56   A(23,22,25)           109.4279         estimate D2E/DX2                !
 ! A57   A(24,22,25)           110.1901         estimate D2E/DX2                !
 ! A58   A(16,26,27)           109.849          estimate D2E/DX2                !
 ! A59   A(16,26,28)           109.071          estimate D2E/DX2                !
 ! A60   A(16,26,29)           108.9395         estimate D2E/DX2                !
 ! A61   A(27,26,28)           109.6293         estimate D2E/DX2                !
 ! A62   A(27,26,29)           109.8741         estimate D2E/DX2                !
 ! A63   A(28,26,29)           109.459          estimate D2E/DX2                !
 ! A64   A(17,30,31)           110.4933         estimate D2E/DX2                !
 ! A65   A(17,30,32)           108.7256         estimate D2E/DX2                !
 ! A66   A(17,30,33)           108.8564         estimate D2E/DX2                !
 ! A67   A(31,30,32)           109.1214         estimate D2E/DX2                !
 ! A68   A(31,30,33)           110.1905         estimate D2E/DX2                !
 ! A69   A(32,30,33)           109.4277         estimate D2E/DX2                !
 ! A70   A(17,34,35)           109.0716         estimate D2E/DX2                !
 ! A71   A(17,34,36)           109.8487         estimate D2E/DX2                !
 ! A72   A(17,34,37)           108.9407         estimate D2E/DX2                !
 ! A73   A(35,34,36)           109.6267         estimate D2E/DX2                !
 ! A74   A(35,34,37)           109.4597         estimate D2E/DX2                !
 ! A75   A(36,34,37)           109.8745         estimate D2E/DX2                !
 ! A76   A(9,39,16)             82.3362         estimate D2E/DX2                !
 ! A77   A(9,39,17)             82.3313         estimate D2E/DX2                !
 ! A78   A(9,39,38)            161.4646         estimate D2E/DX2                !
 ! A79   A(16,39,17)           163.1548         estimate D2E/DX2                !
 ! A80   A(16,39,18)            96.8896         estimate D2E/DX2                !
 ! A81   A(16,39,38)            98.3662         estimate D2E/DX2                !
 ! A82   A(17,39,18)            96.9013         estimate D2E/DX2                !
 ! A83   A(17,39,38)            98.3905         estimate D2E/DX2                !
 ! A84   L(9,39,18,16,-1)      179.2258         estimate D2E/DX2                !
 ! A85   L(9,39,18,16,-2)      190.6177         estimate D2E/DX2                !
 ! D1    D(9,1,3,5)             -0.0418         estimate D2E/DX2                !
 ! D2    D(9,1,3,6)            178.7762         estimate D2E/DX2                !
 ! D3    D(10,1,3,5)          -173.9415         estimate D2E/DX2                !
 ! D4    D(10,1,3,6)             4.8764         estimate D2E/DX2                !
 ! D5    D(3,1,9,2)             -1.8385         estimate D2E/DX2                !
 ! D6    D(3,1,9,39)           158.0779         estimate D2E/DX2                !
 ! D7    D(10,1,9,2)           173.0451         estimate D2E/DX2                !
 ! D8    D(10,1,9,39)          -27.0385         estimate D2E/DX2                !
 ! D9    D(3,1,10,11)           98.8258         estimate D2E/DX2                !
 ! D10   D(3,1,10,12)          -21.7694         estimate D2E/DX2                !
 ! D11   D(3,1,10,16)         -145.5975         estimate D2E/DX2                !
 ! D12   D(9,1,10,11)          -75.6773         estimate D2E/DX2                !
 ! D13   D(9,1,10,12)          163.7275         estimate D2E/DX2                !
 ! D14   D(9,1,10,16)           39.8994         estimate D2E/DX2                !
 ! D15   D(9,2,4,5)              0.0427         estimate D2E/DX2                !
 ! D16   D(9,2,4,7)           -178.7751         estimate D2E/DX2                !
 ! D17   D(13,2,4,5)           173.9512         estimate D2E/DX2                !
 ! D18   D(13,2,4,7)            -4.8667         estimate D2E/DX2                !
 ! D19   D(4,2,9,1)              1.838          estimate D2E/DX2                !
 ! D20   D(4,2,9,39)          -158.0774         estimate D2E/DX2                !
 ! D21   D(13,2,9,1)          -173.0532         estimate D2E/DX2                !
 ! D22   D(13,2,9,39)           27.0315         estimate D2E/DX2                !
 ! D23   D(4,2,13,14)          -98.8424         estimate D2E/DX2                !
 ! D24   D(4,2,13,15)           21.7571         estimate D2E/DX2                !
 ! D25   D(4,2,13,17)          145.5831         estimate D2E/DX2                !
 ! D26   D(9,2,13,14)           75.6687         estimate D2E/DX2                !
 ! D27   D(9,2,13,15)         -163.7318         estimate D2E/DX2                !
 ! D28   D(9,2,13,17)          -39.9058         estimate D2E/DX2                !
 ! D29   D(1,3,5,4)              1.7613         estimate D2E/DX2                !
 ! D30   D(1,3,5,8)           -179.0516         estimate D2E/DX2                !
 ! D31   D(6,3,5,4)           -177.0894         estimate D2E/DX2                !
 ! D32   D(6,3,5,8)              2.0977         estimate D2E/DX2                !
 ! D33   D(2,4,5,3)             -1.7618         estimate D2E/DX2                !
 ! D34   D(2,4,5,8)            179.0512         estimate D2E/DX2                !
 ! D35   D(7,4,5,3)            177.0888         estimate D2E/DX2                !
 ! D36   D(7,4,5,8)             -2.0983         estimate D2E/DX2                !
 ! D37   D(1,9,39,16)            6.3935         estimate D2E/DX2                !
 ! D38   D(1,9,39,17)         -166.6087         estimate D2E/DX2                !
 ! D39   D(1,9,39,38)           99.8615         estimate D2E/DX2                !
 ! D40   D(2,9,39,16)          166.6229         estimate D2E/DX2                !
 ! D41   D(2,9,39,17)           -6.3794         estimate D2E/DX2                !
 ! D42   D(2,9,39,38)          -99.9091         estimate D2E/DX2                !
 ! D43   D(1,10,16,22)        -159.0761         estimate D2E/DX2                !
 ! D44   D(1,10,16,26)          82.9512         estimate D2E/DX2                !
 ! D45   D(1,10,16,39)         -33.313          estimate D2E/DX2                !
 ! D46   D(11,10,16,22)        -42.102          estimate D2E/DX2                !
 ! D47   D(11,10,16,26)       -160.0746         estimate D2E/DX2                !
 ! D48   D(11,10,16,39)         83.6612         estimate D2E/DX2                !
 ! D49   D(12,10,16,22)         75.1871         estimate D2E/DX2                !
 ! D50   D(12,10,16,26)        -42.7855         estimate D2E/DX2                !
 ! D51   D(12,10,16,39)       -159.0497         estimate D2E/DX2                !
 ! D52   D(2,13,17,30)         159.0893         estimate D2E/DX2                !
 ! D53   D(2,13,17,34)         -82.9376         estimate D2E/DX2                !
 ! D54   D(2,13,17,39)          33.331          estimate D2E/DX2                !
 ! D55   D(14,13,17,30)         42.1156         estimate D2E/DX2                !
 ! D56   D(14,13,17,34)        160.0888         estimate D2E/DX2                !
 ! D57   D(14,13,17,39)        -83.6426         estimate D2E/DX2                !
 ! D58   D(15,13,17,30)        -75.1761         estimate D2E/DX2                !
 ! D59   D(15,13,17,34)         42.7971         estimate D2E/DX2                !
 ! D60   D(15,13,17,39)        159.0657         estimate D2E/DX2                !
 ! D61   D(10,16,22,23)       -175.9015         estimate D2E/DX2                !
 ! D62   D(10,16,22,24)        -56.1697         estimate D2E/DX2                !
 ! D63   D(10,16,22,25)         64.9602         estimate D2E/DX2                !
 ! D64   D(26,16,22,23)        -58.2373         estimate D2E/DX2                !
 ! D65   D(26,16,22,24)         61.4945         estimate D2E/DX2                !
 ! D66   D(26,16,22,25)       -177.3757         estimate D2E/DX2                !
 ! D67   D(39,16,22,23)         64.8767         estimate D2E/DX2                !
 ! D68   D(39,16,22,24)       -175.3915         estimate D2E/DX2                !
 ! D69   D(39,16,22,25)        -54.2616         estimate D2E/DX2                !
 ! D70   D(10,16,26,27)         63.3567         estimate D2E/DX2                !
 ! D71   D(10,16,26,28)       -176.4652         estimate D2E/DX2                !
 ! D72   D(10,16,26,29)        -57.0401         estimate D2E/DX2                !
 ! D73   D(22,16,26,27)        -54.6845         estimate D2E/DX2                !
 ! D74   D(22,16,26,28)         65.4936         estimate D2E/DX2                !
 ! D75   D(22,16,26,29)       -175.0813         estimate D2E/DX2                !
 ! D76   D(39,16,26,27)        177.6453         estimate D2E/DX2                !
 ! D77   D(39,16,26,28)        -62.1765         estimate D2E/DX2                !
 ! D78   D(39,16,26,29)         57.2485         estimate D2E/DX2                !
 ! D79   D(10,16,39,9)          15.5882         estimate D2E/DX2                !
 ! D80   D(10,16,39,17)         40.2117         estimate D2E/DX2                !
 ! D81   D(10,16,39,18)       -175.0295         estimate D2E/DX2                !
 ! D82   D(10,16,39,38)       -145.7052         estimate D2E/DX2                !
 ! D83   D(22,16,39,9)         136.5031         estimate D2E/DX2                !
 ! D84   D(22,16,39,17)        161.1267         estimate D2E/DX2                !
 ! D85   D(22,16,39,18)        -54.1145         estimate D2E/DX2                !
 ! D86   D(22,16,39,38)        -24.7903         estimate D2E/DX2                !
 ! D87   D(26,16,39,9)        -100.3661         estimate D2E/DX2                !
 ! D88   D(26,16,39,17)        -75.7426         estimate D2E/DX2                !
 ! D89   D(26,16,39,18)         69.0162         estimate D2E/DX2                !
 ! D90   D(26,16,39,38)         98.3404         estimate D2E/DX2                !
 ! D91   D(13,17,30,31)         56.1818         estimate D2E/DX2                !
 ! D92   D(13,17,30,32)        175.9136         estimate D2E/DX2                !
 ! D93   D(13,17,30,33)        -64.9497         estimate D2E/DX2                !
 ! D94   D(34,17,30,31)        -61.482          estimate D2E/DX2                !
 ! D95   D(34,17,30,32)         58.2499         estimate D2E/DX2                !
 ! D96   D(34,17,30,33)        177.3866         estimate D2E/DX2                !
 ! D97   D(39,17,30,31)        175.4032         estimate D2E/DX2                !
 ! D98   D(39,17,30,32)        -64.8649         estimate D2E/DX2                !
 ! D99   D(39,17,30,33)         54.2718         estimate D2E/DX2                !
 ! D100  D(13,17,34,35)        176.4792         estimate D2E/DX2                !
 ! D101  D(13,17,34,36)        -63.3456         estimate D2E/DX2                !
 ! D102  D(13,17,34,37)         57.0523         estimate D2E/DX2                !
 ! D103  D(30,17,34,35)        -65.4761         estimate D2E/DX2                !
 ! D104  D(30,17,34,36)         54.6991         estimate D2E/DX2                !
 ! D105  D(30,17,34,37)        175.097          estimate D2E/DX2                !
 ! D106  D(39,17,34,35)         62.1887         estimate D2E/DX2                !
 ! D107  D(39,17,34,36)       -177.6361         estimate D2E/DX2                !
 ! D108  D(39,17,34,37)        -57.2382         estimate D2E/DX2                !
 ! D109  D(13,17,39,9)         -15.6055         estimate D2E/DX2                !
 ! D110  D(13,17,39,16)        -40.2293         estimate D2E/DX2                !
 ! D111  D(13,17,39,18)        175.0129         estimate D2E/DX2                !
 ! D112  D(13,17,39,38)        145.688          estimate D2E/DX2                !
 ! D113  D(30,17,39,9)        -136.5221         estimate D2E/DX2                !
 ! D114  D(30,17,39,16)       -161.146          estimate D2E/DX2                !
 ! D115  D(30,17,39,18)         54.0962         estimate D2E/DX2                !
 ! D116  D(30,17,39,38)         24.7713         estimate D2E/DX2                !
 ! D117  D(34,17,39,9)         100.3489         estimate D2E/DX2                !
 ! D118  D(34,17,39,16)         75.7251         estimate D2E/DX2                !
 ! D119  D(34,17,39,18)        -69.0328         estimate D2E/DX2                !
 ! D120  D(34,17,39,38)        -98.3576         estimate D2E/DX2                !
 ! D121  D(19,18,39,16)        -85.219          estimate D2E/DX2                !
 ! D122  D(19,18,39,17)         85.0843         estimate D2E/DX2                !
 ! D123  D(20,18,39,16)         18.8822         estimate D2E/DX2                !
 ! D124  D(20,18,39,17)       -170.8146         estimate D2E/DX2                !
 ! D125  D(21,18,39,16)        170.6808         estimate D2E/DX2                !
 ! D126  D(21,18,39,17)        -19.0159         estimate D2E/DX2                !
 --------------------------------------------------------------------------------
 Trust Radius=3.00D-01 FncErr=1.00D-07 GrdErr=1.00D-06 EigMax=2.50D+02 EigMin=1.00D-04
 Number of steps in this run=    234 maximum allowed number of steps=    234.
 GradGradGradGradGradGradGradGradGradGradGradGradGradGradGradGradGradGrad

                          Input orientation:                          
 ---------------------------------------------------------------------
 Center     Atomic      Atomic             Coordinates (Angstroms)
 Number     Number       Type             X           Y           Z
 ---------------------------------------------------------------------
      1          6           0       -1.710270   -1.182350   -0.256870
      2          6           0       -1.710560    1.182050   -0.257140
      3          6           0       -3.055110   -1.231390    0.006960
      4          6           0       -3.055420    1.230820    0.006670
      5          6           0       -3.837590   -0.000360    0.181820
      6          1           0       -3.580260   -2.189370    0.074320
      7          1           0       -3.580790    2.188690    0.073790
      8          8           0       -5.051150   -0.000480    0.438180
      9          7           0       -1.037430   -0.000080   -0.370100
     10          6           0       -0.786930   -2.332050   -0.586370
     11          1           0       -0.655460   -2.364890   -1.684120
     12          1           0       -1.171570   -3.313360   -0.244050
     13          6           0       -0.787400    2.331860   -0.586720
     14          1           0       -0.655650    2.364470   -1.684440
     15          1           0       -1.172290    3.313170   -0.244690
     16          7           0        0.589370   -2.091130   -0.011490
     17          7           0        0.588790    2.091250   -0.011440
     18          6           0        3.147210    0.000160    0.661890
     19          1           0        2.548230    0.001350    1.588500
     20          1           0        3.781510   -0.899570    0.637920
     21          1           0        3.782660    0.899040    0.636300
     22          6           0        1.565900   -2.926780   -0.744670
     23          1           0        2.556110   -2.806270   -0.277040
     24          1           0        1.271250   -3.996950   -0.702170
     25          1           0        1.610990   -2.586640   -1.789770
     26          6           0        0.577710   -2.511300    1.414290
     27          1           0        0.380280   -3.602430    1.484430
     28          1           0        1.556650   -2.282600    1.864980
     29          1           0       -0.209400   -1.953740    1.944640
     30          6           0        1.565420    2.927070   -0.744280
     31          1           0        1.270710    3.997220   -0.701710
     32          1           0        2.555520    2.806530   -0.276410
     33          1           0        1.610790    2.587070   -1.789400
     34          6           0        0.576570    2.511430    1.414330
     35          1           0        1.555500    2.283200    1.865280
     36          1           0        0.378660    3.602480    1.484400
     37          1           0       -0.210430    1.953540    1.944500
     38          1           0        2.627380   -0.000030   -0.421500
     39         77           0        0.886190    0.000100   -0.098670
 ---------------------------------------------------------------------
                    Distance matrix (angstroms):
                    1          2          3          4          5
     1  C    0.000000
     2  C    2.364400   0.000000
     3  C    1.371352   2.775294   0.000000
     4  C    2.775297   1.371358   2.462210   0.000000
     5  C    2.472861   2.472860   1.469111   1.469106   0.000000
     6  H    2.149567   3.869382   1.094553   3.460886   2.206703
     7  H    3.869379   2.149558   3.460889   1.094547   2.206707
     8  O    3.611287   3.611286   2.384380   2.384374   1.240342
     9  N    1.365026   1.365026   2.393602   2.393607   2.854034
    10  C    1.510939   3.648340   2.590006   4.265183   3.915791
    11  H    2.132620   3.966143   3.146886   4.641951   4.381630
    12  H    2.198082   4.527625   2.818746   4.925578   4.273757
    13  C    3.648309   1.510930   4.265175   2.590042   3.915809
    14  H    3.966120   2.132636   4.642031   3.147048   4.381791
    15  H    4.527612   2.198081   4.925583   2.818784   4.273782
    16  N    2.484841   4.007958   3.744560   4.931549   4.899659
    17  N    4.007789   2.484758   4.931357   3.744454   4.899492
    18  C    5.083066   5.083248   6.357234   6.357394   7.001278
    19  H    4.789714   4.789335   5.951331   5.951023   6.538918
    20  H    5.571379   5.941137   6.873688   7.188926   7.685525
    21  H    5.941567   5.572593   7.189569   6.875016   7.686591
    22  C    3.743564   5.277818   4.979260   6.261529   6.214501
    23  H    4.565032   5.840511   5.834954   6.918660   6.997363
    24  H    4.124285   5.992602   5.183491   6.822910   6.546328
    25  H    3.918237   5.252111   5.180486   6.290912   6.345316
    26  C    3.129495   4.655179   4.100747   5.402267   5.226727
    27  H    3.641334   5.504174   4.427940   6.111310   5.697555
    28  H    4.047909   5.213622   5.081891   6.088401   6.094216
    29  H    2.773860   4.115154   3.517735   4.690094   4.481851
    30  C    5.277788   3.743587   6.261505   4.979292   6.214501
    31  H    5.992668   4.124415   6.822997   5.183645   6.546449
    32  H    5.840249   4.564947   6.918401   5.834865   6.997175
    33  H    5.252296   3.918325   6.291118   5.180617   6.345498
    34  C    4.654735   3.129221   5.401712   4.100344   5.226182
    35  H    5.213330   4.047758   6.087973   5.081586   6.093776
    36  H    5.503658   3.640918   6.110639   4.427343   5.696836
    37  H    4.114530   2.773591   4.689354   3.517311   4.481189
    38  H    4.498910   4.499117   5.830139   5.830312   6.493060
    39  Ir   2.857415   2.857487   4.130565   4.130624   4.732100
                    6          7          8          9         10
     6  H    0.000000
     7  H    4.378060   0.000000
     8  O    2.662170   2.662180   0.000000
     9  N    3.384743   3.384735   4.094297   0.000000
    10  C    2.873945   5.355236   4.966839   2.355336   0.000000
    11  H    3.417217   5.690597   5.423715   2.732193   1.106082
    12  H    2.677032   6.014808   5.147014   3.318389   1.108197
    13  C    5.355237   2.873987   4.966870   2.355288   4.663910
    14  H    5.690698   3.417414   5.423921   2.732095   4.824966
    15  H    6.014818   2.677080   5.147052   3.318364   5.668664
    16  N    4.171670   5.976150   6.032287   2.673494   1.510871
    17  N    5.975955   4.171589   6.032115   2.673367   4.667840
    18  C    7.099164   7.099402   8.201412   4.310013   4.740761
    19  H    6.682094   6.681593   7.685949   4.085716   4.614987
    20  H    7.495124   8.003690   8.880548   5.004735   4.941814
    21  H    8.004167   7.496667   8.881700   5.005450   5.728527
    22  C    5.262840   7.302488   7.331283   3.934870   2.431989
    23  H    6.177302   7.920495   8.139681   4.560361   3.390647
    24  H    5.235211   7.899782   7.566037   4.627661   2.649794
    25  H    5.530075   7.295972   7.485726   3.964831   2.694997
    26  C    4.380396   6.417162   6.240278   3.478355   2.428377
    27  H    4.435203   7.156609   6.600690   4.292564   2.695266
    28  H    5.440864   7.042307   7.134904   4.115183   3.391744
    29  H    3.862165   5.659159   5.433893   3.140134   2.623485
    30  C    7.302471   5.262881   7.331286   3.934850   5.763404
    31  H    7.899875   5.235383   7.566166   4.627730   6.656339
    32  H    7.920216   6.177270   8.139495   4.560167   6.137838
    33  H    7.296220   5.530162   7.485918   3.964950   5.603042
    34  C    6.416571   4.380051   6.239695   3.478055   5.414908
    35  H    7.041836   5.440574   7.134398   4.115043   5.726962
    36  H    7.155900   4.434621   6.599904   4.292193   6.392600
    37  H    5.658359   3.861888   5.433209   3.139735   5.010383
    38  H    6.601049   6.601302   7.726505   3.665170   4.137996
    39  Ir   4.977236   4.977306   5.961561   1.942676   2.911375
                   11         12         13         14         15
    11  H    0.000000
    12  H    1.799935   0.000000
    13  C    4.825055   5.668643   0.000000
    14  H    4.729360   5.880361   1.106079   0.000000
    15  H    5.880428   6.626530   1.108194   1.799952   0.000000
    16  N    2.102912   2.156117   4.667893   4.919472   5.688962
    17  N    4.919675   5.688830   1.510874   2.102905   2.156130
    18  C    5.055445   5.518333   4.740992   5.055390   5.518696
    19  H    5.154878   5.308715   4.614031   5.153767   5.307637
    20  H    5.217829   5.580077   5.728597   5.977935   6.562493
    21  H    5.977834   6.562296   4.943096   5.218421   5.581729
    22  C    2.476434   2.809592   5.763355   5.815134   6.832616
    23  H    3.533960   3.762157   6.138024   6.247618   7.165861
    24  H    2.709254   2.577700   6.656215   6.719037   7.721271
    25  H    2.279722   3.264967   5.602789   5.446305   6.703855
    26  C    3.338007   2.540349   5.415142   5.907321   6.303901
    27  H    3.555836   2.340821   6.392882   6.835114   7.295605
    28  H    4.182859   3.599119   5.727010   6.252033   6.573467
    29  H    3.679119   2.750400   5.010812   5.658295   5.784519
    30  C    5.815535   6.832592   2.432049   2.476605   2.809576
    31  H    6.719502   7.721319   2.649993   2.709704   2.577798
    32  H    6.247850   7.165564   3.390681   3.534060   3.762214
    33  H    5.446915   6.704081   2.694974   2.279763   3.264795
    34  C    5.907350   6.303523   2.428345   3.338014   2.540403
    35  H    6.252306   6.573254   3.391733   4.182858   3.599118
    36  H    6.835088   7.295176   2.695127   3.555842   2.340705
    37  H    5.658071   5.783924   2.623565   3.679170   2.750695
    38  H    4.238374   5.043973   4.138325   4.238415   5.044408
    39  Ir   3.237826   3.903143   2.911392   3.237620   3.903216
                   16         17         18         19         20
    16  N    0.000000
    17  N    4.182380   0.000000
    18  C    3.371866   3.372172   0.000000
    19  H    3.282617   3.281295   1.103352   0.000000
    20  H    3.468617   4.422684   1.101102   1.798955   0.000000
    21  H    4.422426   3.470121   1.101107   1.798986   1.798611
    22  C    1.479687   5.164591   3.611915   3.870736   3.306065
    23  H    2.109504   5.284562   3.017787   3.370910   2.444230
    24  H    2.138726   6.165147   4.621339   4.781658   4.206068
    25  H    2.109862   5.107838   3.880998   4.357616   3.667566
    26  C    1.486448   4.818329   3.670949   3.197922   3.669436
    27  H    2.136708   5.890594   4.616398   4.206907   4.426104
    28  H    2.119771   4.856776   3.031221   2.505214   2.892827
    29  H    2.117393   4.563475   4.090233   3.399079   4.329683
    30  C    5.164493   1.479681   3.611949   3.868800   4.633002
    31  H    6.165114   2.138740   4.621379   4.779550   5.663681
    32  H    5.284222   2.109469   3.017651   3.368527   4.009268
    33  H    5.107819   2.109849   3.880916   4.356025   4.770804
    34  C    4.818370   1.486446   3.671625   3.196604   4.744404
    35  H    4.856999   2.119776   3.032154   2.503789   4.073274
    36  H    5.890610   2.136705   4.617153   4.205474   5.706520
    37  H    4.563434   2.117408   4.090786   3.398233   5.077694
    38  H    2.948609   2.949144   1.201648   2.011558   1.806532
    39  Ir   2.113988   2.113992   2.385511   2.368316   3.120072
                   21         22         23         24         25
    21  H    0.000000
    22  C    4.632278   0.000000
    23  H    4.008483   1.101688   0.000000
    24  H    5.662985   1.110805   1.802587   0.000000
    25  H    4.769898   1.099983   1.797176   1.813083   0.000000
    26  C    4.744196   2.410446   2.619479   2.677229   3.367394
    27  H    5.706027   2.613634   2.910478   2.393887   3.642370
    28  H    4.072789   2.687997   2.421033   3.100114   3.667777
    29  H    5.078056   3.366138   3.648385   3.656861   4.202404
    30  C    3.306820   5.853850   5.837034   6.930394   5.612141
    31  H    4.207004   6.930423   6.936863   7.994170   6.681832
    32  H    2.444878   5.836905   5.612800   6.936711   5.680553
    33  H    3.667490   5.612131   5.680579   6.681817   5.173710
    34  C    3.672076   5.934154   5.920916   6.879038   6.109550
    35  H    2.895951   5.827164   5.611903   6.790647   6.089155
    36  H    4.428891   7.000681   6.994000   7.957961   7.109433
    37  H    4.332219   5.848462   5.936731   6.678965   6.154314
    38  H    1.806084   3.130023   2.810859   4.230039   3.097703
    39  Ir   3.120547   3.073426   3.270499   4.060652   3.174331
                   26         27         28         29         30
    26  C    0.000000
    27  H    1.111064   0.000000
    28  H    1.101703   1.808484   0.000000
    29  H    1.100766   1.810440   1.798173   0.000000
    30  C    5.933874   7.000434   5.826575   5.848297   0.000000
    31  H    6.878847   7.957811   6.790125   6.678909   1.110805
    32  H    5.920263   6.993354   5.610930   5.936162   1.101694
    33  H    6.109358   7.109292   6.088605   6.154275   1.099970
    34  C    5.022730   6.117412   4.913895   4.564726   2.410431
    35  H    4.913929   6.013886   4.565800   4.590515   2.687837
    36  H    6.117421   7.204910   6.013873   5.606177   2.613732
    37  H    4.564765   5.606193   4.590618   3.907280   3.366146
    38  H    3.725285   4.653957   3.403613   4.178866   3.130473
    39  Ir   2.948108   3.967414   3.084827   3.031984   3.073324
                   31         32         33         34         35
    31  H    0.000000
    32  H    1.802598   0.000000
    33  H    1.813077   1.797169   0.000000
    34  C    2.677130   2.619528   3.367376   0.000000
    35  H    3.099743   2.420899   3.667708   1.101703   0.000000
    36  H    2.393878   2.910792   3.642385   1.111066   1.808458
    37  H    3.656888   3.648358   4.202405   1.100768   1.798182
    38  H    4.230494   2.811226   3.098014   3.726060   3.404619
    39  Ir   4.060601   3.270215   3.174276   2.948188   3.085064
                   36         37         38         39
    36  H    0.000000
    37  H    1.810448   0.000000
    38  H    4.654812   4.179421   0.000000
    39  Ir   3.967473   3.032004   1.770865   0.000000
 Stoichiometry    C12H22IrN3O
 Framework group  C1[X(C12H22IrN3O)]
 Deg. of freedom   111
 Full point group                 C1      NOp   1
 Largest Abelian subgroup         C1      NOp   1
 Largest concise Abelian subgroup C1      NOp   1
                         Standard orientation:                         
 ---------------------------------------------------------------------
 Center     Atomic      Atomic             Coordinates (Angstroms)
 Number     Number       Type             X           Y           Z
 ---------------------------------------------------------------------
      1          6           0       -1.710273   -1.182347   -0.256869
      2          6           0       -1.710558    1.182053   -0.257139
      3          6           0       -3.055113   -1.231384    0.006961
      4          6           0       -3.055418    1.230826    0.006671
      5          6           0       -3.837591   -0.000353    0.181821
      6          1           0       -3.580265   -2.189364    0.074321
      7          1           0       -3.580787    2.188696    0.073791
      8          8           0       -5.051151   -0.000471    0.438181
      9          7           0       -1.037431   -0.000078   -0.370099
     10          6           0       -0.786935   -2.332049   -0.586369
     11          1           0       -0.655465   -2.364889   -1.684119
     12          1           0       -1.171577   -3.313358   -0.244049
     13          6           0       -0.787396    2.331861   -0.586719
     14          1           0       -0.655646    2.364471   -1.684439
     15          1           0       -1.172285    3.313172   -0.244689
     16          7           0        0.589366   -2.091131   -0.011489
     17          7           0        0.588793    2.091249   -0.011439
     18          6           0        3.147209    0.000154    0.661891
     19          1           0        2.548229    0.001345    1.588501
     20          1           0        3.781508   -0.899577    0.637921
     21          1           0        3.782661    0.899033    0.636301
     22          6           0        1.565894   -2.926783   -0.744669
     23          1           0        2.556104   -2.806275   -0.277039
     24          1           0        1.271242   -3.996952   -0.702169
     25          1           0        1.610985   -2.586643   -1.789769
     26          6           0        0.577705   -2.511301    1.414291
     27          1           0        0.380273   -3.602431    1.484431
     28          1           0        1.556645   -2.282603    1.864981
     29          1           0       -0.209404   -1.953740    1.944641
     30          6           0        1.565425    2.927067   -0.744279
     31          1           0        1.270717    3.997218   -0.701709
     32          1           0        2.555525    2.806525   -0.276409
     33          1           0        1.610794    2.587067   -1.789399
     34          6           0        0.576574    2.511429    1.414331
     35          1           0        1.555504    2.283197    1.865281
     36          1           0        0.378666    3.602479    1.484401
     37          1           0       -0.210427    1.953540    1.944501
     38          1           0        2.627379   -0.000035   -0.421499
     39         77           0        0.886189    0.000098   -0.098669
 ---------------------------------------------------------------------
 Rotational constants (GHZ):           0.5319737           0.3429869           0.2313554
 Standard basis: def2TZVPP (5D, 7F)
 There are   977 symmetry adapted cartesian basis functions of A   symmetry.
 There are   860 symmetry adapted basis functions of A   symmetry.
   860 basis functions,  1290 primitive gaussians,   977 cartesian basis functions
    70 alpha electrons       70 beta electrons
       nuclear repulsion energy      1527.3674889454 Hartrees.
 NAtoms=   39 NActive=   39 NUniq=   39 SFac= 1.00D+00 NAtFMM=   60 NAOKFM=F Big=F
 Integral buffers will be    131072 words long.
 Raffenetti 2 integral format.
 Two-electron integral symmetry is turned on.
 Nuclear repulsion after empirical dispersion term =     1527.3237532466 Hartrees.
 ------------------------------------------------------------------------------
 Polarizable Continuum Model (PCM)
 =================================
 Model                : PCM.
 Atomic radii         : UFF (Universal Force Field).
 Polarization charges : Total charges.
 Charge compensation  : None.
 Solution method      : On-the-fly selection.
 Cavity type          : Scaled VdW (van der Waals Surface) (Alpha=1.100).
 Cavity algorithm     : GePol (No added spheres)
                        Default sphere list used, NSphG=   39.
                        Lebedev-Laikov grids with approx.  5.0 points / Ang**2.
                        Smoothing algorithm: York/Karplus (Gamma=1.0000).
                        Polarization charges: spherical gaussians, with
                                              point-specific exponents (IZeta= 3).
                        Self-potential: point-specific (ISelfS= 7).
                        Self-field    : sphere-specific E.n sum rule (ISelfD= 2).
 1st derivatives      : Analytical E(r).r(x)/FMM algorithm (CHGder, D1EAlg=3).
                        Cavity 1st derivative terms included.
 Solvent              : Dichloromethane, Eps=   8.930000 Eps(inf)=   2.028346
 ------------------------------------------------------------------------------
 One-electron integrals computed using PRISM.
 PrsmSu:  requested number of processors reduced to:   5 ShMem   1 Linda.
   1 Symmetry operations used in ECPInt.
 ECPInt:  NShTT=   52650 NPrTT=  135893 LenC2=   47728 LenP2D=   93960.
 LDataN:  DoStor=T MaxTD1= 9 Len=  602
 NBasis=   860 RedAO= T EigKep=  2.04D-05  NBF=   860
 NBsUse=   860 1.00D-06 EigRej= -1.00D+00 NBFU=   860
 Defaulting to unpruned grid for atomic number  77.
 ExpMin= 5.00D-02 ExpMax= 2.70D+04 ExpMxC= 9.22D+02 IAcc=3 IRadAn=         5 AccDes= 0.00D+00
 Harris functional with IExCor= 4639 and IRadAn=       5 diagonalized for initial guess.
 HarFok:  IExCor= 4639 AccDes= 0.00D+00 IRadAn=         5 IDoV= 1 UseB2=F ITyADJ=14
 ICtDFT=  3500011 ScaDFX=  1.000000  1.000000  1.000000  1.000000
 Defaulting to unpruned grid for atomic number  77.
 FoFCou: FMM=F IPFlag=           0 FMFlag=      100000 FMFlg1=           0
         NFxFlg=           0 DoJE=T BraDBF=F KetDBF=T FulRan=T
         wScrn=  0.000000 ICntrl=       500 IOpCl=  0 I1Cent=   200000004 NGrid=           0
         NMat0=    1 NMatS0=      1 NMatT0=    0 NMatD0=    1 NMtDS0=    0 NMtDT0=    0
 Petite list used in FoFCou.
 Requested convergence on RMS density matrix=1.00D-08 within 128 cycles.
 Requested convergence on MAX density matrix=1.00D-06.
 Requested convergence on             energy=1.00D-06.
 No special actions if energy rises.
 Defaulting to unpruned grid for atomic number  77.
 Defaulting to unpruned grid for atomic number  77.
 Defaulting to unpruned grid for atomic number  77.
 Defaulting to unpruned grid for atomic number  77.
 Defaulting to unpruned grid for atomic number  77.
 Defaulting to unpruned grid for atomic number  77.
 Defaulting to unpruned grid for atomic number  77.
 Defaulting to unpruned grid for atomic number  77.
 Inv3:  Mode=1 IEnd=    19233072.
 Iteration    1 A*A^-1 deviation from unit magnitude is 3.00D-15 for    189.
 Iteration    1 A*A^-1 deviation from orthogonality  is 2.35D-15 for   1909    735.
 Iteration    1 A^-1*A deviation from unit magnitude is 2.89D-15 for    189.
 Iteration    1 A^-1*A deviation from orthogonality  is 3.05D-15 for   2167   1455.
 Error on total polarization charges =  0.01805
 SCF Done:  E(RwB97XD) =  -814.485785598     A.U. after   16 cycles
            NFock= 16  Conv=0.90D-08     -V/T= 2.0985

 **********************************************************************

            Population analysis using the SCF Density.

 **********************************************************************

 Orbital symmetries:
       Occupied  (A) (A) (A) (A) (A) (A) (A) (A) (A) (A) (A) (A)
                 (A) (A) (A) (A) (A) (A) (A) (A) (A) (A) (A) (A)
                 (A) (A) (A) (A) (A) (A) (A) (A) (A) (A) (A) (A)
                 (A) (A) (A) (A) (A) (A) (A) (A) (A) (A) (A) (A)
                 (A) (A) (A) (A) (A) (A) (A) (A) (A) (A) (A) (A)
                 (A) (A) (A) (A) (A) (A) (A) (A) (A) (A)
       Virtual   (A) (A) (A) (A) (A) (A) (A) (A) (A) (A) (A) (A)
                 (A) (A) (A) (A) (A) (A) (A) (A) (A) (A) (A) (A)
                 (A) (A) (A) (A) (A) (A) (A) (A) (A) (A) (A) (A)
                 (A) (A) (A) (A) (A) (A) (A) (A) (A) (A) (A) (A)
                 (A) (A) (A) (A) (A) (A) (A) (A) (A) (A) (A) (A)
                 (A) (A) (A) (A) (A) (A) (A) (A) (A) (A) (A) (A)
                 (A) (A) (A) (A) (A) (A) (A) (A) (A) (A) (A) (A)
                 (A) (A) (A) (A) (A) (A) (A) (A) (A) (A) (A) (A)
                 (A) (A) (A) (A) (A) (A) (A) (A) (A) (A) (A) (A)
                 (A) (A) (A) (A) (A) (A) (A) (A) (A) (A) (A) (A)
                 (A) (A) (A) (A) (A) (A) (A) (A) (A) (A) (A) (A)
                 (A) (A) (A) (A) (A) (A) (A) (A) (A) (A) (A) (A)
                 (A) (A) (A) (A) (A) (A) (A) (A) (A) (A) (A) (A)
                 (A) (A) (A) (A) (A) (A) (A) (A) (A) (A) (A) (A)
                 (A) (A) (A) (A) (A) (A) (A) (A) (A) (A) (A) (A)
                 (A) (A) (A) (A) (A) (A) (A) (A) (A) (A) (A) (A)
                 (A) (A) (A) (A) (A) (A) (A) (A) (A) (A) (A) (A)
                 (A) (A) (A) (A) (A) (A) (A) (A) (A) (A) (A) (A)
                 (A) (A) (A) (A) (A) (A) (A) (A) (A) (A) (A) (A)
                 (A) (A) (A) (A) (A) (A) (A) (A) (A) (A) (A) (A)
                 (A) (A) (A) (A) (A) (A) (A) (A) (A) (A) (A) (A)
                 (A) (A) (A) (A) (A) (A) (A) (A) (A) (A) (A) (A)
                 (A) (A) (A) (A) (A) (A) (A) (A) (A) (A) (A) (A)
                 (A) (A) (A) (A) (A) (A) (A) (A) (A) (A) (A) (A)
                 (A) (A) (A) (A) (A) (A) (A) (A) (A) (A) (A) (A)
                 (A) (A) (A) (A) (A) (A) (A) (A) (A) (A) (A) (A)
                 (A) (A) (A) (A) (A) (A) (A) (A) (A) (A) (A) (A)
                 (A) (A) (A) (A) (A) (A) (A) (A) (A) (A) (A) (A)
                 (A) (A) (A) (A) (A) (A) (A) (A) (A) (A) (A) (A)
                 (A) (A) (A) (A) (A) (A) (A) (A) (A) (A) (A) (A)
                 (A) (A) (A) (A) (A) (A) (A) (A) (A) (A) (A) (A)
                 (A) (A) (A) (A) (A) (A) (A) (A) (A) (A) (A) (A)
                 (A) (A) (A) (A) (A) (A) (A) (A) (A) (A) (A) (A)
                 (A) (A) (A) (A) (A) (A) (A) (A) (A) (A) (A) (A)
                 (A) (A) (A) (A) (A) (A) (A) (A) (A) (A) (A) (A)
                 (A) (A) (A) (A) (A) (A) (A) (A) (A) (A) (A) (A)
                 (A) (A) (A) (A) (A) (A) (A) (A) (A) (A) (A) (A)
                 (A) (A) (A) (A) (A) (A) (A) (A) (A) (A) (A) (A)
                 (A) (A) (A) (A) (A) (A) (A) (A) (A) (A) (A) (A)
                 (A) (A) (A) (A) (A) (A) (A) (A) (A) (A) (A) (A)
                 (A) (A) (A) (A) (A) (A) (A) (A) (A) (A) (A) (A)
                 (A) (A) (A) (A) (A) (A) (A) (A) (A) (A) (A) (A)
                 (A) (A) (A) (A) (A) (A) (A) (A) (A) (A) (A) (A)
                 (A) (A) (A) (A) (A) (A) (A) (A) (A) (A) (A) (A)
                 (A) (A) (A) (A) (A) (A) (A) (A) (A) (A) (A) (A)
                 (A) (A) (A) (A) (A) (A) (A) (A) (A) (A) (A) (A)
                 (A) (A) (A) (A) (A) (A) (A) (A) (A) (A) (A) (A)
                 (A) (A) (A) (A) (A) (A) (A) (A) (A) (A) (A) (A)
                 (A) (A) (A) (A) (A) (A) (A) (A) (A) (A) (A) (A)
                 (A) (A) (A) (A) (A) (A) (A) (A) (A) (A) (A) (A)
                 (A) (A) (A) (A) (A) (A) (A) (A) (A) (A) (A) (A)
                 (A) (A) (A) (A) (A) (A) (A) (A) (A) (A) (A) (A)
                 (A) (A) (A) (A) (A) (A) (A) (A) (A) (A) (A) (A)
                 (A) (A) (A) (A) (A) (A) (A) (A) (A) (A) (A) (A)
                 (A) (A) (A) (A) (A) (A) (A) (A) (A) (A) (A) (A)
                 (A) (A) (A) (A) (A) (A) (A) (A) (A) (A) (A) (A)
                 (A) (A) (A) (A) (A) (A) (A) (A) (A) (A) (A) (A)
                 (A) (A) (A) (A) (A) (A) (A) (A) (A) (A) (A) (A)
                 (A) (A) (A) (A) (A) (A) (A) (A) (A) (A) (A) (A)
                 (A) (A) (A) (A) (A) (A) (A) (A) (A) (A) (A) (A)
                 (A) (A) (A) (A) (A) (A) (A) (A) (A) (A) (A) (A)
                 (A) (A) (A) (A) (A) (A) (A) (A) (A) (A) (A) (A)
                 (A) (A) (A) (A) (A) (A) (A) (A) (A) (A) (A) (A)
                 (A) (A) (A) (A) (A) (A) (A) (A) (A) (A) (A) (A)
                 (A) (A) (A) (A) (A) (A) (A) (A) (A) (A) (A) (A)
                 (A) (A) (A) (A) (A) (A) (A) (A) (A) (A)
 The electronic state is 1-A.
 Alpha  occ. eigenvalues --  -19.18350 -14.50253 -14.50253 -14.45695 -10.34381
 Alpha  occ. eigenvalues --  -10.33505 -10.33504 -10.33398 -10.33396 -10.31985
 Alpha  occ. eigenvalues --  -10.31985 -10.31934 -10.31933 -10.29904 -10.27459
 Alpha  occ. eigenvalues --  -10.27459  -3.72906  -2.07325  -2.06910  -2.03868
 Alpha  occ. eigenvalues --   -1.09198  -1.07429  -1.05812  -1.03892  -0.90080
 Alpha  occ. eigenvalues --   -0.85743  -0.83179  -0.81990  -0.81957  -0.81139
 Alpha  occ. eigenvalues --   -0.79776  -0.72815  -0.72045  -0.69937  -0.66235
 Alpha  occ. eigenvalues --   -0.61399  -0.60002  -0.58940  -0.58260  -0.57637
 Alpha  occ. eigenvalues --   -0.56767  -0.56524  -0.55884  -0.53348  -0.52166
 Alpha  occ. eigenvalues --   -0.51113  -0.50780  -0.50510  -0.49660  -0.49152
 Alpha  occ. eigenvalues --   -0.49046  -0.48760  -0.47589  -0.46719  -0.46646
 Alpha  occ. eigenvalues --   -0.46455  -0.46319  -0.45909  -0.44176  -0.43555
 Alpha  occ. eigenvalues --   -0.43184  -0.42063  -0.37636  -0.33565  -0.31014
 Alpha  occ. eigenvalues --   -0.30952  -0.28220  -0.26303  -0.25277  -0.23539
 Alpha virt. eigenvalues --    0.04759   0.05609   0.08825   0.09365   0.10791
 Alpha virt. eigenvalues --    0.11445   0.11991   0.13617   0.14746   0.14820
 Alpha virt. eigenvalues --    0.15403   0.15696   0.15728   0.16393   0.16637
 Alpha virt. eigenvalues --    0.16672   0.17379   0.18227   0.19194   0.19231
 Alpha virt. eigenvalues --    0.19696   0.20736   0.20831   0.21045   0.21317
 Alpha virt. eigenvalues --    0.22095   0.22342   0.22701   0.22810   0.23209
 Alpha virt. eigenvalues --    0.24019   0.24729   0.24882   0.25124   0.25434
 Alpha virt. eigenvalues --    0.26044   0.26299   0.26723   0.28684   0.29886
 Alpha virt. eigenvalues --    0.30426   0.31693   0.31945   0.32078   0.32185
 Alpha virt. eigenvalues --    0.32853   0.33889   0.34099   0.34948   0.35025
 Alpha virt. eigenvalues --    0.35927   0.36248   0.36695   0.37306   0.38592
 Alpha virt. eigenvalues --    0.39442   0.40054   0.40477   0.40603   0.40675
 Alpha virt. eigenvalues --    0.41449   0.41681   0.42544   0.43084   0.43814
 Alpha virt. eigenvalues --    0.44530   0.44685   0.44913   0.45685   0.46193
 Alpha virt. eigenvalues --    0.46877   0.47150   0.47763   0.48057   0.48413
 Alpha virt. eigenvalues --    0.49167   0.49385   0.49409   0.49875   0.49993
 Alpha virt. eigenvalues --    0.50474   0.50484   0.50790   0.51011   0.51397
 Alpha virt. eigenvalues --    0.51549   0.51838   0.52397   0.53620   0.54203
 Alpha virt. eigenvalues --    0.54346   0.54694   0.54910   0.55187   0.56664
 Alpha virt. eigenvalues --    0.56714   0.57525   0.57936   0.58378   0.59745
 Alpha virt. eigenvalues --    0.59818   0.60351   0.60670   0.61134   0.61960
 Alpha virt. eigenvalues --    0.61967   0.62958   0.63066   0.63495   0.64332
 Alpha virt. eigenvalues --    0.65323   0.67101   0.67132   0.68269   0.68563
 Alpha virt. eigenvalues --    0.68595   0.69902   0.70238   0.71701   0.71962
 Alpha virt. eigenvalues --    0.72250   0.73437   0.74809   0.74889   0.75336
 Alpha virt. eigenvalues --    0.75577   0.76974   0.77034   0.79377   0.79456
 Alpha virt. eigenvalues --    0.80027   0.81204   0.82227   0.83580   0.84088
 Alpha virt. eigenvalues --    0.85217   0.85916   0.86222   0.87127   0.87722
 Alpha virt. eigenvalues --    0.88524   0.89870   0.90012   0.91144   0.91776
 Alpha virt. eigenvalues --    0.91908   0.92072   0.92948   0.93970   0.94855
 Alpha virt. eigenvalues --    0.95545   0.95687   0.96163   0.96998   0.97145
 Alpha virt. eigenvalues --    0.98073   0.98441   0.99773   0.99896   1.00470
 Alpha virt. eigenvalues --    1.00600   1.01264   1.03213   1.03231   1.04019
 Alpha virt. eigenvalues --    1.04870   1.05285   1.06089   1.06284   1.07214
 Alpha virt. eigenvalues --    1.07708   1.07736   1.08480   1.08863   1.09154
 Alpha virt. eigenvalues --    1.09952   1.09965   1.10676   1.10682   1.11468
 Alpha virt. eigenvalues --    1.12134   1.12697   1.12711   1.14338   1.15629
 Alpha virt. eigenvalues --    1.15940   1.16607   1.18133   1.19433   1.19795
 Alpha virt. eigenvalues --    1.20119   1.21333   1.21569   1.22385   1.22615
 Alpha virt. eigenvalues --    1.23057   1.23086   1.24420   1.25680   1.26097
 Alpha virt. eigenvalues --    1.27164   1.27845   1.28395   1.28470   1.29857
 Alpha virt. eigenvalues --    1.30312   1.30562   1.31826   1.32351   1.32797
 Alpha virt. eigenvalues --    1.32901   1.33968   1.34528   1.35168   1.35193
 Alpha virt. eigenvalues --    1.36003   1.36848   1.37443   1.38019   1.38605
 Alpha virt. eigenvalues --    1.39016   1.40332   1.40614   1.41278   1.42043
 Alpha virt. eigenvalues --    1.42814   1.43144   1.43235   1.44180   1.44602
 Alpha virt. eigenvalues --    1.45361   1.45867   1.47136   1.47364   1.48122
 Alpha virt. eigenvalues --    1.49143   1.49242   1.49569   1.50337   1.51625
 Alpha virt. eigenvalues --    1.52486   1.52516   1.53174   1.53892   1.54193
 Alpha virt. eigenvalues --    1.55101   1.55302   1.55897   1.56516   1.57805
 Alpha virt. eigenvalues --    1.57974   1.58450   1.59091   1.60389   1.60770
 Alpha virt. eigenvalues --    1.60923   1.62008   1.62822   1.64183   1.64210
 Alpha virt. eigenvalues --    1.65245   1.65703   1.66559   1.66884   1.67910
 Alpha virt. eigenvalues --    1.69388   1.69515   1.70382   1.71062   1.71693
 Alpha virt. eigenvalues --    1.71883   1.72896   1.73738   1.74531   1.74556
 Alpha virt. eigenvalues --    1.75499   1.76627   1.78362   1.78458   1.79621
 Alpha virt. eigenvalues --    1.82169   1.82645   1.83430   1.83806   1.84948
 Alpha virt. eigenvalues --    1.85104   1.85791   1.86540   1.87296   1.89620
 Alpha virt. eigenvalues --    1.89681   1.91579   1.91782   1.92760   1.92871
 Alpha virt. eigenvalues --    1.95176   1.95731   1.97036   1.98359   1.98669
 Alpha virt. eigenvalues --    1.99584   1.99985   2.01782   2.02402   2.06744
 Alpha virt. eigenvalues --    2.07730   2.07775   2.09735   2.10442   2.11665
 Alpha virt. eigenvalues --    2.14286   2.14369   2.15059   2.17492   2.19045
 Alpha virt. eigenvalues --    2.21591   2.22078   2.22101   2.23320   2.23914
 Alpha virt. eigenvalues --    2.25078   2.26512   2.27134   2.29213   2.29430
 Alpha virt. eigenvalues --    2.30025   2.32555   2.32888   2.34385   2.36866
 Alpha virt. eigenvalues --    2.37478   2.38491   2.39451   2.40625   2.42138
 Alpha virt. eigenvalues --    2.43588   2.45891   2.46351   2.49561   2.50901
 Alpha virt. eigenvalues --    2.54970   2.56199   2.56797   2.60205   2.60444
 Alpha virt. eigenvalues --    2.62543   2.63261   2.65545   2.65788   2.66189
 Alpha virt. eigenvalues --    2.66501   2.66775   2.68000   2.68973   2.69429
 Alpha virt. eigenvalues --    2.69589   2.72309   2.72677   2.73631   2.74179
 Alpha virt. eigenvalues --    2.74731   2.75001   2.76180   2.77285   2.79236
 Alpha virt. eigenvalues --    2.79291   2.80268   2.80511   2.83534   2.83769
 Alpha virt. eigenvalues --    2.84021   2.84789   2.85122   2.85581   2.86447
 Alpha virt. eigenvalues --    2.87173   2.87965   2.89048   2.89401   2.90159
 Alpha virt. eigenvalues --    2.90644   2.91490   2.91535   2.92329   2.93071
 Alpha virt. eigenvalues --    2.93659   2.94660   2.95594   2.95608   2.96529
 Alpha virt. eigenvalues --    2.96719   2.97615   2.98247   2.99136   2.99359
 Alpha virt. eigenvalues --    3.00100   3.00702   3.01847   3.02019   3.02044
 Alpha virt. eigenvalues --    3.02984   3.03376   3.03550   3.04486   3.05045
 Alpha virt. eigenvalues --    3.05824   3.06568   3.07443   3.08104   3.08801
 Alpha virt. eigenvalues --    3.09430   3.09851   3.09949   3.11356   3.11523
 Alpha virt. eigenvalues --    3.11934   3.12189   3.14234   3.14926   3.15097
 Alpha virt. eigenvalues --    3.15740   3.16386   3.17021   3.17623   3.18323
 Alpha virt. eigenvalues --    3.19019   3.19034   3.20459   3.21509   3.22286
 Alpha virt. eigenvalues --    3.22850   3.23802   3.24387   3.25648   3.26029
 Alpha virt. eigenvalues --    3.26626   3.26781   3.27121   3.27750   3.27777
 Alpha virt. eigenvalues --    3.28644   3.28817   3.29154   3.30376   3.30794
 Alpha virt. eigenvalues --    3.31968   3.32910   3.33468   3.33870   3.35005
 Alpha virt. eigenvalues --    3.35570   3.36305   3.36889   3.37890   3.38986
 Alpha virt. eigenvalues --    3.39353   3.39769   3.39878   3.40033   3.40711
 Alpha virt. eigenvalues --    3.41126   3.43520   3.44138   3.44345   3.45131
 Alpha virt. eigenvalues --    3.45958   3.46604   3.46814   3.47570   3.47841
 Alpha virt. eigenvalues --    3.48473   3.48693   3.48805   3.49321   3.50279
 Alpha virt. eigenvalues --    3.50609   3.51600   3.52135   3.53233   3.53859
 Alpha virt. eigenvalues --    3.53931   3.54525   3.55627   3.57170   3.57184
 Alpha virt. eigenvalues --    3.57939   3.58326   3.58905   3.59582   3.60512
 Alpha virt. eigenvalues --    3.61158   3.61220   3.61831   3.64224   3.64384
 Alpha virt. eigenvalues --    3.64466   3.65037   3.66606   3.66982   3.67585
 Alpha virt. eigenvalues --    3.68219   3.68469   3.69090   3.69246   3.69374
 Alpha virt. eigenvalues --    3.70046   3.70459   3.71341   3.72853   3.73119
 Alpha virt. eigenvalues --    3.75482   3.75928   3.76007   3.76488   3.76821
 Alpha virt. eigenvalues --    3.77733   3.78219   3.79216   3.79360   3.80918
 Alpha virt. eigenvalues --    3.80920   3.82092   3.82633   3.82714   3.84063
 Alpha virt. eigenvalues --    3.84943   3.85397   3.86490   3.87185   3.87483
 Alpha virt. eigenvalues --    3.88541   3.89626   3.91096   3.91157   3.91993
 Alpha virt. eigenvalues --    3.93118   3.93553   3.94299   3.95158   3.95967
 Alpha virt. eigenvalues --    3.97006   3.97853   3.98941   4.00326   4.00723
 Alpha virt. eigenvalues --    4.00915   4.02299   4.02913   4.03610   4.03661
 Alpha virt. eigenvalues --    4.05293   4.06324   4.07038   4.08568   4.09261
 Alpha virt. eigenvalues --    4.09847   4.09967   4.11245   4.12475   4.13205
 Alpha virt. eigenvalues --    4.13698   4.13898   4.15245   4.15636   4.16686
 Alpha virt. eigenvalues --    4.17386   4.18499   4.18991   4.19479   4.20299
 Alpha virt. eigenvalues --    4.20757   4.21143   4.21222   4.22089   4.22122
 Alpha virt. eigenvalues --    4.22442   4.22552   4.23507   4.23699   4.24438
 Alpha virt. eigenvalues --    4.25138   4.26041   4.26997   4.27381   4.27977
 Alpha virt. eigenvalues --    4.28300   4.28954   4.29147   4.30031   4.30583
 Alpha virt. eigenvalues --    4.31549   4.31761   4.32281   4.33326   4.34022
 Alpha virt. eigenvalues --    4.34124   4.34606   4.35473   4.35620   4.36599
 Alpha virt. eigenvalues --    4.37594   4.38662   4.39222   4.40384   4.40635
 Alpha virt. eigenvalues --    4.42580   4.42591   4.44127   4.45748   4.46495
 Alpha virt. eigenvalues --    4.46747   4.48076   4.48458   4.49851   4.50874
 Alpha virt. eigenvalues --    4.52205   4.52886   4.53851   4.54458   4.56009
 Alpha virt. eigenvalues --    4.56553   4.57755   4.59379   4.59701   4.62952
 Alpha virt. eigenvalues --    4.64633   4.66505   4.68618   4.68686   4.69189
 Alpha virt. eigenvalues --    4.71942   4.72866   4.74730   4.75738   4.76032
 Alpha virt. eigenvalues --    4.77469   4.79047   4.80173   4.81369   4.81437
 Alpha virt. eigenvalues --    4.83214   4.84796   4.85579   4.88196   4.88254
 Alpha virt. eigenvalues --    4.89369   4.90008   4.91839   4.92530   4.93745
 Alpha virt. eigenvalues --    4.93916   4.94728   4.96869   4.99339   4.99886
 Alpha virt. eigenvalues --    5.03930   5.04121   5.05079   5.05869   5.06469
 Alpha virt. eigenvalues --    5.07294   5.08696   5.10046   5.10186   5.11145
 Alpha virt. eigenvalues --    5.12760   5.12862   5.14254   5.15034   5.15321
 Alpha virt. eigenvalues --    5.17169   5.18680   5.18965   5.19509   5.20853
 Alpha virt. eigenvalues --    5.21125   5.22528   5.22875   5.23617   5.24495
 Alpha virt. eigenvalues --    5.24951   5.26447   5.26472   5.27547   5.27973
 Alpha virt. eigenvalues --    5.29120   5.29384   5.30622   5.31173   5.31426
 Alpha virt. eigenvalues --    5.32693   5.33777   5.34114   5.34748   5.35095
 Alpha virt. eigenvalues --    5.36902   5.37484   5.38414   5.38889   5.38962
 Alpha virt. eigenvalues --    5.39723   5.41005   5.41787   5.42089   5.42678
 Alpha virt. eigenvalues --    5.42757   5.45331   5.46337   5.47121   5.49220
 Alpha virt. eigenvalues --    5.49994   5.51996   5.52121   5.52830   5.52852
 Alpha virt. eigenvalues --    5.53677   5.55068   5.55902   5.57088   5.57374
 Alpha virt. eigenvalues --    5.58195   5.61205   5.63182   5.63202   5.63897
 Alpha virt. eigenvalues --    5.64894   5.66543   5.66958   5.67139   5.68767
 Alpha virt. eigenvalues --    5.70096   5.70281   5.71836   5.72577   5.75132
 Alpha virt. eigenvalues --    5.75296   5.75611   5.76255   5.77634   5.77868
 Alpha virt. eigenvalues --    5.78227   5.79943   5.80045   5.80828   5.80905
 Alpha virt. eigenvalues --    5.84609   5.87678   5.90157   5.92476   5.93466
 Alpha virt. eigenvalues --    6.06001   6.10200   6.12337   6.14214   6.17463
 Alpha virt. eigenvalues --    6.18030   6.21478   6.24809   6.29310   6.30503
 Alpha virt. eigenvalues --    6.33496   6.33948   6.52024   6.58720   6.78774
 Alpha virt. eigenvalues --    6.94763   6.97257   7.21638   7.26517  22.92763
 Alpha virt. eigenvalues --   23.12595  23.29197  23.41686  23.44607  23.52535
 Alpha virt. eigenvalues --   23.70290  23.71925  23.77194  23.77246  23.80512
 Alpha virt. eigenvalues --   23.85682  32.89946  32.89988  33.11876  34.42581
 Alpha virt. eigenvalues --   41.00960  42.84859  44.12478  59.76827 363.47390
          Condensed to atoms (all electrons):
               1          2          3          4          5          6
     1  C    5.548368  -0.173378  -0.052803   0.127358   0.034835  -0.012338
     2  C   -0.173378   5.548436   0.127353  -0.052838   0.034851  -0.006168
     3  C   -0.052803   0.127353   6.117724  -0.307291   0.250770   0.385016
     4  C    0.127358  -0.052838  -0.307291   6.117738   0.250745   0.023042
     5  C    0.034835   0.034851   0.250770   0.250745   4.536186  -0.033437
     6  H   -0.012338  -0.006168   0.385016   0.023042  -0.033437   0.532630
     7  H   -0.006167  -0.012342   0.023040   0.385024  -0.033440  -0.000196
     8  O    0.031816   0.031816  -0.155065  -0.155065   0.670688   0.008309
     9  N    0.370582   0.370596  -0.082302  -0.082295  -0.001286   0.003566
    10  C    0.220977  -0.003992  -0.019121   0.005356  -0.005061  -0.002259
    11  H   -0.033093   0.001275  -0.002691  -0.000141  -0.000125   0.000092
    12  H   -0.050870  -0.000341  -0.001838  -0.000176   0.001108   0.000578
    13  C   -0.003993   0.221005   0.005356  -0.019143  -0.005058   0.000158
    14  H    0.001275  -0.033097  -0.000141  -0.002692  -0.000125   0.000002
    15  H   -0.000341  -0.050868  -0.000176  -0.001834   0.001108  -0.000005
    16  N   -0.033376   0.002734  -0.001581   0.000364   0.000105   0.000177
    17  N    0.002737  -0.033415   0.000364  -0.001582   0.000106  -0.000006
    18  C    0.000974   0.000975   0.000030   0.000031  -0.000013   0.000001
    19  H   -0.000004  -0.000004   0.000007   0.000007   0.000009  -0.000000
    20  H   -0.000029  -0.000035   0.000002  -0.000001  -0.000000  -0.000000
    21  H   -0.000035  -0.000029  -0.000001   0.000002  -0.000000   0.000000
    22  C    0.013588   0.000052   0.000552   0.000009  -0.000085  -0.000023
    23  H   -0.000911  -0.000032   0.000030   0.000002  -0.000001  -0.000000
    24  H    0.001772   0.000009  -0.000007  -0.000004   0.000002   0.000012
    25  H   -0.001659   0.000046  -0.000156   0.000003   0.000004  -0.000006
    26  C    0.003587  -0.000403   0.003858  -0.000003  -0.000317  -0.000019
    27  H   -0.004537  -0.000041  -0.000427   0.000009   0.000016  -0.000016
    28  H   -0.000372   0.000092  -0.000121   0.000009   0.000013  -0.000004
    29  H    0.012182  -0.000637   0.005906   0.000251  -0.000404   0.000182
    30  C    0.000051   0.013586   0.000009   0.000553  -0.000085   0.000001
    31  H    0.000009   0.001770  -0.000004  -0.000007   0.000002  -0.000000
    32  H   -0.000032  -0.000910   0.000002   0.000030  -0.000001   0.000000
    33  H    0.000046  -0.001659   0.000003  -0.000156   0.000004   0.000000
    34  C   -0.000403   0.003592  -0.000003   0.003859  -0.000317   0.000001
    35  H    0.000092  -0.000371   0.000009  -0.000120   0.000013  -0.000000
    36  H   -0.000041  -0.004544   0.000009  -0.000428   0.000016  -0.000000
    37  H   -0.000638   0.012193   0.000252   0.005905  -0.000404   0.000003
    38  H    0.000185   0.000187   0.000042   0.000042  -0.000004   0.000000
    39  Ir  -0.076479  -0.076510   0.001038   0.001036   0.001519  -0.000647
               7          8          9         10         11         12
     1  C   -0.006167   0.031816   0.370582   0.220977  -0.033093  -0.050870
     2  C   -0.012342   0.031816   0.370596  -0.003992   0.001275  -0.000341
     3  C    0.023040  -0.155065  -0.082302  -0.019121  -0.002691  -0.001838
     4  C    0.385024  -0.155065  -0.082295   0.005356  -0.000141  -0.000176
     5  C   -0.033440   0.670688  -0.001286  -0.005061  -0.000125   0.001108
     6  H   -0.000196   0.008309   0.003566  -0.002259   0.000092   0.000578
     7  H    0.532631   0.008308   0.003566   0.000158   0.000002  -0.000005
     8  O    0.008308   8.109236   0.001022  -0.000676  -0.000004   0.000016
     9  N    0.003566   0.001022   6.454292  -0.020370  -0.007395   0.004207
    10  C    0.000158  -0.000676  -0.020370   4.936096   0.436837   0.438174
    11  H    0.000002  -0.000004  -0.007395   0.436837   0.539200  -0.016663
    12  H   -0.000005   0.000016   0.004207   0.438174  -0.016663   0.536654
    13  C   -0.002259  -0.000676  -0.020365  -0.002244  -0.000068   0.000074
    14  H    0.000093  -0.000004  -0.007397  -0.000068  -0.000064  -0.000001
    15  H    0.000579   0.000017   0.004206   0.000074  -0.000001  -0.000001
    16  N   -0.000006   0.000006  -0.017209   0.257435  -0.038293  -0.024908
    17  N    0.000177   0.000006  -0.017220   0.000416   0.000137  -0.000048
    18  C    0.000001  -0.000000  -0.007648   0.000593   0.000084  -0.000036
    19  H   -0.000000  -0.000000  -0.000243  -0.000205  -0.000012   0.000007
    20  H    0.000000   0.000000   0.000151  -0.000073   0.000006   0.000002
    21  H   -0.000000   0.000000   0.000151   0.000060  -0.000003   0.000000
    22  C    0.000001  -0.000001  -0.002645  -0.042555  -0.004485  -0.007224
    23  H    0.000000   0.000000  -0.000005   0.009405   0.000447  -0.000484
    24  H   -0.000000   0.000000   0.000195  -0.011118  -0.002741   0.005040
    25  H    0.000000  -0.000000  -0.000090  -0.005660   0.002640  -0.000264
    26  C    0.000001   0.000005  -0.001551  -0.036386   0.006242  -0.013455
    27  H   -0.000000   0.000000   0.000459  -0.008854  -0.000269   0.006392
    28  H   -0.000000  -0.000000   0.000026   0.007567  -0.000204  -0.000128
    29  H    0.000003  -0.000007  -0.004355  -0.013605   0.000359  -0.003296
    30  C   -0.000023  -0.000001  -0.002642  -0.000132  -0.000009   0.000001
    31  H    0.000012   0.000000   0.000194   0.000004  -0.000000  -0.000000
    32  H   -0.000000   0.000000  -0.000005  -0.000011   0.000000   0.000000
    33  H   -0.000006  -0.000000  -0.000089  -0.000035  -0.000001   0.000000
    34  C   -0.000019   0.000005  -0.001550   0.000035   0.000000   0.000004
    35  H   -0.000004  -0.000000   0.000026  -0.000014  -0.000000   0.000000
    36  H   -0.000016   0.000000   0.000459  -0.000001   0.000000   0.000000
    37  H    0.000183  -0.000007  -0.004356   0.000070  -0.000003  -0.000001
    38  H    0.000000  -0.000000  -0.000236  -0.000221  -0.000162   0.000005
    39  Ir  -0.000647   0.000124   0.262301  -0.048076  -0.005568   0.012775
              13         14         15         16         17         18
     1  C   -0.003993   0.001275  -0.000341  -0.033376   0.002737   0.000974
     2  C    0.221005  -0.033097  -0.050868   0.002734  -0.033415   0.000975
     3  C    0.005356  -0.000141  -0.000176  -0.001581   0.000364   0.000030
     4  C   -0.019143  -0.002692  -0.001834   0.000364  -0.001582   0.000031
     5  C   -0.005058  -0.000125   0.001108   0.000105   0.000106  -0.000013
     6  H    0.000158   0.000002  -0.000005   0.000177  -0.000006   0.000001
     7  H   -0.002259   0.000093   0.000579  -0.000006   0.000177   0.000001
     8  O   -0.000676  -0.000004   0.000017   0.000006   0.000006  -0.000000
     9  N   -0.020365  -0.007397   0.004206  -0.017209  -0.017220  -0.007648
    10  C   -0.002244  -0.000068   0.000074   0.257435   0.000416   0.000593
    11  H   -0.000068  -0.000064  -0.000001  -0.038293   0.000137   0.000084
    12  H    0.000074  -0.000001  -0.000001  -0.024908  -0.000048  -0.000036
    13  C    4.936035   0.436851   0.438173   0.000416   0.257480   0.000589
    14  H    0.436851   0.539177  -0.016659   0.000137  -0.038293   0.000084
    15  H    0.438173  -0.016659   0.536638  -0.000048  -0.024908  -0.000036
    16  N    0.000416   0.000137  -0.000048   6.380450  -0.006553   0.006753
    17  N    0.257480  -0.038293  -0.024908  -0.006553   6.380450   0.006754
    18  C    0.000589   0.000084  -0.000036   0.006753   0.006754   4.947828
    19  H   -0.000205  -0.000012   0.000007  -0.002329  -0.002333   0.368219
    20  H    0.000060  -0.000003   0.000000  -0.001011   0.000151   0.423395
    21  H   -0.000073   0.000006   0.000002   0.000151  -0.001010   0.423377
    22  C   -0.000132  -0.000009   0.000001   0.254452   0.000618  -0.002231
    23  H   -0.000011   0.000000   0.000000  -0.031812   0.000060   0.001479
    24  H    0.000004  -0.000000  -0.000000  -0.019064  -0.000016  -0.000165
    25  H   -0.000035  -0.000001   0.000000  -0.038120   0.000089   0.000153
    26  C    0.000036   0.000000   0.000004   0.254890   0.000757  -0.000018
    27  H   -0.000001   0.000000   0.000000  -0.022284  -0.000032  -0.000236
    28  H   -0.000015  -0.000000   0.000000  -0.034089   0.000165   0.000213
    29  H    0.000069  -0.000003  -0.000001  -0.032499   0.000252   0.000273
    30  C   -0.042545  -0.004487  -0.007223   0.000618   0.254427  -0.002217
    31  H   -0.011115  -0.002739   0.005039  -0.000016  -0.019067  -0.000165
    32  H    0.009403   0.000446  -0.000484   0.000060  -0.031815   0.001481
    33  H   -0.005658   0.002641  -0.000265   0.000089  -0.038124   0.000151
    34  C   -0.036405   0.006243  -0.013456   0.000756   0.254907  -0.000024
    35  H    0.007568  -0.000204  -0.000128   0.000165  -0.034084   0.000213
    36  H   -0.008841  -0.000269   0.006391  -0.000032  -0.022285  -0.000236
    37  H   -0.013626   0.000358  -0.003293   0.000252  -0.032499   0.000274
    38  H   -0.000224  -0.000162   0.000005  -0.005980  -0.005976   0.222652
    39  Ir  -0.048011  -0.005570   0.012775   0.185638   0.185652  -0.043302
              19         20         21         22         23         24
     1  C   -0.000004  -0.000029  -0.000035   0.013588  -0.000911   0.001772
     2  C   -0.000004  -0.000035  -0.000029   0.000052  -0.000032   0.000009
     3  C    0.000007   0.000002  -0.000001   0.000552   0.000030  -0.000007
     4  C    0.000007  -0.000001   0.000002   0.000009   0.000002  -0.000004
     5  C    0.000009  -0.000000  -0.000000  -0.000085  -0.000001   0.000002
     6  H   -0.000000  -0.000000   0.000000  -0.000023  -0.000000   0.000012
     7  H   -0.000000   0.000000  -0.000000   0.000001   0.000000  -0.000000
     8  O   -0.000000   0.000000   0.000000  -0.000001   0.000000   0.000000
     9  N   -0.000243   0.000151   0.000151  -0.002645  -0.000005   0.000195
    10  C   -0.000205  -0.000073   0.000060  -0.042555   0.009405  -0.011118
    11  H   -0.000012   0.000006  -0.000003  -0.004485   0.000447  -0.002741
    12  H    0.000007   0.000002   0.000000  -0.007224  -0.000484   0.005040
    13  C   -0.000205   0.000060  -0.000073  -0.000132  -0.000011   0.000004
    14  H   -0.000012  -0.000003   0.000006  -0.000009   0.000000  -0.000000
    15  H    0.000007   0.000000   0.000002   0.000001   0.000000  -0.000000
    16  N   -0.002329  -0.001011   0.000151   0.254452  -0.031812  -0.019064
    17  N   -0.002333   0.000151  -0.001010   0.000618   0.000060  -0.000016
    18  C    0.368219   0.423395   0.423377  -0.002231   0.001479  -0.000165
    19  H    0.544048  -0.016561  -0.016547  -0.000145  -0.000358  -0.000001
    20  H   -0.016561   0.525364  -0.014011  -0.001141   0.000763  -0.000081
    21  H   -0.016547  -0.014011   0.525290   0.000032   0.000165   0.000005
    22  C   -0.000145  -0.001141   0.000032   4.837276   0.420351   0.407662
    23  H   -0.000358   0.000763   0.000165   0.420351   0.560101  -0.021063
    24  H   -0.000001  -0.000081   0.000005   0.407662  -0.021063   0.542148
[...]
 40,0.00006590,-0.00005567,-0.00004235,-0.00004651,0.00004811,-0.000006
 83,0.00000231,-0.00000056,-0.00000260,0.00000202,0.00000058,-0.0000016
 6,0.00004051,-0.00001631,0.00000157,0.00003163,0.00000925,0.00004096,-
 0.00003382,0.00001284,-0.00002232,-0.00000032,-0.00000629,0.00000312,0
 .00001552,0.00000605,-0.00000205,0.00095551,0.00001071,-0.00175743,-0.
 00062519,0.00042657,-0.00023917,-0.00037196,0.00036781,0.00001602,0.00
 010028,-0.00002683,0.00008376,-0.01106164,0.00038795,-0.00574094,0.000
 19539,-0.00013551,-0.00023843,0.00023598,-0.00075884,0.00006682,-0.000
 03199,0.00001987,0.00013639,-0.00006251,-0.00008642,-0.00014252,0.0000
 1193,-0.00000636,-0.00000818,-0.00000070,-0.00001120,-0.00000064,0.000
 00159,0.00001391,-0.00000624,0.00000125,-0.00000272,-0.00000546,-0.000
 00507,-0.00000663,0.00000208,0.00000420,0.00001343,0.00000063,0.000005
 80,-0.00001025,0.00000305,-0.00000887,-0.00000494,-0.00000029,0.000193
 46,-0.00019399,0.00054081,0.00018883,-0.00002652,-0.00011690,-0.000073
 21,0.00018599,0.00032605,-0.00010737,-0.00011997,-0.00004270,0.0516969
 3,-0.05915874,0.02181234,-0.05338057,0.06027316,0.00002399,0.00001785,
 -0.00003858,0.00016621,0.00050380,-0.00023933,-0.00000719,-0.00006288,
 0.00000081,-0.00006774,-0.00025412,0.00012041,0.00002932,0.00008159,0.
 00000809,0.00000033,-0.00000631,0.00000294,0.00000625,0.00000927,-0.00
 001992,-0.00005802,-0.00003411,0.00000722,-0.00019325,-0.00014194,0.00
 009632,-0.00001369,-0.00002550,-0.00000546,-0.00000117,-0.00000788,0.0
 0000207,0.00000143,-0.00000564,-0.00000339,0.00174015,-0.00106294,-0.0
 0585341,-0.00188153,0.00000576,-0.00075418,0.00018141,0.00003911,0.000
 04074,-0.00003938,-0.00022809,-0.00006973,-0.03194976,0.00382926,-0.01
 758631,-0.00008925,-0.00005114,-0.00012029,0.00003640,-0.00022621,0.00
 013806,0.00001837,0.00007822,0.00006496,0.00010123,-0.00013146,-0.0000
 7918,-0.00002065,-0.00001027,0.00000467,0.00000581,-0.00000792,0.00000
 027,0.00001035,-0.00000598,-0.00000602,0.00000245,-0.00000494,-0.00000
 389,-0.00000080,0.00003449,-0.00002127,0.00000209,0.00000231,-0.000006
 12,-0.00000260,-0.00000305,0.00001118,0.00000488,-0.00000144,0.0000050
 0,-0.00228625,-0.00021050,0.00106680,0.00020799,0.00004186,-0.00007935
 ,0.00075337,0.00018497,-0.00058284,0.00015693,-0.00022314,0.00031325,-
 0.08539982,0.01909523,-0.08459917,0.10208774,-0.01803658,0.09931716,0.
 00000591,0.00004629,0.00001759,-0.00028078,-0.00022006,0.00003641,0.00
 000173,-0.00000928,-0.00000340,0.00014330,0.00009749,0.00000098,-0.000
 09371,-0.00009061,0.00001957,0.00000451,0.00000669,0.00000056,-0.00001
 420,0.00000064,-0.00001608,0.00009949,0.00002561,-0.00001101,-0.000188
 13,0.00022305,0.00001846,-0.00003287,-0.00002393,-0.00001064,-0.000003
 25,-0.00000131,0.00000214,0.00000900,0.00001201,0.00000026,0.00099606,
 -0.00221249,-0.00057476,0.00002603,0.00004937,0.00010557,-0.00013545,0
 .00013706,-0.00026598,-0.00011769,0.00013436,-0.00009545,-0.00067160,-
 0.00019018,0.00048853,0.00004963,0.00002470,-0.00006423,0.00003397,-0.
 00016247,0.00011125,-0.00000351,0.00000303,0.00003131,0.00002710,-0.00
 005004,-0.00004273,0.00003087,-0.00000415,-0.00004116,-0.00000006,-0.0
 0000070,-0.00000286,-0.00000354,0.00002015,0.00001346,0.00000257,-0.00
 000425,0.00000967,-0.00001006,0.00002602,0.00005533,0.00001072,0.00001
 786,-0.00001919,-0.00000138,-0.00000419,0.00000211,0.00000557,-0.00000
 073,-0.00000470,0.00010677,0.00116176,0.00018150,0.00001638,-0.0001614
 4,0.00033460,-0.00008908,0.00013857,-0.00013405,-0.00007102,-0.0002278
 0,-0.00007089,-0.06168867,0.04854144,0.00173253,-0.00338984,0.02790330
 ,0.00178363,0.05829601,0.00011050,0.00017556,-0.00009738,0.00016637,-0
 .00019491,0.00000862,-0.00017716,0.00008792,0.00003203,-0.00018326,-0.
 00012545,0.00005899,0.00034497,-0.00000179,-0.00003135,-0.00002158,-0.
 00001168,0.00001173,-0.00003507,0.00001429,-0.00001585,-0.00035618,0.0
 0000592,0.00004315,-0.00000876,0.00014935,-0.00000145,0.00018738,0.000
 04427,0.00008321,0.00000381,0.00001887,-0.00000602,-0.00004591,-0.0000
 3692,0.00000265,0.00094964,0.00058822,0.00112618,-0.00022406,0.0003629
 1,0.00010683,-0.00103442,0.00041258,-0.00057314,0.00008916,-0.00037465
 ,0.00047511,0.00216257,-0.01243253,-0.00648288,-0.00015024,0.00008831,
 0.00008572,-0.00006229,0.00004104,0.00000633,0.00002892,-0.00001712,0.
 00002485,0.00004751,0.00002511,0.00001867,-0.00015292,0.00005520,0.000
 11333,0.00001186,0.00001200,0.00000344,0.00001096,-0.00008372,-0.00001
 142,-0.00000527,0.00003541,0.00000814,-0.00005148,-0.00016402,-0.00019
 067,-0.00001782,-0.00007136,0.00009145,0.00000885,0.00001342,-0.000002
 29,-0.00000101,0.00001664,0.00000148,-0.00086790,0.00161472,0.00126954
 ,0.00062163,0.00051819,-0.00069602,0.00007201,-0.00015874,-0.00004946,
 -0.00004267,0.00039229,0.00004337,0.04814169,-0.29239686,-0.00974139,-
 0.00006917,-0.00412942,0.00031820,-0.05396402,0.31880652,-0.00000580,-
 0.00001012,0.00000153,-0.00021508,0.00014044,0.00002000,-0.00001863,0.
 00004202,-0.00000049,-0.00010652,-0.00007256,0.00002098,0.00005302,0.0
 0002713,0.00001015,-0.00000545,-0.00000368,-0.00000447,-0.00000981,0.0
 0000009,0.00000518,-0.00007980,-0.00000563,0.00000423,0.00024165,0.000
 10550,0.00001354,0.00017639,0.00002358,0.00008713,-0.00001126,0.000002
 72,-0.00001350,-0.00003340,-0.00001735,-0.00000658,0.00309248,-0.00201
 041,0.00083116,0.00010744,0.00021137,0.00022314,-0.00067301,0.00054768
 ,0.00026576,-0.00002126,-0.00065755,0.00088476,0.00624734,-0.03689522,
 -0.01391606,0.00003689,0.00009493,-0.00008199,-0.00002577,-0.00008409,
 0.00001989,0.00002446,-0.00001020,0.00004191,0.00007009,-0.00001223,-0
 .00001669,-0.00012328,0.00008997,0.00012265,0.00001095,-0.00000055,0.0
 0000046,0.00001220,-0.00004770,-0.00002581,0.00000447,0.00001575,-0.00
 002265,-0.00006078,-0.00026171,-0.00017355,-0.00001918,-0.00009143,0.0
 0011122,0.00000406,-0.00000062,-0.00000611,-0.00000716,-0.00000673,-0.
 00000083,-0.00099258,-0.00335740,0.00169136,-0.00010932,0.00091888,0.0
 0002425,0.00007360,0.00026276,-0.00010552,-0.00018350,0.00039219,0.000
 22429,0.00067650,-0.00433046,-0.05082968,-0.00084717,0.01150155,0.0013
 7612,-0.00216778,0.01755565,0.05978701,0.00007989,0.00010189,-0.000062
 96,0.00017440,-0.00050832,-0.00020594,-0.00009098,0.00005576,0.0000181
 4,0.00005001,0.00023847,0.00012362,-0.00009475,-0.00023972,-0.00003257
 ,-0.00000275,0.00001088,0.00001285,-0.00000601,0.00000648,-0.00000633,
 0.00008425,0.00006701,-0.00000108,-0.00020805,-0.00000303,-0.00008569,
 0.00002864,0.00000511,0.00001014,-0.00000602,0.00001226,0.00000356,-0.
 00000339,0.00000152,0.00000685,0.00039065,0.00061169,-0.00072032,0.000
 07229,0.00003079,0.00015607,0.00008131,0.00007576,-0.00002881,0.000002
 65,0.00010626,-0.00006706,0.00099696,0.00157595,-0.00186856,-0.0001413
 9,0.00002438,0.00011957,0.00003850,-0.00008632,0.00003429,0.00000361,0
 .00004103,0.00001293,0.00009444,-0.00000626,-0.00001731,-0.00000640,-0
 .00000532,-0.00002686,-0.00000163,0.00000050,0.00000141,-0.00000139,-0
 .00000852,0.00001542,-0.00000253,0.00000635,0.00001423,-0.00001796,0.0
 0001098,0.00003216,0.00000559,0.00000101,-0.00000716,-0.00000926,0.000
 00885,0.00000487,0.00001711,0.00002068,0.00000142,0.00045924,0.0005024
 7,-0.00019932,-0.00005187,-0.00014917,0.00001098,0.00048013,0.00003482
 ,-0.00008387,0.00041072,-0.00028796,0.00006583,-0.18292965,-0.09986676
 ,0.09768987,-0.01698666,-0.01509056,0.01470293,0.00573331,0.00453835,-
 0.00474234,0.19093625,-0.00001572,-0.00003310,0.00000893,-0.00019846,0
 .00020759,-0.00024517,0.00001755,-0.00003273,0.00000731,0.00005468,-0.
 00003996,0.00000305,-0.00002798,0.00003211,-0.00001894,0.00000285,-0.0
 0000261,0.00000071,0.00002411,-0.00000942,0.00002700,0.00003412,-0.000
 01624,-0.00000607,-0.00025520,-0.00005497,-0.00006587,-0.00002577,-0.0
 0000742,-0.00001126,0.00000277,-0.00000062,0.00000429,0.00000444,0.000
 00206,-0.00000264,-0.00003959,0.00041661,0.00033106,0.00013572,-0.0001
 2590,-0.00002925,-0.00009897,-0.00038367,0.00000571,-0.00004119,0.0001
 2611,0.00002362,0.00948454,0.00555620,-0.00686911,-0.00001677,-0.00001
 840,-0.00005298,-0.00001436,0.00001144,0.00001840,-0.00000020,-0.00000
 617,0.00001271,-0.00003359,0.00000677,-0.00000680,0.00002088,0.0000123
 8,-0.00001050,0.00000057,-0.00000062,-0.00000131,-0.00000706,0.0000145
 5,0.00000424,-0.00000113,0.00000762,0.00000641,0.00001809,-0.00001120,
 -0.00000823,0.00000078,0.00001670,0.00000676,0.00000380,-0.00000494,0.
 00000147,-0.00002076,-0.00002086,0.00000659,-0.00029054,-0.00002910,-0
 .00107932,0.00007856,0.00047190,-0.00037892,-0.00009362,-0.00017854,-0
 .00006338,0.00008292,0.00049138,-0.00043944,-0.10248557,-0.12434602,0.
 07495219,0.00536203,0.00342980,-0.00418796,-0.02119707,-0.01357080,0.0
 1482006,0.10845369,0.12919445,-0.00008068,-0.00013312,-0.00002525,-0.0
 0071623,-0.00022440,-0.00037040,0.00005532,0.00004076,-0.00002247,-0.0
 0004473,0.00004310,0.00005402,-0.00024654,-0.00008118,0.00001258,0.000
 00585,0.00001239,0.00000249,0.00001123,-0.00000779,0.00000919,0.000194
 49,0.00002545,-0.00002245,0.00017028,-0.00015960,0.00004031,0.00004543
 ,-0.00002794,0.00002733,-0.00001566,0.00000146,-0.00000230,-0.00001506
 ,0.00000692,-0.00000718,0.00154671,0.00058244,0.00080705,0.00012711,0.
 00000792,0.00020495,-0.00022611,0.00014248,-0.00010269,-0.00003787,-0.
 00026962,-0.00002131,0.02466578,0.01657875,-0.02179629,-0.00000708,-0.
 00001795,-0.00012447,-0.00004850,-0.00003771,-0.00003277,-0.00001104,0
 .00000834,0.00000882,-0.00000981,0.00001194,-0.00001585,-0.00002003,-0
 .00000813,0.00001242,-0.00000076,-0.00000377,0.00000250,0.00001106,-0.
 00000052,-0.00001870,0.00000460,-0.00000483,-0.00001881,0.00000892,0.0
 0002775,-0.00003488,-0.00000468,-0.00000137,-0.00000083,-0.00000402,0.
 00000030,0.00000501,0.00000137,-0.00000650,0.00001624,-0.00185650,-0.0
 0320351,-0.00565010,-0.00014439,0.00005432,0.00005886,0.00006971,-0.00
 015074,0.00024016,0.00131131,0.00108677,-0.00106930,0.08968755,0.06836
 314,-0.11628601,-0.00817137,-0.00709322,0.00768618,-0.00180241,-0.0006
 9947,0.00194634,-0.10445406,-0.07550695,0.13446074,-0.00207694,-0.0008
 1464,0.00021241,-0.00207576,0.00081619,0.00021475,0.00143375,-0.001264
 65,-0.00004681,0.00143065,0.00126162,-0.00004689,-0.00227672,0.0000028
 9,0.00014713,-0.00000774,0.00006428,0.00006438,-0.00000878,-0.00006398
 ,0.00006462,0.00244220,-0.00000022,-0.00026201,-0.00828859,-0.00000129
 ,-0.00337202,-0.00042871,-0.00043920,-0.00022115,-0.00007511,-0.000006
 83,0.00004430,0.00006614,0.00009089,-0.00005045,-0.00042770,0.00043798
 ,-0.00022086,-0.00007488,0.00000754,0.00004383,0.00006620,-0.00009064,
 -0.00005091,-0.00051031,-0.00015653,-0.00002576,-0.00050931,0.00015984
 ,-0.00002375,-0.08272924,-0.00000489,-0.02672141,0.01922811,0.00000201
 ,0.01554630,-0.01175972,-0.00173516,-0.01567104,-0.01175566,0.00173309
 ,-0.01566852,0.00069000,-0.00031719,-0.00018657,-0.00031052,0.00020939
 ,-0.00016061,-0.00027235,0.00023482,0.00005613,0.00004616,-0.00010458,
 0.00012038,0.00025583,-0.00000730,0.00032391,-0.00004282,0.00025279,-0
 .00008588,0.00004357,0.00016339,-0.00013086,-0.00012264,-0.00001618,0.
 00014987,0.00069037,0.00031342,-0.00018597,-0.00027302,-0.00023245,0.0
 0005537,-0.00031044,-0.00020905,-0.00016061,0.00004625,0.00010540,0.00
 012032,0.00025484,0.00000456,0.00032150,0.00004411,-0.00016332,-0.0001
 3048,-0.00004272,-0.00025127,-0.00008557,-0.00012258,0.00001668,0.0001
 5008,0.11766708,-0.00005736,-0.00033146,0.00034138,0.00005768,-0.00033
 160,-0.00034073,0.00029204,-0.00004528,-0.00011703,-0.00029226,-0.0000
 4497,0.00011584,-0.00000064,0.00035852,0.00000056,0.00001002,-0.000000
 08,-0.00006765,-0.00001002,0.00000007,0.00006790,0.00000051,-0.0000817
 1,-0.00000004,-0.00000096,0.00226369,-0.00000088,-0.00016064,0.0000820
 6,-0.00003541,0.00001115,0.00002581,-0.00001024,0.00002522,0.00001193,
 -0.00001095,0.00016059,0.00008226,0.00003540,-0.00001125,0.00002597,0.
 00001027,-0.00002522,0.00001186,0.00001088,-0.00100732,0.00109750,0.00
 064554,0.00100721,0.00109765,-0.00064591,-0.00000574,-0.02150681,-0.00
 000225,0.00000243,-0.00416385,0.00000165,0.01017422,0.00003992,0.01535
 274,-0.01017683,0.00003811,-0.01535608,-0.00035739,-0.00011784,-0.0001
 6225,0.00017441,-0.00030973,0.00011606,0.00017955,0.00012466,0.0000620
 8,-0.00003406,-0.00018739,0.00001374,-0.00008237,-0.00003469,0.0000616
 1,0.00004949,-0.00003333,-0.00000327,0.00001906,0.00001280,0.00002153,
 0.00005388,0.00000096,-0.00010362,0.00035773,-0.00011739,0.00016199,-0
 .00017958,0.00012426,-0.00006206,-0.00017446,-0.00030983,-0.00011609,0
 .00003410,-0.00018734,-0.00001350,0.00008229,-0.00003491,-0.00006166,-
 0.00001904,0.00001275,-0.00002152,-0.00004955,-0.00003332,0.00000328,-
 0.00005383,0.00000095,0.00010368,0.00001015,0.02747916,-0.00179317,-0.
 00091095,0.00048634,-0.00179216,0.00090785,0.00048710,0.00073067,-0.00
 075442,-0.00028180,0.00073183,0.00075582,-0.00028281,-0.00104280,-0.00
 000101,0.00016041,-0.00006646,0.00002792,-0.00003385,-0.00006739,-0.00
 002820,-0.00003356,0.00111881,0.00000058,-0.00012241,-0.00319637,0.000
 00038,0.00418536,-0.00019488,-0.00027311,0.00017368,-0.00002178,0.0000
 6468,-0.00001371,-0.00004546,0.00000136,-0.00006807,-0.00019383,0.0002
 7444,0.00017392,-0.00002223,-0.00006437,-0.00001359,-0.00004532,-0.000
 00183,-0.00006848,-0.00000206,-0.00016046,-0.00019213,-0.00000287,0.00
 016015,-0.00019257,-0.06887102,-0.00000690,-0.13542197,-0.00757309,-0.
 00000069,-0.00468247,-0.00046022,-0.00031377,-0.00083911,-0.00046048,0
 .00031386,-0.00083887,0.00043415,-0.00029091,0.00001266,-0.00024157,0.
 00023769,-0.00005218,-0.00018689,0.00007029,-0.00003334,-0.00002866,-0
 .00002348,0.00007760,0.00034239,0.00002838,-0.00007155,-0.00009844,0.0
 0017847,0.00004625,0.00004211,0.00005507,-0.00011428,-0.00019219,0.000
 01778,0.00016273,0.00043372,0.00029179,0.00001250,-0.00018682,-0.00007
 029,-0.00003329,-0.00024124,-0.00023801,-0.00005226,-0.00002874,0.0000
 2341,0.00007771,0.00034237,-0.00002837,-0.00007185,0.00004205,-0.00005
 503,-0.00011437,-0.00009831,-0.00017873,0.00004619,-0.00019226,-0.0000
 1766,0.00016281,0.02559881,0.00000195,0.15873679,-0.01631061,-0.015790
 04,-0.00260328,-0.01631907,0.01578231,-0.00260667,-0.00192705,0.003455
 21,-0.00016628,-0.00192133,-0.00344912,-0.00016697,0.00388206,-0.00000
 494,-0.00022625,0.00038244,0.00011605,-0.00002340,0.00038318,-0.000116
 42,-0.00002351,-0.00468484,0.00000048,0.00044193,-0.17727830,-0.000012
 50,-0.01511291,-0.00516766,-0.01325526,0.00129830,0.00035972,-0.000134
 49,0.00004453,-0.00314489,-0.00004361,-0.00093123,-0.00517427,0.013258
 72,0.00129704,0.00035922,0.00013371,0.00004526,-0.00314481,0.00004224,
 -0.00093081,-0.04500215,0.00623226,-0.00080925,-0.04500397,-0.00623564
 ,-0.00081297,-0.01743097,0.00000036,-0.04648074,-0.00969970,-0.0000003
 1,-0.01303250,0.00087246,0.00100839,0.00272671,0.00087105,-0.00100950,
 0.00272950,0.00299227,0.00927236,-0.00117548,0.00040289,0.00058419,-0.
 00003117,-0.00066625,0.00242057,0.00129114,0.00003199,0.00029652,-0.00
 021624,-0.00016293,-0.00116717,0.00105883,0.00123871,-0.00022831,-0.00
 028628,0.00041404,0.00076188,0.00011912,0.00054358,-0.00106511,-0.0001
 4882,0.00299370,-0.00926331,-0.00117716,-0.00066473,-0.00242442,0.0012
 9234,0.00040294,-0.00058471,-0.00003105,0.00003175,-0.00029755,-0.0002
 1585,-0.00016180,0.00117325,0.00106446,0.00041318,-0.00076175,0.000118
 31,0.00123864,0.00022631,-0.00028711,0.00054329,0.00106478,-0.00014928
 ,-0.01990302,-0.00000321,0.05752979,0.35541124,-0.01877195,0.00083227,
 -0.00099923,0.01876595,0.00083934,0.00099511,-0.00010346,-0.00466178,0
 .00020673,0.00010437,-0.00466213,-0.00020128,0.00000482,0.00093188,-0.
 00000383,-0.00084302,0.00017855,0.00050036,0.00084369,0.00017800,-0.00
 050055,-0.00000230,-0.00021871,0.00000048,-0.00001394,-0.05318837,-0.0
 0000055,-0.01578745,-0.01031534,-0.00445449,0.00052653,-0.00006521,0.0
 0056551,0.00081695,0.00053619,-0.00024491,0.01578765,-0.01030965,0.004
 45563,-0.00052604,-0.00006611,-0.00056627,-0.00081746,0.00053613,0.000
 24514,-0.00396781,-0.05141418,0.00065632,0.00396880,-0.05141349,-0.000
 65375,0.00000195,-0.03373222,-0.00000582,-0.00000198,-0.00034262,-0.00
 000085,0.00779163,0.00295257,0.00588663,-0.00779181,0.00295136,-0.0058
 8584,0.00390688,-0.01195833,-0.00460341,-0.00098855,0.00043223,0.00065
 415,-0.00062236,0.00077940,0.00066711,-0.00081381,-0.00010884,0.001121
 48,-0.00098277,-0.01053513,0.01101952,-0.00000490,0.00032376,-0.001120
 50,-0.00057701,-0.00067021,-0.00070992,0.00023809,-0.00110619,-0.00054
 092,-0.00390541,-0.01196251,0.00460490,0.00062137,0.00078040,-0.000667
 03,0.00098927,0.00043241,-0.00065421,0.00081409,-0.00010915,-0.0011234
 7,0.00098494,-0.01053617,-0.01101797,0.00057714,-0.00067016,0.00070961
 ,0.00000486,0.00032457,0.00112009,-0.00023717,-0.00110535,0.00054042,-
 0.00000756,-0.00501936,0.00000632,0.00001778,0.26116215,0.00074228,-0.
 00196819,0.00185896,0.00073930,0.00197434,0.00185754,-0.00019157,0.001
 08780,0.00238485,-0.00019467,-0.00109085,0.00238763,0.00034662,0.00000
 279,-0.00104759,0.00028643,0.00001034,0.00055402,0.00028814,-0.0000096
 9,0.00055341,-0.00049343,-0.00000127,0.00010649,-0.01891730,-0.0000034
 5,-0.02814704,-0.00146360,-0.00512949,-0.00024429,0.00044568,-0.000368
 29,0.00037207,-0.00169322,-0.00025866,0.00024507,-0.00146701,0.0051263
 0,-0.00024505,0.00044678,0.00036772,0.00037172,-0.00169355,0.00025948,
 0.00024595,-0.00156644,-0.00098382,-0.04543811,-0.00156554,0.00098528,
 -0.04543654,-0.02341099,-0.00000279,0.00983179,0.00643753,0.00000032,-
 0.00925858,-0.00004870,0.00034105,-0.00375315,-0.00004796,-0.00034116,
 -0.00375418,-0.00194983,-0.00859863,-0.00029776,0.00004387,0.00015292,
 0.00007015,0.00126524,-0.00197706,0.00003579,-0.00031106,-0.00069331,0
 .00056487,0.00322493,0.01675435,-0.00189998,0.00047983,0.00271228,-0.0
 0255552,0.00056040,0.00124150,-0.00007976,-0.00023504,0.00123845,-0.00
 013563,-0.00195044,0.00859620,-0.00029762,0.00126454,0.00197777,0.0000
 3560,0.00004328,-0.00015236,0.00007018,-0.00031107,0.00069352,0.000564
 80,0.00322809,-0.01675436,-0.00189925,0.00056097,-0.00124145,-0.000079
 46,0.00048015,-0.00271114,-0.00255533,-0.00023462,-0.00123876,-0.00013
 591,0.02027403,0.00000304,-0.02137357,0.01658794,-0.00000070,0.1465234
 3\\0.00001369,0.00000311,-0.00000299,0.00001373,-0.00000310,-0.0000030
 0,-0.00000531,-0.00000141,-0.00000369,-0.00000532,0.00000141,-0.000003
 70,0.00000911,0.,0.00000210,-0.00000080,-0.00000183,-0.00000372,-0.000
 00081,0.00000183,-0.00000372,-0.00000928,0.,-0.00000552,-0.00000666,-0
 .00000003,0.00000047,0.00000324,-0.00000480,-0.00000087,0.00000728,-0.
 00000120,-0.00000444,0.00000143,-0.00000236,0.00000129,0.00000321,0.00
 000479,-0.00000094,0.00000721,0.00000120,-0.00000445,0.00000141,0.0000
 0234,0.00000128,-0.00000073,0.00000389,-0.00001042,-0.00000048,-0.0000
 0392,-0.00001041,0.00001523,-0.00000015,0.00000255,0.00000071,0.000000
 03,0.00000739,-0.00000517,-0.00000423,0.00000339,-0.00000524,0.0000043
 1,0.00000335,-0.00000894,-0.00000787,-0.00000133,-0.00000111,0.0000035
 8,0.00000323,-0.00000053,-0.00000054,0.00000137,0.00000257,0.00000036,
 -0.00000447,-0.00000368,0.00000484,0.00000903,-0.00000261,-0.00000172,
 0.00000093,-0.00000114,0.00000049,0.00000340,-0.00000288,-0.00000011,0
 .00000534,-0.00000893,0.00000788,-0.00000132,-0.00000054,0.00000053,0.
 00000137,-0.00000111,-0.00000356,0.00000324,0.00000256,-0.00000037,-0.
 00000446,-0.00000361,-0.00000482,0.00000904,-0.00000112,-0.00000049,0.
 00000343,-0.00000260,0.00000171,0.00000093,-0.00000288,0.00000010,0.00
 000532,-0.00000115,0.00000028,0.00000030,0.00000123,-0.00000021,0.0000
 0069\\\@
 The archive entry for this job was punched.


 QUANTUM MECHANICS IS BOHRING -- M.S. GORDON
 Job cpu time:       3 days  8 hours 43 minutes 38.6 seconds.
 Elapsed time:       0 days 10 hours 35 minutes 42.0 seconds.
 File lengths (MBytes):  RWF=   1939 Int=      0 D2E=      0 Chk=     70 Scr=      1
 Normal termination of Gaussian 16 at Fri Mar  8 06:19:20 2024.
