 Entering Gaussian System, Link 0=/cm/shared/apps//g16/g16
 Input=ZPt.gjf
 Output=ZPt.log
 Initial command:
 /cm/shared/apps//g16/l1.exe "/local/mvanvleet/pbs.14014.josephine/Gau-1382535.inp" -scrdir="/local/mvanvleet/pbs.14014.josephine/"
 Entering Link 1 = /cm/shared/apps//g16/l1.exe PID=   1382537.
  
 Copyright (c) 1988-2019, Gaussian, Inc.  All Rights Reserved.
  
 This is part of the Gaussian(R) 16 program.  It is based on
 the Gaussian(R) 09 system (copyright 2009, Gaussian, Inc.),
 the Gaussian(R) 03 system (copyright 2003, Gaussian, Inc.),
 the Gaussian(R) 98 system (copyright 1998, Gaussian, Inc.),
 the Gaussian(R) 94 system (copyright 1995, Gaussian, Inc.),
 the Gaussian 92(TM) system (copyright 1992, Gaussian, Inc.),
 the Gaussian 90(TM) system (copyright 1990, Gaussian, Inc.),
 the Gaussian 88(TM) system (copyright 1988, Gaussian, Inc.),
 the Gaussian 86(TM) system (copyright 1986, Carnegie Mellon
 University), and the Gaussian 82(TM) system (copyright 1983,
 Carnegie Mellon University). Gaussian is a federally registered
 trademark of Gaussian, Inc.
  
 This software contains proprietary and confidential information,
 including trade secrets, belonging to Gaussian, Inc.
  
 This software is provided under written license and may be
 used, copied, transmitted, or stored only in accord with that
 written license.
  
 The following legend is applicable only to US Government
 contracts under FAR:
  
                    RESTRICTED RIGHTS LEGEND
  
 Use, reproduction and disclosure by the US Government is
 subject to restrictions as set forth in subparagraphs (a)
 and (c) of the Commercial Computer Software - Restricted
 Rights clause in FAR 52.227-19.
  
 Gaussian, Inc.
 340 Quinnipiac St., Bldg. 40, Wallingford CT 06492
  
  
 ---------------------------------------------------------------
 Warning -- This program may not be used in any manner that
 competes with the business of Gaussian, Inc. or will provide
 assistance to any competitor of Gaussian, Inc.  The licensee
 of this program is prohibited from giving any competitor of
 Gaussian, Inc. access to this program.  By using this program,
 the user acknowledges that Gaussian, Inc. is engaged in the
 business of creating and licensing software in the field of
 computational chemistry and represents and warrants to the
 licensee that it is not a competitor of Gaussian, Inc. and that
 it will not use this program in any manner prohibited above.
 ---------------------------------------------------------------
  

 Cite this work as:
 Gaussian 16, Revision C.01,
 M. J. Frisch, G. W. Trucks, H. B. Schlegel, G. E. Scuseria, 
 M. A. Robb, J. R. Cheeseman, G. Scalmani, V. Barone, 
 G. A. Petersson, H. Nakatsuji, X. Li, M. Caricato, A. V. Marenich, 
 J. Bloino, B. G. Janesko, R. Gomperts, B. Mennucci, H. P. Hratchian, 
 J. V. Ortiz, A. F. Izmaylov, J. L. Sonnenberg, D. Williams-Young, 
 F. Ding, F. Lipparini, F. Egidi, J. Goings, B. Peng, A. Petrone, 
 T. Henderson, D. Ranasinghe, V. G. Zakrzewski, J. Gao, N. Rega, 
 G. Zheng, W. Liang, M. Hada, M. Ehara, K. Toyota, R. Fukuda, 
 J. Hasegawa, M. Ishida, T. Nakajima, Y. Honda, O. Kitao, H. Nakai, 
 T. Vreven, K. Throssell, J. A. Montgomery, Jr., J. E. Peralta, 
 F. Ogliaro, M. J. Bearpark, J. J. Heyd, E. N. Brothers, K. N. Kudin, 
 V. N. Staroverov, T. A. Keith, R. Kobayashi, J. Normand, 
 K. Raghavachari, A. P. Rendell, J. C. Burant, S. S. Iyengar, 
 J. Tomasi, M. Cossi, J. M. Millam, M. Klene, C. Adamo, R. Cammi, 
 J. W. Ochterski, R. L. Martin, K. Morokuma, O. Farkas, 
 J. B. Foresman, and D. J. Fox, Gaussian, Inc., Wallingford CT, 2019.
 
 ******************************************
 Gaussian 16:  ES64L-G16RevC.01  3-Jul-2019
                 5-Mar-2024 
 ******************************************
 %nprocshared=8
 Will use up to    8 processors via shared memory.
 %chk=ZPt.chk
 %mem=1GB
 ----------------------------------------------------------
 # wb97xd def2TZVPP SCRF=(solvent=dichloromethane) opt freq
 ----------------------------------------------------------
 1/18=20,19=15,26=3,38=1/1,3;
 2/9=110,12=2,17=6,18=5,40=1/2;
 3/5=44,7=202,11=2,25=1,30=1,70=2201,71=1,72=9,74=-58/1,2,3;
 4//1;
 5/5=2,38=5,53=9/2;
 6/7=2,8=2,9=2,10=2,28=1/1;
 7//1,2,3,16;
 1/18=20,19=15,26=3/3(2);
 2/9=110/2;
 99//99;
 2/9=110/2;
 3/5=44,7=202,11=2,25=1,30=1,70=2205,71=1,72=9,74=-58/1,2,3;
 4/5=5,16=3,69=1/1;
 5/5=2,38=5,53=9/2;
 7//1,2,3,16;
 1/18=20,19=15,26=3/3(-5);
 2/9=110/2;
 6/7=2,8=2,9=2,10=2,19=2,28=1/1;
 99/9=1/99;
 ---
 ZPt
 ---
 Symbolic Z-matrix:
 Charge =  1 Multiplicity = 1
 Pt                    0.96509   0.        0.00996 
 C                    -1.47733  -1.2043   -0.4322 
 C                    -1.47733   1.2043   -0.43219 
 C                    -2.78858  -1.24656  -0.07812 
 C                    -2.78858   1.24656  -0.07811 
 C                    -3.56262   0.        0.10719 
 H                    -3.31273  -2.19867   0.04598 
 H                    -3.31273   2.19867   0.04598 
 O                    -4.75018   0.        0.41034 
 N                    -0.84061   0.       -0.70675 
 C                    -0.52902  -2.3494   -0.68047 
 H                    -0.27828  -2.38399  -1.75581 
 H                    -0.93664  -3.32705  -0.36792 
 C                    -0.52902   2.3494   -0.68047 
 H                    -0.27828   2.38399  -1.75581 
 H                    -0.93664   3.32705  -0.36792 
 N                     0.75921  -2.07152   0.06061 
 N                     0.75921   2.07152   0.06061 
 C                     1.87822  -2.8289   -0.55789 
 H                     2.79562  -2.64824   0.02396 
 H                     1.64921  -3.91122  -0.54457 
 H                     2.01788  -2.48858  -1.59415 
 C                     0.59592  -2.4952    1.483 
 H                     0.45333  -3.59155   1.52285 
 H                     1.49765  -2.22196   2.05093 
 H                    -0.28365  -1.98988   1.91087 
 C                     1.87823   2.8289   -0.55789 
 H                     1.64921   3.91122  -0.54457 
 H                     2.79562   2.64824   0.02396 
 H                     2.01788   2.48858  -1.59415 
 C                     0.59592   2.4952    1.483 
 H                     1.49765   2.22196   2.05093 
 H                     0.45333   3.59155   1.52285 
 H                    -0.28364   1.98988   1.91087 
 

 GradGradGradGradGradGradGradGradGradGradGradGradGradGradGradGradGradGrad
 Berny optimization.
 Initialization pass.
                           ----------------------------
                           !    Initial Parameters    !
                           ! (Angstroms and Degrees)  !
 --------------------------                            --------------------------
 ! Name  Definition              Value          Derivative Info.                !
 --------------------------------------------------------------------------------
 ! R1    R(1,10)                 1.9427         estimate D2E/DX2                !
 ! R2    R(1,17)                 2.0823         estimate D2E/DX2                !
 ! R3    R(1,18)                 2.0823         estimate D2E/DX2                !
 ! R4    R(2,4)                  1.3589         estimate D2E/DX2                !
 ! R5    R(2,10)                 1.3897         estimate D2E/DX2                !
 ! R6    R(2,11)                 1.5074         estimate D2E/DX2                !
 ! R7    R(3,5)                  1.3589         estimate D2E/DX2                !
 ! R8    R(3,10)                 1.3897         estimate D2E/DX2                !
 ! R9    R(3,14)                 1.5074         estimate D2E/DX2                !
 ! R10   R(4,6)                  1.479          estimate D2E/DX2                !
 ! R11   R(4,7)                  1.0939         estimate D2E/DX2                !
 ! R12   R(5,6)                  1.479          estimate D2E/DX2                !
 ! R13   R(5,8)                  1.0939         estimate D2E/DX2                !
 ! R14   R(6,9)                  1.2256         estimate D2E/DX2                !
 ! R15   R(11,12)                1.1047         estimate D2E/DX2                !
 ! R16   R(11,13)                1.1044         estimate D2E/DX2                !
 ! R17   R(11,17)                1.5119         estimate D2E/DX2                !
 ! R18   R(14,15)                1.1047         estimate D2E/DX2                !
 ! R19   R(14,16)                1.1044         estimate D2E/DX2                !
 ! R20   R(14,18)                1.5119         estimate D2E/DX2                !
 ! R21   R(17,19)                1.4861         estimate D2E/DX2                !
 ! R22   R(17,23)                1.4931         estimate D2E/DX2                !
 ! R23   R(18,27)                1.4861         estimate D2E/DX2                !
 ! R24   R(18,31)                1.4931         estimate D2E/DX2                !
 ! R25   R(19,20)                1.1013         estimate D2E/DX2                !
 ! R26   R(19,21)                1.1064         estimate D2E/DX2                !
 ! R27   R(19,22)                1.0996         estimate D2E/DX2                !
 ! R28   R(23,24)                1.1063         estimate D2E/DX2                !
 ! R29   R(23,25)                1.1001         estimate D2E/DX2                !
 ! R30   R(23,26)                1.1009         estimate D2E/DX2                !
 ! R31   R(27,28)                1.1064         estimate D2E/DX2                !
 ! R32   R(27,29)                1.1013         estimate D2E/DX2                !
 ! R33   R(27,30)                1.0996         estimate D2E/DX2                !
 ! R34   R(31,32)                1.1001         estimate D2E/DX2                !
 ! R35   R(31,33)                1.1063         estimate D2E/DX2                !
 ! R36   R(31,34)                1.1009         estimate D2E/DX2                !
 ! A1    A(10,1,17)             85.2435         estimate D2E/DX2                !
 ! A2    A(10,1,18)             85.2435         estimate D2E/DX2                !
 ! A3    A(4,2,10)             121.3699         estimate D2E/DX2                !
 ! A4    A(4,2,11)             128.7818         estimate D2E/DX2                !
 ! A5    A(10,2,11)            109.7276         estimate D2E/DX2                !
 ! A6    A(5,3,10)             121.37           estimate D2E/DX2                !
 ! A7    A(5,3,14)             128.7819         estimate D2E/DX2                !
 ! A8    A(10,3,14)            109.7274         estimate D2E/DX2                !
 ! A9    A(2,4,6)              120.7608         estimate D2E/DX2                !
 ! A10   A(2,4,7)              121.2643         estimate D2E/DX2                !
 ! A11   A(6,4,7)              117.944          estimate D2E/DX2                !
 ! A12   A(3,5,6)              120.7607         estimate D2E/DX2                !
 ! A13   A(3,5,8)              121.2642         estimate D2E/DX2                !
 ! A14   A(6,5,8)              117.9442         estimate D2E/DX2                !
 ! A15   A(4,6,5)              114.8846         estimate D2E/DX2                !
 ! A16   A(4,6,9)              122.5536         estimate D2E/DX2                !
 ! A17   A(5,6,9)              122.5536         estimate D2E/DX2                !
 ! A18   A(1,10,2)             110.6698         estimate D2E/DX2                !
 ! A19   A(1,10,3)             110.6696         estimate D2E/DX2                !
 ! A20   A(2,10,3)             120.1364         estimate D2E/DX2                !
 ! A21   A(2,11,12)            109.0806         estimate D2E/DX2                !
 ! A22   A(2,11,13)            113.1836         estimate D2E/DX2                !
 ! A23   A(2,11,17)            108.4019         estimate D2E/DX2                !
 ! A24   A(12,11,13)           109.3622         estimate D2E/DX2                !
 ! A25   A(12,11,17)           106.8269         estimate D2E/DX2                !
 ! A26   A(13,11,17)           109.7835         estimate D2E/DX2                !
 ! A27   A(3,14,15)            109.0809         estimate D2E/DX2                !
 ! A28   A(3,14,16)            113.1835         estimate D2E/DX2                !
 ! A29   A(3,14,18)            108.4017         estimate D2E/DX2                !
 ! A30   A(15,14,16)           109.3622         estimate D2E/DX2                !
 ! A31   A(15,14,18)           106.8269         estimate D2E/DX2                !
 ! A32   A(16,14,18)           109.7835         estimate D2E/DX2                !
 ! A33   A(1,17,11)            104.7827         estimate D2E/DX2                !
 ! A34   A(1,17,19)            114.9886         estimate D2E/DX2                !
 ! A35   A(1,17,23)            108.4373         estimate D2E/DX2                !
 ! A36   A(11,17,19)           110.1158         estimate D2E/DX2                !
 ! A37   A(11,17,23)           108.76           estimate D2E/DX2                !
 ! A38   A(19,17,23)           109.5253         estimate D2E/DX2                !
 ! A39   A(1,18,14)            104.7827         estimate D2E/DX2                !
 ! A40   A(1,18,27)            114.9884         estimate D2E/DX2                !
 ! A41   A(1,18,31)            108.4373         estimate D2E/DX2                !
 ! A42   A(14,18,27)           110.1161         estimate D2E/DX2                !
 ! A43   A(14,18,31)           108.76           estimate D2E/DX2                !
 ! A44   A(27,18,31)           109.5252         estimate D2E/DX2                !
 ! A45   A(17,19,20)           108.8914         estimate D2E/DX2                !
 ! A46   A(17,19,21)           109.7371         estimate D2E/DX2                !
 ! A47   A(17,19,22)           109.2765         estimate D2E/DX2                !
 ! A48   A(20,19,21)           109.0597         estimate D2E/DX2                !
 ! A49   A(20,19,22)           109.9578         estimate D2E/DX2                !
 ! A50   A(21,19,22)           109.9012         estimate D2E/DX2                !
 ! A51   A(17,23,24)           109.2455         estimate D2E/DX2                !
 ! A52   A(17,23,25)           109.37           estimate D2E/DX2                !
 ! A53   A(17,23,26)           109.109          estimate D2E/DX2                !
 ! A54   A(24,23,25)           109.462          estimate D2E/DX2                !
 ! A55   A(24,23,26)           109.7483         estimate D2E/DX2                !
 ! A56   A(25,23,26)           109.8897         estimate D2E/DX2                !
 ! A57   A(18,27,28)           109.7364         estimate D2E/DX2                !
 ! A58   A(18,27,29)           108.8914         estimate D2E/DX2                !
 ! A59   A(18,27,30)           109.276          estimate D2E/DX2                !
 ! A60   A(28,27,29)           109.0601         estimate D2E/DX2                !
 ! A61   A(28,27,30)           109.9012         estimate D2E/DX2                !
 ! A62   A(29,27,30)           109.9585         estimate D2E/DX2                !
 ! A63   A(18,31,32)           109.37           estimate D2E/DX2                !
 ! A64   A(18,31,33)           109.2455         estimate D2E/DX2                !
 ! A65   A(18,31,34)           109.1091         estimate D2E/DX2                !
 ! A66   A(32,31,33)           109.462          estimate D2E/DX2                !
 ! A67   A(32,31,34)           109.8894         estimate D2E/DX2                !
 ! A68   A(33,31,34)           109.7486         estimate D2E/DX2                !
 ! A69   L(17,1,18,10,-1)      170.4869         estimate D2E/DX2                !
 ! A70   L(17,1,18,10,-2)      173.2023         estimate D2E/DX2                !
 ! D1    D(17,1,10,2)           18.7446         estimate D2E/DX2                !
 ! D2    D(17,1,10,3)          154.4572         estimate D2E/DX2                !
 ! D3    D(18,1,10,2)         -154.4576         estimate D2E/DX2                !
 ! D4    D(18,1,10,3)          -18.745          estimate D2E/DX2                !
 ! D5    D(10,1,17,11)           9.0382         estimate D2E/DX2                !
 ! D6    D(10,1,17,19)         130.0635         estimate D2E/DX2                !
 ! D7    D(10,1,17,23)        -106.9755         estimate D2E/DX2                !
 ! D8    D(10,1,18,14)          -9.0382         estimate D2E/DX2                !
 ! D9    D(10,1,18,27)        -130.0637         estimate D2E/DX2                !
 ! D10   D(10,1,18,31)         106.9755         estimate D2E/DX2                !
 ! D11   D(10,2,4,6)            -3.7576         estimate D2E/DX2                !
 ! D12   D(10,2,4,7)           174.179          estimate D2E/DX2                !
 ! D13   D(11,2,4,6)          -179.3356         estimate D2E/DX2                !
 ! D14   D(11,2,4,7)            -1.399          estimate D2E/DX2                !
 ! D15   D(4,2,10,1)           140.5664         estimate D2E/DX2                !
 ! D16   D(4,2,10,3)             9.6285         estimate D2E/DX2                !
 ! D17   D(11,2,10,1)          -43.0945         estimate D2E/DX2                !
 ! D18   D(11,2,10,3)         -174.0324         estimate D2E/DX2                !
 ! D19   D(4,2,11,12)          111.2428         estimate D2E/DX2                !
 ! D20   D(4,2,11,13)          -10.7468         estimate D2E/DX2                !
 ! D21   D(4,2,11,17)         -132.7875         estimate D2E/DX2                !
 ! D22   D(10,2,11,12)         -64.7469         estimate D2E/DX2                !
 ! D23   D(10,2,11,13)         173.2635         estimate D2E/DX2                !
 ! D24   D(10,2,11,17)          51.2228         estimate D2E/DX2                !
 ! D25   D(10,3,5,6)             3.7576         estimate D2E/DX2                !
 ! D26   D(10,3,5,8)          -174.1779         estimate D2E/DX2                !
 ! D27   D(14,3,5,6)           179.3347         estimate D2E/DX2                !
 ! D28   D(14,3,5,8)             1.3991         estimate D2E/DX2                !
 ! D29   D(5,3,10,1)          -140.5665         estimate D2E/DX2                !
 ! D30   D(5,3,10,2)            -9.6285         estimate D2E/DX2                !
 ! D31   D(14,3,10,1)           43.0952         estimate D2E/DX2                !
 ! D32   D(14,3,10,2)          174.0331         estimate D2E/DX2                !
 ! D33   D(5,3,14,15)         -111.2425         estimate D2E/DX2                !
 ! D34   D(5,3,14,16)           10.7473         estimate D2E/DX2                !
 ! D35   D(5,3,14,18)          132.7877         estimate D2E/DX2                !
 ! D36   D(10,3,14,15)          64.7463         estimate D2E/DX2                !
 ! D37   D(10,3,14,16)        -173.2639         estimate D2E/DX2                !
 ! D38   D(10,3,14,18)         -51.2234         estimate D2E/DX2                !
 ! D39   D(2,4,6,5)             -1.9171         estimate D2E/DX2                !
 ! D40   D(2,4,6,9)            179.0996         estimate D2E/DX2                !
 ! D41   D(7,4,6,5)           -179.9206         estimate D2E/DX2                !
 ! D42   D(7,4,6,9)              1.0961         estimate D2E/DX2                !
 ! D43   D(3,5,6,4)              1.9171         estimate D2E/DX2                !
 ! D44   D(3,5,6,9)           -179.0996         estimate D2E/DX2                !
 ! D45   D(8,5,6,4)            179.9196         estimate D2E/DX2                !
 ! D46   D(8,5,6,9)             -1.0971         estimate D2E/DX2                !
 ! D47   D(2,11,17,1)          -32.9298         estimate D2E/DX2                !
 ! D48   D(2,11,17,19)        -157.1194         estimate D2E/DX2                !
 ! D49   D(2,11,17,23)          82.8603         estimate D2E/DX2                !
 ! D50   D(12,11,17,1)          84.4922         estimate D2E/DX2                !
 ! D51   D(12,11,17,19)        -39.6974         estimate D2E/DX2                !
 ! D52   D(12,11,17,23)       -159.7177         estimate D2E/DX2                !
 ! D53   D(13,11,17,1)        -157.0262         estimate D2E/DX2                !
 ! D54   D(13,11,17,19)         78.7842         estimate D2E/DX2                !
 ! D55   D(13,11,17,23)        -41.2361         estimate D2E/DX2                !
 ! D56   D(3,14,18,1)           32.9301         estimate D2E/DX2                !
 ! D57   D(3,14,18,27)         157.1197         estimate D2E/DX2                !
 ! D58   D(3,14,18,31)         -82.86           estimate D2E/DX2                !
 ! D59   D(15,14,18,1)         -84.4922         estimate D2E/DX2                !
 ! D60   D(15,14,18,27)         39.6973         estimate D2E/DX2                !
 ! D61   D(15,14,18,31)        159.7177         estimate D2E/DX2                !
 ! D62   D(16,14,18,1)         157.0262         estimate D2E/DX2                !
 ! D63   D(16,14,18,27)        -78.7843         estimate D2E/DX2                !
 ! D64   D(16,14,18,31)         41.2361         estimate D2E/DX2                !
 ! D65   D(1,17,19,20)          64.4788         estimate D2E/DX2                !
 ! D66   D(1,17,19,21)        -176.2158         estimate D2E/DX2                !
 ! D67   D(1,17,19,22)         -55.645          estimate D2E/DX2                !
 ! D68   D(11,17,19,20)       -177.4548         estimate D2E/DX2                !
 ! D69   D(11,17,19,21)        -58.1494         estimate D2E/DX2                !
 ! D70   D(11,17,19,22)         62.4214         estimate D2E/DX2                !
 ! D71   D(23,17,19,20)        -57.8986         estimate D2E/DX2                !
 ! D72   D(23,17,19,21)         61.4068         estimate D2E/DX2                !
 ! D73   D(23,17,19,22)       -178.0224         estimate D2E/DX2                !
 ! D74   D(1,17,23,24)         178.2312         estimate D2E/DX2                !
 ! D75   D(1,17,23,25)         -61.979          estimate D2E/DX2                !
 ! D76   D(1,17,23,26)          58.2499         estimate D2E/DX2                !
 ! D77   D(11,17,23,24)         64.8228         estimate D2E/DX2                !
 ! D78   D(11,17,23,25)       -175.3874         estimate D2E/DX2                !
 ! D79   D(11,17,23,26)        -55.1585         estimate D2E/DX2                !
 ! D80   D(19,17,23,24)        -55.5631         estimate D2E/DX2                !
 ! D81   D(19,17,23,25)         64.2266         estimate D2E/DX2                !
 ! D82   D(19,17,23,26)       -175.5444         estimate D2E/DX2                !
 ! D83   D(1,18,27,28)         176.2156         estimate D2E/DX2                !
 ! D84   D(1,18,27,29)         -64.4789         estimate D2E/DX2                !
 ! D85   D(1,18,27,30)          55.6455         estimate D2E/DX2                !
 ! D86   D(14,18,27,28)         58.1491         estimate D2E/DX2                !
 ! D87   D(14,18,27,29)        177.4547         estimate D2E/DX2                !
 ! D88   D(14,18,27,30)        -62.421          estimate D2E/DX2                !
 ! D89   D(31,18,27,28)        -61.4072         estimate D2E/DX2                !
 ! D90   D(31,18,27,29)         57.8984         estimate D2E/DX2                !
 ! D91   D(31,18,27,30)        178.0227         estimate D2E/DX2                !
 ! D92   D(1,18,31,32)          61.979          estimate D2E/DX2                !
 ! D93   D(1,18,31,33)        -178.2312         estimate D2E/DX2                !
 ! D94   D(1,18,31,34)         -58.2496         estimate D2E/DX2                !
 ! D95   D(14,18,31,32)        175.3874         estimate D2E/DX2                !
 ! D96   D(14,18,31,33)        -64.8228         estimate D2E/DX2                !
 ! D97   D(14,18,31,34)         55.1588         estimate D2E/DX2                !
 ! D98   D(27,18,31,32)        -64.2264         estimate D2E/DX2                !
 ! D99   D(27,18,31,33)         55.5634         estimate D2E/DX2                !
 ! D100  D(27,18,31,34)        175.545          estimate D2E/DX2                !
 --------------------------------------------------------------------------------
 Trust Radius=3.00D-01 FncErr=1.00D-07 GrdErr=1.00D-06 EigMax=2.50D+02 EigMin=1.00D-04
 Number of steps in this run=    204 maximum allowed number of steps=    204.
 GradGradGradGradGradGradGradGradGradGradGradGradGradGradGradGradGradGrad

                          Input orientation:                          
 ---------------------------------------------------------------------
 Center     Atomic      Atomic             Coordinates (Angstroms)
 Number     Number       Type             X           Y           Z
 ---------------------------------------------------------------------
      1         78           0        0.965090    0.000000    0.009960
      2          6           0       -1.477330   -1.204300   -0.432200
      3          6           0       -1.477330    1.204300   -0.432190
      4          6           0       -2.788580   -1.246560   -0.078120
      5          6           0       -2.788580    1.246560   -0.078110
      6          6           0       -3.562620    0.000000    0.107190
      7          1           0       -3.312730   -2.198670    0.045980
      8          1           0       -3.312730    2.198670    0.045980
      9          8           0       -4.750180    0.000000    0.410340
     10          7           0       -0.840610    0.000000   -0.706750
     11          6           0       -0.529020   -2.349400   -0.680470
     12          1           0       -0.278280   -2.383990   -1.755810
     13          1           0       -0.936640   -3.327050   -0.367920
     14          6           0       -0.529020    2.349400   -0.680470
     15          1           0       -0.278280    2.383990   -1.755810
     16          1           0       -0.936640    3.327050   -0.367920
     17          7           0        0.759210   -2.071520    0.060610
     18          7           0        0.759210    2.071520    0.060610
     19          6           0        1.878220   -2.828900   -0.557890
     20          1           0        2.795620   -2.648240    0.023960
     21          1           0        1.649210   -3.911220   -0.544570
     22          1           0        2.017880   -2.488580   -1.594150
     23          6           0        0.595920   -2.495200    1.483000
     24          1           0        0.453330   -3.591550    1.522850
     25          1           0        1.497650   -2.221960    2.050930
     26          1           0       -0.283650   -1.989880    1.910870
     27          6           0        1.878230    2.828900   -0.557890
     28          1           0        1.649210    3.911220   -0.544570
     29          1           0        2.795620    2.648240    0.023960
     30          1           0        2.017880    2.488580   -1.594150
     31          6           0        0.595920    2.495200    1.483000
     32          1           0        1.497650    2.221960    2.050930
     33          1           0        0.453330    3.591550    1.522850
     34          1           0       -0.283640    1.989880    1.910870
 ---------------------------------------------------------------------
                    Distance matrix (angstroms):
                    1          2          3          4          5
     1  Pt   0.000000
     2  C    2.758851   0.000000
     3  C    2.758850   2.408600   0.000000
     4  C    3.956224   1.358873   2.802045   0.000000
     5  C    3.956224   2.802048   1.358873   2.493120   0.000000
     6  C    4.528754   2.467735   2.467732   1.478983   1.478981
     7  H    4.809906   2.141523   3.895837   1.093914   3.487082
     8  H    4.809906   3.895838   2.141521   3.487082   1.093913
     9  O    5.729277   3.587723   3.587721   2.374948   2.374946
    10  N    1.942737   1.389651   1.389652   2.396596   2.396599
    11  C    2.868578   1.507376   3.686424   2.585477   4.289450
    12  H    3.216725   2.140405   4.008181   3.226453   4.721989
    13  H    3.850796   2.191471   4.563947   2.800376   4.942831
    14  C    2.868578   3.686423   1.507378   4.289448   2.585480
    15  H    3.216725   4.008178   2.140411   4.721985   3.226458
    16  H    3.850796   4.563947   2.191471   4.942831   2.800377
    17  N    2.082342   2.448886   3.996994   3.645081   4.859600
    18  N    2.082342   3.996995   2.448884   4.859600   3.645081
    19  C    3.026373   3.730260   5.248068   4.951061   6.214385
    20  H    3.219349   4.533337   5.771329   5.758335   6.809051
    21  H    4.009135   4.137064   5.996368   5.197304   6.820136
    22  H    3.142382   3.900769   5.215746   5.190666   6.273094
    23  C    2.920986   3.103672   4.653237   3.930781   5.281351
    24  H    3.930644   3.639867   5.527188   4.309532   6.039897
    25  H    3.063704   4.006504   5.172586   4.884263   5.910601
    26  H    3.021992   2.744446   4.137341   3.283791   4.550303
    27  C    3.026376   5.248074   3.730269   6.214392   4.951071
    28  H    4.009135   5.996368   4.137064   6.820136   5.197305
    29  H    3.219349   5.771330   4.533336   6.809051   5.758334
    30  H    3.142382   5.215744   3.900772   6.273091   5.190669
    31  C    2.920986   4.653242   3.103666   5.281354   3.930777
    32  H    3.063704   5.172591   4.006498   5.910605   4.884259
    33  H    3.930644   5.527191   3.639862   6.039900   4.309528
    34  H    3.021987   4.137349   2.744442   4.550313   3.283792
                    6          7          8          9         10
     6  C    0.000000
     7  H    2.213671   0.000000
     8  H    2.213671   4.397340   0.000000
     9  O    1.225642   2.652013   2.652013   0.000000
    10  N    2.841098   3.392953   3.392953   4.066033   0.000000
    11  C    3.916991   2.880884   5.381609   4.952549   2.370118
    12  H    4.465542   3.533932   5.784039   5.511216   2.664611
    13  H    4.265063   2.662773   6.029154   5.120355   3.345637
    14  C    3.916991   5.381609   2.880884   4.952549   2.370118
    15  H    4.465542   5.784039   3.533932   5.511216   2.664611
    16  H    4.265063   6.029154   2.662773   5.120355   3.345637
    17  N    4.792868   4.073951   5.900460   5.896345   2.727537
    18  N    4.792868   5.900460   4.073951   5.896345   2.727537
    19  C    6.168286   5.263821   7.251695   7.271577   3.926432
    20  H    6.888201   6.124911   7.797754   8.006345   4.557333
    21  H    6.548710   5.282275   7.893057   7.560535   4.639305
    22  H    6.342678   5.584754   7.285310   7.484494   3.892489
    23  C    5.041064   4.174985   6.274949   5.996450   3.617271
    24  H    5.570564   4.278372   7.063356   6.419768   4.420931
    25  H    5.858461   5.211537   6.833853   6.831107   4.243744
    26  H    4.238458   3.563248   5.495188   5.114793   3.334930
    27  C    6.168294   7.251702   5.263831   7.271586   3.926439
    28  H    6.548710   7.893057   5.282275   7.560535   4.639305
    29  H    6.888201   7.797754   6.124911   8.006345   4.557333
    30  H    6.342678   7.285310   5.584754   7.484494   3.892489
    31  C    5.041064   6.274949   4.174985   5.996450   3.617271
    32  H    5.858461   6.833853   5.211537   6.831107   4.243744
    33  H    5.570564   7.063356   4.278372   6.419768   4.420931
    34  H    4.238466   5.495194   3.563256   5.114801   3.334932
                   11         12         13         14         15
    11  C    0.000000
    12  H    1.104728   0.000000
    13  H    1.104374   1.802509   0.000000
    14  C    4.698800   4.860474   5.699643   0.000000
    15  H    4.860474   4.767980   5.914022   1.104728   0.000000
    16  H    5.699643   5.914022   6.654100   1.104374   1.802509
    17  N    1.511937   2.115042   2.153114   4.664040   4.922127
    18  N    4.664040   4.922127   5.674866   1.511937   2.115042
    19  C    2.457590   2.506681   2.864905   5.711797   5.767125
    20  H    3.411562   3.561779   3.813675   6.043663   6.159528
    21  H    2.683736   2.741305   2.656893   6.630122   6.694176
    22  H    2.709406   2.304219   3.306941   5.543245   5.388917
    23  C    2.442816   3.356558   2.542955   5.423674   5.921200
    24  H    2.713405   3.569743   2.361565   6.412060   6.855067
    25  H    3.403554   4.203742   3.605250   5.697830   6.233777
    26  H    2.627642   3.687803   2.721636   5.060099   5.707478
    27  C    5.711801   5.767128   6.771654   2.457600   2.506690
    28  H    6.630122   6.694176   7.688327   2.683736   2.741305
    29  H    6.043663   6.159528   7.056020   3.411562   3.561779
    30  H    5.543245   5.388917   6.637347   2.709406   2.304219
    31  C    5.423674   5.921200   6.298670   2.442816   3.356558
    32  H    5.697830   6.233777   6.524425   3.403554   4.203742
    33  H    6.412060   6.855067   7.305755   2.713405   3.569743
    34  H    5.060099   5.707478   5.821429   2.627643   3.687803
                   16         17         18         19         20
    16  H    0.000000
    17  N    5.674866   0.000000
    18  N    2.153114   4.143040   0.000000
    19  C    6.771650   1.486052   5.064469   0.000000
    20  H    7.056020   2.116817   5.140471   1.101277   0.000000
    21  H    7.688327   2.131394   6.078776   1.106363   1.797943
    22  H    6.637347   2.120476   5.011686   1.099617   1.802401
    23  C    6.298670   1.493105   4.785895   2.433286   2.644031
    24  H    7.305755   2.131244   5.856797   2.634659   2.936465
    25  H    6.524425   2.128215   4.789639   2.705393   2.444391
    26  H    5.821428   2.125484   4.583229   3.387095   3.670936
    27  C    2.864915   5.064471   1.486059   5.657800   5.583835
    28  H    2.656893   6.078776   2.131394   6.744023   6.683113
    29  H    3.813675   5.140471   2.116817   5.583837   5.296480
    30  H    3.306941   5.011686   2.120476   5.419311   5.441514
    31  C    2.542955   4.785895   1.493105   5.844276   5.781216
    32  H    3.605250   4.789639   2.128215   5.697540   5.432512
    33  H    2.361565   5.856797   2.131244   6.897968   6.831396
    34  H    2.721639   4.583227   2.125480   5.830013   5.878302
                   21         22         23         24         25
    21  H    0.000000
    22  H    1.805946   0.000000
    23  C    2.688043   3.389818   0.000000
    24  H    2.409677   3.657875   1.106302   0.000000
    25  H    3.100514   3.691657   1.100146   1.801458   0.000000
    26  H    3.668335   4.222666   1.100938   1.805283   1.801807
    27  C    6.744023   5.419311   5.844279   6.897971   5.697541
    28  H    7.822440   6.495766   6.801667   7.873748   6.661493
    29  H    6.683113   5.441514   5.781216   6.831396   5.432512
    30  H    6.495766   4.977160   6.027345   7.009386   5.978832
    31  C    6.801667   6.027345   4.990400   6.088550   4.836038
    32  H    6.661493   5.978832   4.836038   5.930124   4.443920
    33  H    7.873748   7.009386   6.088550   7.183100   5.930124
    34  H    6.677430   6.135044   4.590495   5.643230   4.575173
                   26         27         28         29         30
    26  H    0.000000
    27  C    5.830021   0.000000
    28  H    6.677433   1.106365   0.000000
    29  H    5.878307   1.101268   1.797943   0.000000
    30  H    6.135048   1.099616   1.805946   1.802401   0.000000
    31  C    4.590497   2.433291   2.688043   2.644031   3.389818
    32  H    4.575177   2.705394   3.100514   2.444391   3.691657
    33  H    5.643231   2.634664   2.409677   2.936465   3.657875
    34  H    3.979760   3.387095   3.668330   3.670928   4.222660
                   31         32         33         34
    31  C    0.000000
    32  H    1.100146   0.000000
    33  H    1.106302   1.801458   0.000000
    34  H    1.100930   1.801797   1.805279   0.000000
 Stoichiometry    C11H18N3OPt(1+)
 Framework group  C1[X(C11H18N3OPt)]
 Deg. of freedom    96
 Full point group                 C1      NOp   1
 Largest Abelian subgroup         C1      NOp   1
 Largest concise Abelian subgroup C1      NOp   1
                         Standard orientation:                         
 ---------------------------------------------------------------------
 Center     Atomic      Atomic             Coordinates (Angstroms)
 Number     Number       Type             X           Y           Z
 ---------------------------------------------------------------------
      1         78           0       -0.965091    0.000002    0.009959
      2          6           0        1.477332    1.204297   -0.432201
      3          6           0        1.477327   -1.204303   -0.432191
      4          6           0        2.788582    1.246554   -0.078121
      5          6           0        2.788577   -1.246566   -0.078111
      6          6           0        3.562619   -0.000007    0.107189
      7          1           0        3.312734    2.198663    0.045979
      8          1           0        3.312725   -2.198677    0.045979
      9          8           0        4.750179   -0.000010    0.410339
     10          7           0        0.840609   -0.000002   -0.706751
     11          6           0        0.529024    2.349399   -0.680471
     12          1           0        0.278284    2.383989   -1.755811
     13          1           0        0.936646    3.327048   -0.367921
     14          6           0        0.529015   -2.349401   -0.680471
     15          1           0        0.278275   -2.383991   -1.755811
     16          1           0        0.936633   -3.327052   -0.367921
     17          7           0       -0.759206    2.071522    0.060609
     18          7           0       -0.759215   -2.071518    0.060609
     19          6           0       -1.878215    2.828904   -0.557891
     20          1           0       -2.795615    2.648246    0.023959
     21          1           0       -1.649203    3.911223   -0.544571
     22          1           0       -2.017875    2.488584   -1.594151
     23          6           0       -0.595915    2.495201    1.482999
     24          1           0       -0.453323    3.591551    1.522849
     25          1           0       -1.497646    2.221963    2.050929
     26          1           0        0.283654    1.989879    1.910869
     27          6           0       -1.878236   -2.828896   -0.557891
     28          1           0       -1.649218   -3.911217   -0.544571
     29          1           0       -2.795626   -2.648234    0.023959
     30          1           0       -2.017886   -2.488576   -1.594151
     31          6           0       -0.595926   -2.495199    1.482999
     32          1           0       -1.497655   -2.221957    2.050929
     33          1           0       -0.453338   -3.591549    1.522849
     34          1           0        0.283635   -1.989881    1.910869
 ---------------------------------------------------------------------
 Rotational constants (GHZ):           0.5435370           0.4093141           0.2622372
 Standard basis: def2TZVPP (5D, 7F)
 There are   881 symmetry adapted cartesian basis functions of A   symmetry.
 There are   773 symmetry adapted basis functions of A   symmetry.
   773 basis functions,  1171 primitive gaussians,   881 cartesian basis functions
    65 alpha electrons       65 beta electrons
       nuclear repulsion energy      1372.8015574464 Hartrees.
 NAtoms=   34 NActive=   34 NUniq=   34 SFac= 1.00D+00 NAtFMM=   60 NAOKFM=F Big=F
 Integral buffers will be    131072 words long.
 Raffenetti 2 integral format.
 Two-electron integral symmetry is turned on.
 Nuclear repulsion after empirical dispersion term =     1372.7660306942 Hartrees.
 ------------------------------------------------------------------------------
 Polarizable Continuum Model (PCM)
 =================================
 Model                : PCM.
 Atomic radii         : UFF (Universal Force Field).
 Polarization charges : Total charges.
 Charge compensation  : None.
 Solution method      : On-the-fly selection.
 Cavity type          : Scaled VdW (van der Waals Surface) (Alpha=1.100).
 Cavity algorithm     : GePol (No added spheres)
                        Default sphere list used, NSphG=   34.
                        Lebedev-Laikov grids with approx.  5.0 points / Ang**2.
                        Smoothing algorithm: York/Karplus (Gamma=1.0000).
                        Polarization charges: spherical gaussians, with
                                              point-specific exponents (IZeta= 3).
                        Self-potential: point-specific (ISelfS= 7).
                        Self-field    : sphere-specific E.n sum rule (ISelfD= 2).
 1st derivatives      : Analytical E(r).r(x)/FMM algorithm (CHGder, D1EAlg=3).
                        Cavity 1st derivative terms included.
 Solvent              : Dichloromethane, Eps=   8.930000 Eps(inf)=   2.028346
 ------------------------------------------------------------------------------
 One-electron integrals computed using PRISM.
 PrsmSu:  requested number of processors reduced to:   5 ShMem   1 Linda.
   1 Symmetry operations used in ECPInt.
 ECPInt:  NShTT=   41905 NPrTT=  110145 LenC2=   38168 LenP2D=   76833.
 LDataN:  DoStor=T MaxTD1= 9 Len=  602
 NBasis=   773 RedAO= T EigKep=  2.14D-05  NBF=   773
 NBsUse=   773 1.00D-06 EigRej= -1.00D+00 NBFU=   773
 Defaulting to unpruned grid for atomic number  78.
 ExpMin= 4.92D-02 ExpMax= 2.70D+04 ExpMxC= 9.22D+02 IAcc=3 IRadAn=         5 AccDes= 0.00D+00
 Harris functional with IExCor= 4639 and IRadAn=       5 diagonalized for initial guess.
 HarFok:  IExCor= 4639 AccDes= 0.00D+00 IRadAn=         5 IDoV= 1 UseB2=F ITyADJ=14
 ICtDFT=  3500011 ScaDFX=  1.000000  1.000000  1.000000  1.000000
 Defaulting to unpruned grid for atomic number  78.
 FoFCou: FMM=F IPFlag=           0 FMFlag=      100000 FMFlg1=           0
         NFxFlg=           0 DoJE=T BraDBF=F KetDBF=T FulRan=T
         wScrn=  0.000000 ICntrl=       500 IOpCl=  0 I1Cent=   200000004 NGrid=           0
         NMat0=    1 NMatS0=      1 NMatT0=    0 NMatD0=    1 NMtDS0=    0 NMtDT0=    0
 Petite list used in FoFCou.
 Requested convergence on RMS density matrix=1.00D-08 within 128 cycles.
 Requested convergence on MAX density matrix=1.00D-06.
 Requested convergence on             energy=1.00D-06.
 No special actions if energy rises.
 Defaulting to unpruned grid for atomic number  78.
 Defaulting to unpruned grid for atomic number  78.
 Defaulting to unpruned grid for atomic number  78.
 Defaulting to unpruned grid for atomic number  78.
 Defaulting to unpruned grid for atomic number  78.
 Defaulting to unpruned grid for atomic number  78.
 Defaulting to unpruned grid for atomic number  78.
 Defaulting to unpruned grid for atomic number  78.
 Inv3:  Mode=1 IEnd=    16978923.
 Iteration    1 A*A^-1 deviation from unit magnitude is 2.89D-15 for    372.
 Iteration    1 A*A^-1 deviation from orthogonality  is 2.35D-15 for   1700    568.
 Iteration    1 A^-1*A deviation from unit magnitude is 3.11D-15 for   1625.
 Iteration    1 A^-1*A deviation from orthogonality  is 1.78D-15 for   1862   1304.
 Error on total polarization charges =  0.01977
 SCF Done:  E(RwB97XD) =  -788.811354791     A.U. after   19 cycles
            NFock= 19  Conv=0.27D-08     -V/T= 2.1176

 **********************************************************************

            Population analysis using the SCF Density.

 **********************************************************************

 Orbital symmetries:
       Occupied  (A) (A) (A) (A) (A) (A) (A) (A) (A) (A) (A) (A)
                 (A) (A) (A) (A) (A) (A) (A) (A) (A) (A) (A) (A)
                 (A) (A) (A) (A) (A) (A) (A) (A) (A) (A) (A) (A)
                 (A) (A) (A) (A) (A) (A) (A) (A) (A) (A) (A) (A)
                 (A) (A) (A) (A) (A) (A) (A) (A) (A) (A) (A) (A)
                 (A) (A) (A) (A) (A)
       Virtual   (A) (A) (A) (A) (A) (A) (A) (A) (A) (A) (A) (A)
                 (A) (A) (A) (A) (A) (A) (A) (A) (A) (A) (A) (A)
                 (A) (A) (A) (A) (A) (A) (A) (A) (A) (A) (A) (A)
                 (A) (A) (A) (A) (A) (A) (A) (A) (A) (A) (A) (A)
                 (A) (A) (A) (A) (A) (A) (A) (A) (A) (A) (A) (A)
                 (A) (A) (A) (A) (A) (A) (A) (A) (A) (A) (A) (A)
                 (A) (A) (A) (A) (A) (A) (A) (A) (A) (A) (A) (A)
                 (A) (A) (A) (A) (A) (A) (A) (A) (A) (A) (A) (A)
                 (A) (A) (A) (A) (A) (A) (A) (A) (A) (A) (A) (A)
                 (A) (A) (A) (A) (A) (A) (A) (A) (A) (A) (A) (A)
                 (A) (A) (A) (A) (A) (A) (A) (A) (A) (A) (A) (A)
                 (A) (A) (A) (A) (A) (A) (A) (A) (A) (A) (A) (A)
                 (A) (A) (A) (A) (A) (A) (A) (A) (A) (A) (A) (A)
                 (A) (A) (A) (A) (A) (A) (A) (A) (A) (A) (A) (A)
                 (A) (A) (A) (A) (A) (A) (A) (A) (A) (A) (A) (A)
                 (A) (A) (A) (A) (A) (A) (A) (A) (A) (A) (A) (A)
                 (A) (A) (A) (A) (A) (A) (A) (A) (A) (A) (A) (A)
                 (A) (A) (A) (A) (A) (A) (A) (A) (A) (A) (A) (A)
                 (A) (A) (A) (A) (A) (A) (A) (A) (A) (A) (A) (A)
                 (A) (A) (A) (A) (A) (A) (A) (A) (A) (A) (A) (A)
                 (A) (A) (A) (A) (A) (A) (A) (A) (A) (A) (A) (A)
                 (A) (A) (A) (A) (A) (A) (A) (A) (A) (A) (A) (A)
                 (A) (A) (A) (A) (A) (A) (A) (A) (A) (A) (A) (A)
                 (A) (A) (A) (A) (A) (A) (A) (A) (A) (A) (A) (A)
                 (A) (A) (A) (A) (A) (A) (A) (A) (A) (A) (A) (A)
                 (A) (A) (A) (A) (A) (A) (A) (A) (A) (A) (A) (A)
                 (A) (A) (A) (A) (A) (A) (A) (A) (A) (A) (A) (A)
                 (A) (A) (A) (A) (A) (A) (A) (A) (A) (A) (A) (A)
                 (A) (A) (A) (A) (A) (A) (A) (A) (A) (A) (A) (A)
                 (A) (A) (A) (A) (A) (A) (A) (A) (A) (A) (A) (A)
                 (A) (A) (A) (A) (A) (A) (A) (A) (A) (A) (A) (A)
                 (A) (A) (A) (A) (A) (A) (A) (A) (A) (A) (A) (A)
                 (A) (A) (A) (A) (A) (A) (A) (A) (A) (A) (A) (A)
                 (A) (A) (A) (A) (A) (A) (A) (A) (A) (A) (A) (A)
                 (A) (A) (A) (A) (A) (A) (A) (A) (A) (A) (A) (A)
                 (A) (A) (A) (A) (A) (A) (A) (A) (A) (A) (A) (A)
                 (A) (A) (A) (A) (A) (A) (A) (A) (A) (A) (A) (A)
                 (A) (A) (A) (A) (A) (A) (A) (A) (A) (A) (A) (A)
                 (A) (A) (A) (A) (A) (A) (A) (A) (A) (A) (A) (A)
                 (A) (A) (A) (A) (A) (A) (A) (A) (A) (A) (A) (A)
                 (A) (A) (A) (A) (A) (A) (A) (A) (A) (A) (A) (A)
                 (A) (A) (A) (A) (A) (A) (A) (A) (A) (A) (A) (A)
                 (A) (A) (A) (A) (A) (A) (A) (A) (A) (A) (A) (A)
                 (A) (A) (A) (A) (A) (A) (A) (A) (A) (A) (A) (A)
                 (A) (A) (A) (A) (A) (A) (A) (A) (A) (A) (A) (A)
                 (A) (A) (A) (A) (A) (A) (A) (A) (A) (A) (A) (A)
                 (A) (A) (A) (A) (A) (A) (A) (A) (A) (A) (A) (A)
                 (A) (A) (A) (A) (A) (A) (A) (A) (A) (A) (A) (A)
                 (A) (A) (A) (A) (A) (A) (A) (A) (A) (A) (A) (A)
                 (A) (A) (A) (A) (A) (A) (A) (A) (A) (A) (A) (A)
                 (A) (A) (A) (A) (A) (A) (A) (A) (A) (A) (A) (A)
                 (A) (A) (A) (A) (A) (A) (A) (A) (A) (A) (A) (A)
                 (A) (A) (A) (A) (A) (A) (A) (A) (A) (A) (A) (A)
                 (A) (A) (A) (A) (A) (A) (A) (A) (A) (A) (A) (A)
                 (A) (A) (A) (A) (A) (A) (A) (A) (A) (A) (A) (A)
                 (A) (A) (A) (A) (A) (A) (A) (A) (A) (A) (A) (A)
                 (A) (A) (A) (A) (A) (A) (A) (A) (A) (A) (A) (A)
                 (A) (A) (A) (A) (A) (A) (A) (A) (A) (A) (A) (A)
                 (A) (A) (A) (A) (A) (A) (A) (A) (A) (A) (A) (A)
 The electronic state is 1-A.
 Alpha  occ. eigenvalues --  -19.22239 -14.54536 -14.54536 -14.50644 -10.37940
 Alpha  occ. eigenvalues --  -10.36949 -10.36946 -10.36481 -10.36481 -10.34707
 Alpha  occ. eigenvalues --  -10.34707 -10.34654 -10.34654 -10.30783 -10.30783
 Alpha  occ. eigenvalues --   -4.06797  -2.31592  -2.31520  -2.27885  -1.13369
 Alpha  occ. eigenvalues --   -1.10924  -1.09230  -1.07219  -0.93488  -0.89007
 Alpha  occ. eigenvalues --   -0.86289  -0.84908  -0.84849  -0.83144  -0.75940
 Alpha  occ. eigenvalues --   -0.75064  -0.72868  -0.69689  -0.64784  -0.63289
 Alpha  occ. eigenvalues --   -0.61951  -0.61248  -0.61057  -0.60004  -0.59598
 Alpha  occ. eigenvalues --   -0.59119  -0.55011  -0.54848  -0.53300  -0.52979
 Alpha  occ. eigenvalues --   -0.52357  -0.51914  -0.50449  -0.50374  -0.50033
 Alpha  occ. eigenvalues --   -0.49616  -0.49238  -0.49108  -0.48176  -0.47719
 Alpha  occ. eigenvalues --   -0.47479  -0.46946  -0.41565  -0.38805  -0.37886
 Alpha  occ. eigenvalues --   -0.37597  -0.36506  -0.34473  -0.34151  -0.30913
 Alpha virt. eigenvalues --   -0.03553   0.02156   0.02931   0.05583   0.06827
 Alpha virt. eigenvalues --    0.09677   0.09789   0.11879   0.12752   0.13626
 Alpha virt. eigenvalues --    0.13804   0.14024   0.14036   0.15008   0.15145
 Alpha virt. eigenvalues --    0.15475   0.15941   0.17055   0.17059   0.17700
 Alpha virt. eigenvalues --    0.18094   0.19532   0.19609   0.19630   0.19958
 Alpha virt. eigenvalues --    0.20120   0.20722   0.20970   0.21639   0.22078
 Alpha virt. eigenvalues --    0.22435   0.22737   0.23990   0.24401   0.25041
 Alpha virt. eigenvalues --    0.26305   0.27341   0.28655   0.28819   0.29144
 Alpha virt. eigenvalues --    0.30404   0.31137   0.31773   0.32409   0.32656
 Alpha virt. eigenvalues --    0.33224   0.34487   0.35807   0.36014   0.36025
 Alpha virt. eigenvalues --    0.36932   0.37200   0.37425   0.37777   0.37895
 Alpha virt. eigenvalues --    0.38546   0.38813   0.39434   0.40393   0.40657
 Alpha virt. eigenvalues --    0.42068   0.42665   0.43023   0.43633   0.44186
 Alpha virt. eigenvalues --    0.44273   0.44787   0.45140   0.45920   0.45981
 Alpha virt. eigenvalues --    0.46201   0.47047   0.48152   0.48194   0.48598
 Alpha virt. eigenvalues --    0.49165   0.49292   0.49385   0.50214   0.50336
 Alpha virt. eigenvalues --    0.50885   0.51105   0.51684   0.52246   0.52425
 Alpha virt. eigenvalues --    0.52972   0.53299   0.53973   0.54721   0.55200
 Alpha virt. eigenvalues --    0.56077   0.56422   0.57012   0.57132   0.58275
 Alpha virt. eigenvalues --    0.58300   0.59612   0.60473   0.60700   0.61171
 Alpha virt. eigenvalues --    0.61333   0.63376   0.63525   0.64709   0.66300
 Alpha virt. eigenvalues --    0.66542   0.67531   0.68158   0.68247   0.69693
 Alpha virt. eigenvalues --    0.70859   0.71202   0.72330   0.72354   0.73213
 Alpha virt. eigenvalues --    0.73324   0.74528   0.75903   0.76802   0.77978
 Alpha virt. eigenvalues --    0.78400   0.79896   0.79981   0.83022   0.83120
 Alpha virt. eigenvalues --    0.83936   0.84126   0.85903   0.86013   0.86974
 Alpha virt. eigenvalues --    0.87162   0.88019   0.88755   0.89902   0.90720
 Alpha virt. eigenvalues --    0.91837   0.92238   0.92415   0.93464   0.93887
 Alpha virt. eigenvalues --    0.94667   0.95106   0.96373   0.96823   0.98389
 Alpha virt. eigenvalues --    0.99719   1.00208   1.00529   1.00584   1.00938
 Alpha virt. eigenvalues --    1.01660   1.02571   1.03529   1.03597   1.04212
 Alpha virt. eigenvalues --    1.04799   1.05956   1.06084   1.06599   1.07096
 Alpha virt. eigenvalues --    1.07376   1.07754   1.08375   1.09074   1.10089
 Alpha virt. eigenvalues --    1.10568   1.10838   1.11336   1.13627   1.14235
 Alpha virt. eigenvalues --    1.14341   1.16194   1.16949   1.17713   1.17749
 Alpha virt. eigenvalues --    1.18654   1.20048   1.20074   1.21278   1.22626
 Alpha virt. eigenvalues --    1.22905   1.24091   1.25337   1.25566   1.26165
 Alpha virt. eigenvalues --    1.26347   1.26820   1.27816   1.29161   1.29700
 Alpha virt. eigenvalues --    1.30516   1.30917   1.31102   1.32344   1.32622
 Alpha virt. eigenvalues --    1.33218   1.33221   1.34837   1.36007   1.36380
 Alpha virt. eigenvalues --    1.36672   1.36909   1.38282   1.39785   1.40219
 Alpha virt. eigenvalues --    1.40626   1.40777   1.41126   1.41824   1.43091
 Alpha virt. eigenvalues --    1.43788   1.44849   1.44959   1.46360   1.46725
 Alpha virt. eigenvalues --    1.47485   1.47806   1.49648   1.49659   1.49823
 Alpha virt. eigenvalues --    1.50923   1.51237   1.52565   1.52818   1.53728
 Alpha virt. eigenvalues --    1.53823   1.54164   1.56087   1.56199   1.57645
 Alpha virt. eigenvalues --    1.57834   1.59154   1.59717   1.60434   1.61176
 Alpha virt. eigenvalues --    1.61359   1.62610   1.63115   1.63522   1.64949
 Alpha virt. eigenvalues --    1.65553   1.65663   1.66149   1.67527   1.67661
 Alpha virt. eigenvalues --    1.69426   1.69476   1.70886   1.72760   1.73773
 Alpha virt. eigenvalues --    1.74377   1.75224   1.75778   1.76354   1.76555
 Alpha virt. eigenvalues --    1.80005   1.80264   1.81298   1.82341   1.82574
 Alpha virt. eigenvalues --    1.83074   1.86402   1.86420   1.87126   1.87158
 Alpha virt. eigenvalues --    1.89211   1.89917   1.90548   1.90817   1.92999
 Alpha virt. eigenvalues --    1.93950   1.94684   1.95649   1.98068   1.99407
 Alpha virt. eigenvalues --    2.00569   2.03270   2.04744   2.06136   2.06491
 Alpha virt. eigenvalues --    2.09874   2.11901   2.14021   2.15916   2.16188
 Alpha virt. eigenvalues --    2.17488   2.19023   2.20809   2.21008   2.21412
 Alpha virt. eigenvalues --    2.21682   2.25021   2.25489   2.26080   2.26163
 Alpha virt. eigenvalues --    2.30575   2.31250   2.32376   2.33620   2.35006
 Alpha virt. eigenvalues --    2.35940   2.37897   2.40619   2.40627   2.41058
 Alpha virt. eigenvalues --    2.42105   2.44476   2.50364   2.51580   2.56059
 Alpha virt. eigenvalues --    2.56791   2.57704   2.57768   2.59027   2.60425
 Alpha virt. eigenvalues --    2.62882   2.64136   2.64244   2.64397   2.65097
 Alpha virt. eigenvalues --    2.66078   2.67181   2.68577   2.70615   2.71541
 Alpha virt. eigenvalues --    2.72117   2.72371   2.72833   2.73251   2.76432
 Alpha virt. eigenvalues --    2.77209   2.78754   2.79324   2.79519   2.81538
 Alpha virt. eigenvalues --    2.82374   2.82702   2.83658   2.83984   2.84556
 Alpha virt. eigenvalues --    2.86058   2.86772   2.87312   2.87930   2.88250
 Alpha virt. eigenvalues --    2.89060   2.90213   2.90907   2.91217   2.92231
 Alpha virt. eigenvalues --    2.92949   2.93526   2.94411   2.94431   2.95195
 Alpha virt. eigenvalues --    2.96331   2.97961   2.98735   2.98782   2.99144
 Alpha virt. eigenvalues --    2.99677   3.00354   3.01911   3.02029   3.02202
 Alpha virt. eigenvalues --    3.02817   3.04123   3.04623   3.06028   3.06652
 Alpha virt. eigenvalues --    3.07631   3.08665   3.08854   3.09974   3.10654
 Alpha virt. eigenvalues --    3.11010   3.12257   3.12399   3.14188   3.14189
 Alpha virt. eigenvalues --    3.14657   3.15859   3.17228   3.17859   3.17950
 Alpha virt. eigenvalues --    3.19612   3.20945   3.21231   3.21642   3.22391
 Alpha virt. eigenvalues --    3.23702   3.24048   3.25481   3.25962   3.26064
 Alpha virt. eigenvalues --    3.26924   3.27491   3.27662   3.28444   3.28717
 Alpha virt. eigenvalues --    3.29791   3.32867   3.33402   3.33511   3.33894
 Alpha virt. eigenvalues --    3.36104   3.36156   3.36469   3.37029   3.38261
 Alpha virt. eigenvalues --    3.39222   3.40137   3.40839   3.41295   3.41305
 Alpha virt. eigenvalues --    3.42216   3.42987   3.43064   3.43404   3.45148
 Alpha virt. eigenvalues --    3.46259   3.46834   3.47571   3.47724   3.48419
 Alpha virt. eigenvalues --    3.48651   3.48863   3.50345   3.51080   3.51903
 Alpha virt. eigenvalues --    3.52515   3.52646   3.52793   3.53261   3.55124
 Alpha virt. eigenvalues --    3.55347   3.55418   3.56159   3.56268   3.57372
 Alpha virt. eigenvalues --    3.58327   3.60983   3.61794   3.62445   3.62884
 Alpha virt. eigenvalues --    3.62961   3.63387   3.64088   3.64864   3.65430
 Alpha virt. eigenvalues --    3.66615   3.66831   3.67516   3.69493   3.70155
 Alpha virt. eigenvalues --    3.70859   3.71448   3.72039   3.72340   3.72365
 Alpha virt. eigenvalues --    3.73954   3.75481   3.75640   3.75796   3.77040
 Alpha virt. eigenvalues --    3.77288   3.78090   3.78144   3.79695   3.79820
 Alpha virt. eigenvalues --    3.80576   3.81225   3.81660   3.82803   3.83136
 Alpha virt. eigenvalues --    3.84295   3.84475   3.85298   3.86304   3.86836
 Alpha virt. eigenvalues --    3.87214   3.88933   3.90833   3.91375   3.91916
 Alpha virt. eigenvalues --    3.93383   3.94128   3.94203   3.95810   3.96711
 Alpha virt. eigenvalues --    3.99165   3.99397   3.99643   4.01240   4.01271
 Alpha virt. eigenvalues --    4.01794   4.02831   4.03594   4.05013   4.05961
 Alpha virt. eigenvalues --    4.07316   4.09381   4.09426   4.10412   4.11177
 Alpha virt. eigenvalues --    4.12072   4.12445   4.13001   4.14338   4.14910
 Alpha virt. eigenvalues --    4.15917   4.15952   4.17563   4.17587   4.17736
 Alpha virt. eigenvalues --    4.18304   4.18734   4.19402   4.20036   4.20254
 Alpha virt. eigenvalues --    4.21017   4.21108   4.21736   4.22246   4.23117
 Alpha virt. eigenvalues --    4.23587   4.24003   4.25907   4.26066   4.28006
 Alpha virt. eigenvalues --    4.28188   4.28850   4.29640   4.29807   4.30131
 Alpha virt. eigenvalues --    4.31059   4.31611   4.31982   4.32444   4.34677
 Alpha virt. eigenvalues --    4.34910   4.36181   4.36185   4.37590   4.40357
 Alpha virt. eigenvalues --    4.41750   4.42051   4.44790   4.44814   4.45785
 Alpha virt. eigenvalues --    4.46226   4.47650   4.47923   4.48978   4.51475
 Alpha virt. eigenvalues --    4.52736   4.54405   4.55548   4.56986   4.59008
 Alpha virt. eigenvalues --    4.62057   4.67252   4.67256   4.68083   4.68548
 Alpha virt. eigenvalues --    4.71672   4.71989   4.73281   4.75329   4.76179
 Alpha virt. eigenvalues --    4.76317   4.77968   4.78057   4.78390   4.79378
 Alpha virt. eigenvalues --    4.81266   4.81736   4.85457   4.86578   4.87285
 Alpha virt. eigenvalues --    4.87611   4.87927   4.91529   4.91729   4.95714
 Alpha virt. eigenvalues --    4.97997   4.98398   4.99677   5.01126   5.03164
 Alpha virt. eigenvalues --    5.03573   5.05346   5.05483   5.06274   5.08118
 Alpha virt. eigenvalues --    5.09992   5.10425   5.12222   5.12384   5.13496
 Alpha virt. eigenvalues --    5.13576   5.14980   5.16027   5.16872   5.17408
 Alpha virt. eigenvalues --    5.19716   5.19995   5.21408   5.21506   5.21877
 Alpha virt. eigenvalues --    5.22703   5.23262   5.24929   5.26060   5.26954
 Alpha virt. eigenvalues --    5.27912   5.28044   5.29372   5.30166   5.30391
 Alpha virt. eigenvalues --    5.31116   5.31445   5.32351   5.33319   5.34641
 Alpha virt. eigenvalues --    5.34782   5.37690   5.37834   5.38084   5.38871
 Alpha virt. eigenvalues --    5.39715   5.41232   5.42367   5.46748   5.47351
 Alpha virt. eigenvalues --    5.47743   5.48815   5.49562   5.50987   5.51924
 Alpha virt. eigenvalues --    5.52831   5.53537   5.53715   5.56643   5.58387
 Alpha virt. eigenvalues --    5.59560   5.59731   5.60040   5.61953   5.62903
 Alpha virt. eigenvalues --    5.63399   5.66097   5.67393   5.68517   5.69874
 Alpha virt. eigenvalues --    5.69899   5.71425   5.72013   5.72159   5.73304
 Alpha virt. eigenvalues --    5.73929   5.75042   5.75137   5.76263   5.78893
 Alpha virt. eigenvalues --    5.81709   5.84117   5.87921   5.91131   5.99354
 Alpha virt. eigenvalues --    6.01544   6.04054   6.05349   6.05670   6.09729
 Alpha virt. eigenvalues --    6.11912   6.14835   6.23940   6.25181   6.27780
 Alpha virt. eigenvalues --    6.27881   6.48818   6.57086   6.76151   6.91389
 Alpha virt. eigenvalues --    6.95719   7.20102   7.23630  22.84119  23.05740
 Alpha virt. eigenvalues --   23.28901  23.34445  23.40649  23.46473  23.63337
 Alpha virt. eigenvalues --   23.67226  23.73191  23.76079  23.78882  30.03558
 Alpha virt. eigenvalues --   32.72204  32.81980  32.94017  35.19046  37.59832
 Alpha virt. eigenvalues --   44.08909  53.03944 285.07695
          Condensed to atoms (all electrons):
               1          2          3          4          5          6
     1  Pt  17.121474  -0.061143  -0.061143  -0.005376  -0.005376   0.004537
     2  C   -0.061143   5.480912  -0.112533   0.053422   0.071956   0.034980
     3  C   -0.061143  -0.112533   5.480924   0.071955   0.053410   0.034982
     4  C   -0.005376   0.053422   0.071955   5.861539  -0.190076   0.256654
     5  C   -0.005376   0.071956   0.053410  -0.190076   5.861557   0.256650
     6  C    0.004537   0.034980   0.034982   0.256654   0.256650   4.528025
     7  H   -0.000754  -0.006897  -0.005230   0.389614   0.018523  -0.033793
     8  H   -0.000754  -0.005230  -0.006897   0.018523   0.389615  -0.033793
     9  O    0.000096   0.027149   0.027149  -0.127120  -0.127120   0.643798
    10  N    0.287618   0.363420   0.363420  -0.096149  -0.096150  -0.002763
    11  C   -0.024422   0.206622  -0.004585  -0.038599  -0.002422   0.000997
    12  H   -0.006047  -0.032673   0.000453   0.000000   0.000484  -0.000487
    13  H    0.010553  -0.042376  -0.000138  -0.001397  -0.000266   0.001033
    14  C   -0.024423  -0.004586   0.206620  -0.002421  -0.038599   0.000996
    15  H   -0.006047   0.000453  -0.032672   0.000484   0.000000  -0.000487
    16  H    0.010553  -0.000138  -0.042378  -0.000266  -0.001397   0.001033
    17  N    0.214181  -0.022880   0.000387  -0.000678  -0.000217   0.000274
    18  N    0.214181   0.000387  -0.022880  -0.000217  -0.000679   0.000274
    19  C   -0.037893   0.010924  -0.000002   0.000770   0.000019  -0.000056
    20  H   -0.008299  -0.000617  -0.000006   0.000021   0.000002  -0.000002
    21  H    0.009933   0.001229   0.000007  -0.000045  -0.000005   0.000004
    22  H   -0.009996  -0.001287   0.000018  -0.000136  -0.000000   0.000004
    23  C   -0.034597   0.000725   0.000512  -0.000314  -0.000611   0.000053
    24  H    0.009323  -0.002983  -0.000033  -0.000314  -0.000010   0.000018
    25  H   -0.009885  -0.000048   0.000106   0.000116   0.000043  -0.000010
    26  H   -0.011777   0.010977  -0.000708   0.003868   0.000640  -0.000553
    27  C   -0.037893  -0.000002   0.010923   0.000019   0.000770  -0.000056
    28  H    0.009933   0.000007   0.001229  -0.000005  -0.000045   0.000004
    29  H   -0.008299  -0.000006  -0.000617   0.000002   0.000021  -0.000002
    30  H   -0.009996   0.000018  -0.001287  -0.000000  -0.000136   0.000004
    31  C   -0.034596   0.000512   0.000725  -0.000611  -0.000314   0.000053
    32  H   -0.009885   0.000106  -0.000049   0.000043   0.000116  -0.000010
    33  H    0.009323  -0.000033  -0.002983  -0.000010  -0.000314   0.000018
    34  H   -0.011777  -0.000708   0.010977   0.000640   0.003868  -0.000553
               7          8          9         10         11         12
     1  Pt  -0.000754  -0.000754   0.000096   0.287618  -0.024422  -0.006047
     2  C   -0.006897  -0.005230   0.027149   0.363420   0.206622  -0.032673
     3  C   -0.005230  -0.006897   0.027149   0.363420  -0.004585   0.000453
     4  C    0.389614   0.018523  -0.127120  -0.096149  -0.038599   0.000000
     5  C    0.018523   0.389615  -0.127120  -0.096150  -0.002422   0.000484
     6  C   -0.033793  -0.033793   0.643798  -0.002763   0.000997  -0.000487
     7  H    0.512028  -0.000105   0.007625   0.004074  -0.003942   0.000173
     8  H   -0.000105   0.512028   0.007625   0.004074   0.000083   0.000002
     9  O    0.007625   0.007625   8.010585   0.000757  -0.000586   0.000004
    10  N    0.004074   0.004074   0.000757   6.487197  -0.001864  -0.002865
    11  C   -0.003942   0.000083  -0.000586  -0.001864   4.929820   0.436584
    12  H    0.000173   0.000002   0.000004  -0.002865   0.436584   0.509383
    13  H    0.000539  -0.000004   0.000021   0.003281   0.434822  -0.011813
    14  C    0.000083  -0.003942  -0.000586  -0.001863   0.001124  -0.000389
    15  H    0.000002   0.000173   0.000004  -0.002865  -0.000389  -0.000002
    16  H   -0.000004   0.000539   0.000021   0.003281   0.000083  -0.000002
    17  N    0.000141  -0.000003   0.000006  -0.018055   0.251810  -0.034382
    18  N   -0.000003   0.000141   0.000006  -0.018055   0.000926   0.000060
    19  C   -0.000040   0.000001  -0.000001  -0.002924  -0.043605  -0.003834
    20  H    0.000001   0.000000   0.000000  -0.000008   0.008174   0.000370
    21  H    0.000003  -0.000000   0.000000   0.000141  -0.008927  -0.002200
    22  H   -0.000003   0.000000  -0.000000  -0.000754  -0.004538   0.001917
    23  C   -0.000201   0.000002   0.000003  -0.001946  -0.031268   0.004327
    24  H   -0.000004  -0.000000   0.000000   0.000248  -0.008747  -0.000122
    25  H    0.000002   0.000000  -0.000000  -0.000243   0.006379  -0.000097
    26  H    0.000249   0.000003  -0.000006  -0.002985  -0.008792   0.000364
    27  C    0.000001  -0.000040  -0.000001  -0.002924  -0.000361   0.000003
    28  H   -0.000000   0.000003   0.000000   0.000141   0.000007  -0.000000
    29  H    0.000000   0.000001   0.000000  -0.000008  -0.000011   0.000000
    30  H    0.000000  -0.000003  -0.000000  -0.000754  -0.000039  -0.000001
    31  C    0.000002  -0.000201   0.000003  -0.001946   0.000058  -0.000008
    32  H    0.000000   0.000002  -0.000000  -0.000243  -0.000049   0.000001
    33  H   -0.000000  -0.000004   0.000000   0.000248   0.000006  -0.000000
    34  H    0.000003   0.000249  -0.000006  -0.002985  -0.000010   0.000001
              13         14         15         16         17         18
     1  Pt   0.010553  -0.024423  -0.006047   0.010553   0.214181   0.214181
     2  C   -0.042376  -0.004586   0.000453  -0.000138  -0.022880   0.000387
     3  C   -0.000138   0.206620  -0.032672  -0.042378   0.000387  -0.022880
     4  C   -0.001397  -0.002421   0.000484  -0.000266  -0.000678  -0.000217
     5  C   -0.000266  -0.038599   0.000000  -0.001397  -0.000217  -0.000679
     6  C    0.001033   0.000996  -0.000487   0.001033   0.000274   0.000274
     7  H    0.000539   0.000083   0.000002  -0.000004   0.000141  -0.000003
     8  H   -0.000004  -0.003942   0.000173   0.000539  -0.000003   0.000141
     9  O    0.000021  -0.000586   0.000004   0.000021   0.000006   0.000006
    10  N    0.003281  -0.001863  -0.002865   0.003281  -0.018055  -0.018055
    11  C    0.434822   0.001124  -0.000389   0.000083   0.251810   0.000926
    12  H   -0.011813  -0.000389  -0.000002  -0.000002  -0.034382   0.000060
    13  H    0.515026   0.000083  -0.000002  -0.000000  -0.025401  -0.000041
    14  C    0.000083   4.929821   0.436583   0.434823   0.000926   0.251810
    15  H   -0.000002   0.436583   0.509383  -0.011813   0.000060  -0.034381
    16  H   -0.000000   0.434823  -0.011813   0.515026  -0.000041  -0.025402
    17  N   -0.025401   0.000926   0.000060  -0.000041   6.308204  -0.010140
    18  N   -0.000041   0.251810  -0.034381  -0.025402  -0.010140   6.308205
    19  C   -0.004474  -0.000361   0.000003   0.000001   0.261893   0.000807
    20  H   -0.000379  -0.000011   0.000000   0.000000  -0.028669   0.000071
    21  H    0.003306   0.000007  -0.000000  -0.000000  -0.019811  -0.000017
    22  H   -0.000214  -0.000039  -0.000001   0.000000  -0.031158   0.000097
    23  C   -0.010751   0.000058  -0.000008   0.000004   0.266969   0.000867
    24  H    0.004678   0.000006  -0.000000  -0.000000  -0.021529  -0.000030
    25  H   -0.000044  -0.000049   0.000001   0.000000  -0.028271   0.000156
    26  H   -0.003303  -0.000010   0.000001  -0.000002  -0.029789   0.000193
    27  C    0.000001  -0.043604  -0.003834  -0.004473   0.000807   0.261892
    28  H   -0.000000  -0.008927  -0.002200   0.003306  -0.000017  -0.019811
    29  H    0.000000   0.008174   0.000370  -0.000379   0.000071  -0.028669
    30  H    0.000000  -0.004538   0.001918  -0.000214   0.000097  -0.031158
    31  C    0.000004  -0.031268   0.004327  -0.010751   0.000867   0.266969
    32  H    0.000000   0.006379  -0.000097  -0.000044   0.000156  -0.028271
    33  H   -0.000000  -0.008747  -0.000122   0.004678  -0.000030  -0.021530
    34  H   -0.000002  -0.008792   0.000364  -0.003303   0.000193  -0.029789
              19         20         21         22         23         24
     1  Pt  -0.037893  -0.008299   0.009933  -0.009996  -0.034597   0.009323
     2  C    0.010924  -0.000617   0.001229  -0.001287   0.000725  -0.002983
     3  C   -0.000002  -0.000006   0.000007   0.000018   0.000512  -0.000033
     4  C    0.000770   0.000021  -0.000045  -0.000136  -0.000314  -0.000314
     5  C    0.000019   0.000002  -0.000005  -0.000000  -0.000611  -0.000010
     6  C   -0.000056  -0.000002   0.000004   0.000004   0.000053   0.000018
     7  H   -0.000040   0.000001   0.000003  -0.000003  -0.000201  -0.000004
     8  H    0.000001   0.000000  -0.000000   0.000000   0.000002  -0.000000
     9  O   -0.000001   0.000000   0.000000  -0.000000   0.000003   0.000000
    10  N   -0.002924  -0.000008   0.000141  -0.000754  -0.001946   0.000248
    11  C   -0.043605   0.008174  -0.008927  -0.004538  -0.031268  -0.008747
    12  H   -0.003834   0.000370  -0.002200   0.001917   0.004327  -0.000122
    13  H   -0.004474  -0.000379   0.003306  -0.000214  -0.010751   0.004678
    14  C   -0.000361  -0.000011   0.000007  -0.000039   0.000058   0.000006
    15  H    0.000003   0.000000  -0.000000  -0.000001  -0.000008  -0.000000
    16  H    0.000001   0.000000  -0.000000   0.000000   0.000004  -0.000000
    17  N    0.261893  -0.028669  -0.019811  -0.031158   0.266969  -0.021529
    18  N    0.000807   0.000071  -0.000017   0.000097   0.000867  -0.000030
    19  C    4.794102   0.413391   0.411935   0.424740  -0.043253  -0.007079
    20  H    0.413391   0.540318  -0.017788  -0.016986  -0.006772  -0.001535
    21  H    0.411935  -0.017788   0.522113  -0.018784  -0.007707   0.004361
    22  H    0.424740  -0.016986  -0.018784   0.531794   0.006625  -0.000181
    23  C   -0.043253  -0.006772  -0.007707   0.006625   4.808290   0.413682
    24  H   -0.007079  -0.001535   0.004361  -0.000181   0.413682   0.530207
    25  H   -0.007558   0.002937  -0.001032   0.000138   0.417874  -0.018715
    26  H    0.006433   0.000203  -0.000347  -0.000122   0.417533  -0.017976
    27  C   -0.000166  -0.000033   0.000004  -0.000030  -0.000059   0.000001
    28  H    0.000004   0.000000  -0.000000   0.000000   0.000001  -0.000000
    29  H   -0.000033  -0.000007   0.000000  -0.000003  -0.000006   0.000000
    30  H   -0.000030  -0.000003   0.000000  -0.000008  -0.000009   0.000000
    31  C   -0.000059  -0.000006   0.000001  -0.000009  -0.000163   0.000012
    32  H   -0.000014  -0.000004   0.000000  -0.000001  -0.000014   0.000001
    33  H    0.000001   0.000000  -0.000000   0.000000   0.000012  -0.000000
    34  H   -0.000015   0.000001   0.000000  -0.000001  -0.000035  -0.000001
              25         26         27         28         29         30
     1  Pt  -0.009885  -0.011777  -0.037893   0.009933  -0.008299  -0.009996
     2  C   -0.000048   0.010977  -0.000002   0.000007  -0.000006   0.000018
     3  C    0.000106  -0.000708   0.010923   0.001229  -0.000617  -0.001287
     4  C    0.000116   0.003868   0.000019  -0.000005   0.000002  -0.000000
     5  C    0.000043   0.000640   0.000770  -0.000045   0.000021  -0.000136
     6  C   -0.000010  -0.000553  -0.000056   0.000004  -0.000002   0.000004
     7  H    0.000002   0.000249   0.000001  -0.000000   0.000000   0.000000
     8  H    0.000000   0.000003  -0.000040   0.000003   0.000001  -0.000003
     9  O   -0.000000  -0.000006  -0.000001   0.000000   0.000000  -0.000000
    10  N   -0.000243  -0.002985  -0.002924   0.000141  -0.000008  -0.000754
    11  C    0.006379  -0.008792  -0.000361   0.000007  -0.000011  -0.000039
    12  H   -0.000097   0.000364   0.000003  -0.000000   0.000000  -0.000001
    13  H   -0.000044  -0.003303   0.000001  -0.000000   0.000000   0.000000
    14  C   -0.000049  -0.000010  -0.043604  -0.008927   0.008174  -0.004538
    15  H    0.000001   0.000001  -0.003834  -0.002200   0.000370   0.001918
    16  H    0.000000  -0.000002  -0.004473   0.003306  -0.000379  -0.000214
    17  N   -0.028271  -0.029789   0.000807  -0.000017   0.000071   0.000097
    18  N    0.000156   0.000193   0.261892  -0.019811  -0.028669  -0.031158
    19  C   -0.007558   0.006433  -0.000166   0.000004  -0.000033  -0.000030
    20  H    0.002937   0.000203  -0.000033   0.000000  -0.000007  -0.000003
    21  H   -0.001032  -0.000347   0.000004  -0.000000   0.000000   0.000000
    22  H    0.000138  -0.000122  -0.000030   0.000000  -0.000003  -0.000008
    23  C    0.417874   0.417533  -0.000059   0.000001  -0.000006  -0.000009
    24  H   -0.018715  -0.017976   0.000001  -0.000000   0.000000   0.000000
    25  H    0.530773  -0.015225  -0.000014   0.000000  -0.000004  -0.000001
    26  H   -0.015225   0.516130  -0.000015   0.000000   0.000001  -0.000001
    27  C   -0.000014  -0.000015   4.794098   0.411934   0.413392   0.424740
    28  H    0.000000   0.000000   0.411934   0.522115  -0.017787  -0.018785
    29  H   -0.000004   0.000001   0.413392  -0.017787   0.540314  -0.016986
    30  H   -0.000001  -0.000001   0.424740  -0.018785  -0.016986   0.531794
    31  C   -0.000014  -0.000035  -0.043252  -0.007707  -0.006772   0.006625
    32  H    0.000009   0.000029  -0.007558  -0.001032   0.002937   0.000138
    33  H    0.000001  -0.000001  -0.007079   0.004361  -0.001535  -0.000181
    34  H    0.000029   0.000097   0.006433  -0.000347   0.000203  -0.000122
              31         32         33         34
     1  Pt  -0.034596  -0.009885   0.009323  -0.011777
     2  C    0.000512   0.000106  -0.000033  -0.000708
     3  C    0.000725  -0.000049  -0.002983   0.010977
     4  C   -0.000611   0.000043  -0.000010   0.000640
     5  C   -0.000314   0.000116  -0.000314   0.003868
     6  C    0.000053  -0.000010   0.000018  -0.000553
     7  H    0.000002   0.000000  -0.000000   0.000003
     8  H   -0.000201   0.000002  -0.000004   0.000249
     9  O    0.000003  -0.000000   0.000000  -0.000006
    10  N   -0.001946  -0.000243   0.000248  -0.002985
    11  C    0.000058  -0.000049   0.000006  -0.000010
    12  H   -0.000008   0.000001  -0.000000   0.000001
    13  H    0.000004   0.000000  -0.000000  -0.000002
    14  C   -0.031268   0.006379  -0.008747  -0.008792
    15  H    0.004327  -0.000097  -0.000122   0.000364
    16  H   -0.010751  -0.000044   0.004678  -0.003303
    17  N    0.000867   0.000156  -0.000030   0.000193
    18  N    0.266969  -0.028271  -0.021530  -0.029789
    19  C   -0.000059  -0.000014   0.000001  -0.000015
    20  H   -0.000006  -0.000004   0.000000   0.000001
    21  H    0.000001   0.000000  -0.000000   0.000000
    22  H   -0.000009  -0.000001   0.000000  -0.000001
    23  C   -0.000163  -0.000014   0.000012  -0.000035
    24  H    0.000012   0.000001  -0.000000  -0.000001
    25  H   -0.000014   0.000009   0.000001   0.000029
    26  H   -0.000035   0.000029  -0.000001   0.000097
    27  C   -0.043252  -0.007558  -0.007079   0.006433
    28  H   -0.007707  -0.001032   0.004361  -0.000347
    29  H   -0.006772   0.002937  -0.001535   0.000203
    30  H    0.006625   0.000138  -0.000181  -0.000122
    31  C    4.808288   0.417874   0.413682   0.417534
    32  H    0.417874   0.530774  -0.018715  -0.015225
    33  H    0.413682  -0.018715   0.530207  -0.017975
    34  H    0.417534  -0.015225  -0.017975   0.516128
 Mulliken charges:
               1
     1  Pt   0.518675
     2  C    0.030338
     3  C    0.030338
     4  C   -0.193937
     5  C   -0.193938
     6  C    0.308172
     7  H    0.117912
     8  H    0.117912
     9  O   -0.469424
    10  N   -0.259551
    11  C   -0.094341
    12  H    0.140793
    13  H    0.127260
    14  C   -0.094339
    15  H    0.140793
    16  H    0.127260
    17  N   -0.035970
    18  N   -0.035972
    19  C   -0.173629
    20  H    0.115634
    21  H    0.123618
    22  H    0.118919
    23  C   -0.199826
    24  H    0.116721
    25  H    0.122646
    26  H    0.134926
    27  C   -0.173627
    28  H    0.123617
    29  H    0.115635
    30  H    0.118918
    31  C   -0.199825
    32  H    0.122646
    33  H    0.116721
    34  H    0.134927
 Sum of Mulliken charges =   1.00000
 Mulliken charges with hydrogens summed into heavy atoms:
               1
     1  Pt   0.518675
     2  C    0.030338
     3  C    0.030338
     4  C   -0.076025
     5  C   -0.076026
     6  C    0.308172
     9  O   -0.469424
    10  N   -0.259551
    11  C    0.173712
    14  C    0.173714
    17  N   -0.035970
    18  N   -0.035972
    19  C    0.184540
    23  C    0.174468
    27  C    0.184542
    31  C    0.174468
 Electronic spatial extent (au):  <R**2>=           4037.1529
 Charge=              1.0000 electrons
 Dipole moment (field-independent basis, Debye):
    X=            -14.0361    Y=              0.0000    Z=              0.3475  Tot=             14.0404
 Quadrupole moment (field-independent basis, Debye-Ang):
   XX=           -136.4370   YY=            -66.7518   ZZ=           -105.0176
   XY=              0.0002   XZ=             -6.1280   YZ=              0.0001
 Traceless Quadrupole moment (field-independent basis, Debye-Ang):
   XX=            -33.7015   YY=             35.9836   ZZ=             -2.2821
   XY=              0.0002   XZ=             -6.1280   YZ=              0.0001
 Octapole moment (field-independent basis, Debye-Ang**2):
  XXX=           -376.8744  YYY=              0.0003  ZZZ=              6.4163  XYY=            -58.2992
  XXY=              0.0003  XXZ=            -17.6995  XZZ=            -54.9777  YZZ=              0.0001
  YYZ=              0.3517  XYZ=              0.0001
 Hexadecapole moment (field-independent basis, Debye-Ang**3):
 XXXX=          -3649.5205 YYYY=          -1914.3944 ZZZZ=           -437.6547 XXXY=              0.0025
 XXXZ=           -117.5369 YYYX=              0.0000 YYYZ=              0.0006 ZZZX=              1.4202
 ZZZY=              0.0004 XXYY=           -713.2213 XXZZ=           -515.1733 YYZZ=           -421.1386
 XXYZ=              0.0006 YYXZ=              3.5040 ZZXY=              0.0001
 N-N= 1.372766030694D+03 E-N=-4.530394595040D+03  KE= 7.058046817624D+02
 PrsmSu:  requested number of processors reduced to:   3 ShMem   1 Linda.
   1 Symmetry operations used in ECPInt.
 ECPInt:  NShTT=   41905 NPrTT=  110145 LenC2=   38168 LenP2D=   76833.
 LDataN:  DoStor=T MaxTD1=10 Len=  848
 D1PCM: PCM CHGder 1st derivatives, ID1Alg=3 FixD1E=F DoIter=F DoCFld=F I1PDM=0.
 CoulSu:  requested number of processors reduced to:   5 ShMem   1 Linda.
 CoulSu:  requested number of processors reduced to:   5 ShMem   1 Linda.
 Calling FoFJK, ICntrl=      2127 FMM=F ISym2X=0 I1Cent= 0 IOpClX= 0 NMat=1 NMatS=1 NMatT=0.
 Defaulting to unpruned grid for atomic number  78.
 Defaulting to unpruned grid for atomic number  78.
 Defaulting to unpruned grid for atomic number  78.
 Defaulting to unpruned grid for atomic number  78.
 Defaulting to unpruned grid for atomic number  78.
 Defaulting to unpruned grid for atomic number  78.
 Defaulting to unpruned grid for atomic number  78.
 Defaulting to unpruned grid for atomic number  78.
 ***** Axes restored to original set *****
 -------------------------------------------------------------------
 Center     Atomic                   Forces (Hartrees/Bohr)
 Number     Number              X              Y              Z
 -------------------------------------------------------------------
      1       78           0.010535813   -0.000000305   -0.005274075
      2        6          -0.005028878    0.011297899   -0.009734205
      3        6          -0.005028053   -0.011298146   -0.009736950
      4        6           0.000894423    0.001907509   -0.002295496
      5        6           0.000895719   -0.001907695   -0.002296839
      6        6           0.017480904   -0.000000310   -0.004003359
      7        1           0.005310179    0.007093263    0.000393081
      8        1           0.005309781   -0.007092747    0.000393922
      9        8          -0.003071330   -0.000000192    0.000496029
     10        7          -0.009773480    0.000000857    0.022283898
     11        6           0.001294746   -0.005032843    0.000844733
     12        1          -0.003971778   -0.000020577    0.009467601
     13        1           0.003028603    0.008966500   -0.003110855
     14        6           0.001294864    0.005032837    0.000846054
[...]
 .00002052,-0.00002029,0.00010358,-0.01906639,0.00088260,-0.00872492,0.
 00002252,0.00004360,-0.00001773,0.00000516,-0.00003913,0.00000198,0.00
 000335,0.00001839,0.00000403,-0.00000441,-0.00000389,-0.00000678,-0.00
 002592,-0.00003072,0.00001425,0.00000346,0.00001018,0.00000257,0.00000
 522,-0.00000707,0.00000905,-0.00000098,-0.00000273,-0.00000003,0.04322
 389,-0.05894798,0.02395136,0.02709622,-0.00252575,0.01477597,-0.036937
 62,0.06018831,-0.00041209,-0.00083765,0.00030026,0.00001816,-0.0000193
 0,0.00000704,0.00064656,-0.00016548,0.00064782,0.00000082,0.00001369,0
 .00001599,0.00009057,0.00021732,-0.00003241,-0.00002192,-0.00005422,-0
 .00010618,0.00000113,0.00000195,-0.00000167,0.00000327,0.00000231,0.00
 005026,0.00007505,0.00002283,0.00001725,0.00026492,-0.00012318,-0.0000
 9979,-0.00000366,0.00000122,-0.00001477,-0.00000219,0.00000248,0.00000
 031,-0.00000266,0.00000276,0.00000069,0.00177748,0.00163288,-0.0018234
 4,0.00015745,0.00008959,0.00046826,0.00005106,-0.00005762,0.00016357,0
 .00001286,0.00002503,-0.00002152,0.01946817,-0.00164397,0.00672480,-0.
 00000241,0.00000334,-0.00000232,0.00000171,-0.00000198,0.00000429,0.00
 000255,-0.00000095,0.00000089,-0.00000498,-0.00000225,-0.00000122,0.00
 000080,-0.00000435,0.00000462,-0.00000056,-0.00000078,-0.00000165,-0.0
 0000151,0.00000029,0.00000066,0.00000171,0.00000027,0.00000063,-0.1186
 2674,0.02226555,-0.11373895,0.00124653,-0.00100795,0.00043720,0.118865
 23,-0.02620718,0.11651809,0.00036558,0.00085503,-0.00020078,-0.0000253
 2,0.00003918,-0.00005523,0.00017314,-0.00019758,-0.00001182,-0.0000212
 1,0.00002266,-0.00001590,0.00005173,0.00017294,0.00001468,-0.00003213,
 -0.00010112,0.00003520,-0.00000392,0.00000438,0.00001044,-0.00000593,-
 0.00000567,-0.00002064,0.00004518,0.00003353,-0.00001262,-0.00008032,0
 .00005216,0.00007246,0.00004791,-0.00001394,0.00004590,-0.00000574,0.0
 0000058,-0.00000280,-0.00001071,-0.00000074,-0.00000482,0.00107228,0.0
 0044789,0.00225716,-0.00079197,0.00003777,-0.00032756,-0.00000127,-0.0
 0000684,-0.00025422,-0.00005585,-0.00017033,0.00002361,-0.00497180,0.0
 0696603,0.02668044,-0.00002255,-0.00000094,0.00001284,-0.00000032,0.00
 000441,-0.00000498,0.00000176,-0.00000599,-0.00000347,0.00000945,0.000
 00378,-0.00000089,-0.00000785,-0.00000816,-0.00002697,-0.00000039,-0.0
 0000311,0.00001084,0.00000237,0.00000078,0.00000150,-0.00000204,0.0000
 0287,0.00000615,-0.05065557,0.00160164,0.00280250,-0.00010980,0.002869
 53,0.00664510,0.00402016,-0.01044771,-0.02539518,0.05425267,-0.0001763
 2,-0.00051062,0.00083975,-0.00001938,-0.00001344,-0.00002134,0.0001553
 4,0.00008537,0.00013498,0.00002325,-0.00002233,0.00000444,-0.00003662,
 -0.00005608,0.00000512,0.00004858,0.00006748,-0.00002482,0.00000128,-0
 .00000357,0.00000232,0.00000234,-0.00000177,-0.00000025,-0.00003581,-0
 .00001935,0.00000945,-0.00010845,0.00002749,0.00004349,-0.00002103,-0.
 00000915,-0.00001292,0.00000360,0.00000047,0.00000117,0.00000431,0.000
 00106,0.00000015,0.00070494,-0.00019337,0.00037422,0.00031651,0.000111
 28,-0.00029455,-0.00006823,0.00002216,-0.00008816,-0.00001137,0.000044
 16,-0.00012458,-0.00283782,0.00466964,0.02157247,0.00001148,-0.0000011
 4,-0.00000493,0.00000155,-0.00000389,0.00000225,0.00000131,0.00000736,
 -0.00000102,-0.00000378,-0.00001167,0.00000105,0.00000483,0.00004484,0
 .00000765,0.00000239,0.00000894,-0.00001218,0.00000279,0.00000078,0.00
 000277,-0.00000015,0.00000233,-0.00000111,0.00474842,-0.08424869,-0.09
 800540,0.00040402,-0.00795488,-0.02866732,-0.00031086,0.00178135,0.006
 01106,0.00031250,0.08654201,0.00027263,-0.00047398,-0.00024468,-0.0000
 2140,0.00006980,-0.00001601,0.00000608,0.00006221,0.00037257,-0.000019
 60,-0.00000921,-0.00000772,-0.00008524,-0.00002318,-0.00000724,0.00005
 024,0.00001826,-0.00006905,-0.00000710,-0.00000098,0.00000258,-0.00000
 657,0.00000189,0.00000356,-0.00004742,-0.00000261,0.00002315,-0.000120
 20,-0.00009785,0.00011967,-0.00002365,0.00002296,-0.00001109,0.0000023
 9,0.00000497,0.00000327,0.00001162,-0.00000038,0.00000589,-0.00154471,
 -0.00005033,0.00037360,0.00025044,-0.00032843,0.00066297,-0.00004951,-
 0.00004442,0.00006617,0.00006018,0.00026589,-0.00007477,0.00130335,-0.
 00364529,-0.01699463,0.00002005,-0.00002353,-0.00002800,-0.00000627,0.
 00000678,-0.00000122,-0.00000652,0.00000270,0.00000524,-0.00000089,-0.
 00000105,0.00001203,-0.00000129,0.00004973,0.00001750,0.00000651,-0.00
 000011,-0.00001922,-0.00000211,0.00000041,-0.00000558,0.00000652,-0.00
 000274,-0.00001009,0.01119908,-0.09039058,-0.29108828,-0.00078843,0.00
 090187,0.00256615,0.00136068,-0.00483291,-0.01043288,-0.01485564,0.096
 39996,0.31521339,-0.00046524,-0.00030901,0.00239862,-0.00005900,-0.000
 11052,-0.00001866,0.00011723,0.00088497,-0.00179532,0.00005671,-0.0000
 8044,0.00001193,-0.00025568,-0.00057689,0.00019195,0.00024280,0.000427
 68,0.00009726,0.00000223,-0.00001449,0.00000388,0.00001883,0.00002276,
 -0.00003501,-0.00026655,-0.00012031,-0.00000724,-0.00017052,-0.0008326
 6,0.00014181,-0.00008201,0.00000141,-0.00005863,0.00001600,-0.00000738
 ,0.00000239,0.00001503,-0.00000394,0.00000149,-0.00260922,-0.00725279,
 -0.03578592,-0.00535336,0.00003805,-0.00292476,0.00084888,-0.00094534,
 -0.00128935,0.00015492,0.00021626,-0.00050941,-0.09757032,0.00041315,0
 .00367905,0.00006252,-0.00008832,-0.00001183,-0.00000659,0.00002592,0.
 00000080,-0.00000554,0.00000410,-0.00000485,-0.00000785,-0.00000483,-0
 .00000129,0.00010837,0.00015297,0.00008829,-0.00001290,0.00002601,-0.0
 0005090,-0.00000973,0.00002113,-0.00000389,-0.00000318,-0.00001719,-0.
 00000895,-0.00218410,0.00807331,0.03046490,0.00056970,0.00042557,-0.00
 055784,0.00037839,0.00011561,0.00163638,-0.00378188,-0.00261682,0.0031
 0756,0.63915711,0.00168962,-0.00878035,-0.01925589,0.00014711,0.000363
 69,-0.00006246,-0.00093245,-0.00184577,-0.00060022,-0.00019924,0.00016
 957,0.00002589,0.00023149,0.00070740,0.00007355,-0.00014552,-0.0005004
 0,-0.00004322,-0.00001528,0.00001891,0.00001639,-0.00004586,-0.0000059
 5,0.00006598,0.00015988,0.00014086,-0.00000894,-0.00160535,-0.00078056
 ,0.00042689,0.00029766,0.00024655,0.00013496,-0.00003036,0.00002037,-0
 .00002358,-0.00000125,0.00000149,0.00001185,0.00066874,-0.00019701,0.0
 0601844,0.00206824,-0.00017511,0.00169164,0.00168533,0.00181699,0.0027
 5968,0.00005713,-0.00117309,0.00357394,-0.00320779,-0.09309982,-0.0506
 6505,-0.00011130,0.00046063,0.00017735,0.00001290,-0.00003072,0.000004
 35,-0.00003927,0.00002095,-0.00002286,0.00000816,0.00004484,-0.0000497
 3,-0.00015297,-0.00100682,-0.00020083,-0.00004707,-0.00013209,0.000277
 90,-0.00001652,-0.00000557,-0.00003846,0.00000150,0.00002580,-0.000016
 18,-0.00001517,0.00439246,0.01779213,-0.00125950,0.00077277,0.00268063
 ,0.00041951,0.00030803,-0.00015920,-0.00247623,-0.00126516,0.00252508,
 0.00460800,0.58566464,-0.00003476,-0.01312518,-0.00008386,-0.00021539,
 -0.00022314,-0.00000297,-0.00002512,-0.00157734,0.00122405,0.00022176,
 -0.00006803,-0.00001873,0.00092503,0.00105476,-0.00016121,-0.00071941,
 -0.00046013,-0.00013708,0.00003402,0.00003681,0.00003950,0.00001717,-0
 .00001315,0.00005476,0.00084104,0.00014512,-0.00002543,-0.00039320,0.0
 0137378,-0.00061582,-0.00063866,0.00023050,-0.00041897,0.00002655,0.00
 000279,0.00002892,0.00018665,0.00009167,0.00007383,-0.01074365,-0.0032
 4215,-0.02484056,-0.00128251,-0.00063559,0.00008927,0.00247927,-0.0008
 4544,0.00092096,-0.00000397,0.00250085,0.00005634,-0.00058666,-0.01559
 847,-0.18069962,0.00072744,0.00025750,-0.00040683,-0.00005337,-0.00001
 425,0.00000462,-0.00018884,0.00023030,0.00012886,-0.00002697,-0.000007
 65,0.00001750,0.00008829,0.00020083,0.00082208,0.00004298,0.00017463,-
 0.00024813,-0.00003777,0.00001961,-0.00004538,0.00001931,-0.00000448,-
 0.00004357,0.00957847,-0.00386300,-0.02897376,-0.00180183,-0.00132781,
 0.00145315,-0.00168845,-0.00090893,0.00128061,0.00115849,0.00076935,-0
 .00006471,0.00607726,-0.05467251,0.48669190,-0.00019321,-0.00036111,-0
 .00063701,0.00000200,-0.00013854,0.00012309,0.00019891,0.00055069,0.00
 006527,0.00007734,-0.00002258,-0.00000616,-0.00001664,-0.00015747,-0.0
 0001677,0.00006161,0.00017663,0.00000187,0.00000744,-0.00000955,-0.000
 02335,0.00001967,0.00000109,0.00001241,-0.00005628,-0.00005424,0.00000
 261,0.00025474,0.00014707,0.00024260,-0.00001533,-0.00003353,-0.000002
 75,0.00000486,-0.00000651,0.00000001,-0.00000436,-0.00000244,-0.000005
 66,0.00112841,-0.00006256,0.00047578,0.00015864,-0.00015918,-0.0001045
 5,0.00021575,-0.00031760,0.00011221,-0.00010334,-0.00014172,-0.0000159
 6,0.00113937,-0.00058134,0.00163710,-0.00000979,0.00000585,0.00000723,
 0.00000695,-0.00000522,-0.00000151,0.00000698,-0.00000148,-0.00000193,
 0.00000237,-0.00000279,-0.00000211,-0.00000973,0.00001652,-0.00003777,
 0.00000311,-0.00000088,0.00000686,0.00000888,-0.00000956,0.00000343,-0
 .00000941,-0.00000574,-0.00000257,0.00072382,0.00006594,0.00074625,-0.
 00014224,-0.00001138,0.00000078,0.00007976,0.00036267,0.00032951,0.000
 25894,-0.00006171,-0.00005790,-0.25961084,0.06433724,-0.10455456,0.274
 60528,-0.00036619,-0.00028197,-0.00077502,-0.00002732,-0.00000468,0.00
 000336,0.00017906,0.00033396,0.00026534,0.00002428,-0.00003063,-0.0000
 0043,0.00001834,-0.00008991,-0.00004289,0.00000510,0.00005398,-0.00001
 550,0.00000016,-0.00000195,-0.00000154,0.00000307,-0.00000155,-0.00000
 132,-0.00001496,-0.00001729,0.00000920,-0.00000443,-0.00002934,0.00006
 459,-0.00002754,0.00002140,-0.00002014,0.00000420,-0.00000314,0.000003
 20,0.00001003,0.00000030,0.00000214,0.00105783,0.00002094,-0.00221005,
 -0.00072111,0.00040180,-0.00028762,-0.00034390,0.00031746,0.00000569,0
 .00012630,0.00004631,0.00005324,-0.01113706,0.00055843,-0.00705461,0.0
 0000872,-0.00002125,-0.00000415,-0.00000323,-0.00000707,-0.00000029,-0
 .00000211,0.00000425,-0.00000404,-0.00000078,0.00000078,-0.00000041,-0
 .00002113,-0.00000557,-0.00001961,0.00000237,0.00000937,0.00000756,0.0
 0000956,-0.00001803,-0.00000174,-0.00001112,-0.00000878,-0.00000183,0.
 00006995,-0.00037378,0.00067052,0.00019193,0.00000424,-0.00009877,0.00
 005379,-0.00029639,0.00008500,-0.00014946,-0.00010863,-0.00005374,0.06
 673214,-0.07144458,0.03153915,-0.07032295,0.07270276,-0.00013864,0.000
 16499,-0.00022668,0.00002475,-0.00003966,-0.00002048,0.00021947,0.0004
 5065,-0.00030919,0.00001626,-0.00004817,-0.00000634,-0.00012680,-0.000
 27743,0.00011648,0.00007945,0.00012611,0.00001955,0.00000303,-0.000007
 67,0.00000179,0.00000489,0.00000746,-0.00002953,-0.00010219,-0.0000421
 4,0.00000332,-0.00018630,0.00011970,0.00012311,0.00001565,-0.00003863,
 0.00001769,-0.00000048,-0.00000477,0.00000022,-0.00000670,-0.00000643,
 -0.00000513,0.00198244,-0.00121715,-0.00548966,-0.00176534,0.00003717,
 -0.00072408,0.00019900,-0.00002862,0.00003016,-0.00005870,-0.00027821,
 -0.00012594,-0.03001748,0.00612287,-0.01956716,-0.00004280,-0.00001953
 ,0.00001897,0.00000662,-0.00000905,0.00000066,0.00001771,-0.00001082,-
 0.00000970,0.00000150,-0.00000277,-0.00000558,-0.00000389,0.00003846,-
 0.00004538,0.00000372,-0.00000171,0.00000152,0.00000343,0.00000174,0.0
 0001575,0.00000275,0.00000013,0.00000486,-0.00210244,-0.00019937,0.001
 09226,0.00017411,0.00001475,-0.00006216,0.00077180,0.00004276,-0.00046
 721,0.00017742,-0.00021468,0.00030021,-0.09537267,0.02847037,-0.099412
 58,0.11240280,-0.02853598,0.11508867,0.00087242,-0.00083334,0.00000957
 ,0.00000512,-0.00002851,0.00003832,-0.00026575,-0.00030714,0.00005978,
 0.00001696,-0.00000653,-0.00000895,0.00014042,0.00008962,-0.00000063,-
 0.00006663,-0.00007031,0.00001980,0.00000484,0.00000404,-0.00000131,-0
 .00001754,0.00000125,-0.00003145,0.00007339,0.00002168,-0.00000474,-0.
 00013523,0.00044640,0.00008579,-0.00003460,-0.00002465,-0.00000834,-0.
 00000113,0.00000010,0.00000281,0.00000510,0.00000855,0.00000249,0.0008
 5834,-0.00190235,-0.00021847,-0.00000830,0.00009645,0.00010091,0.00001
 823,0.00031348,-0.00004503,-0.00015493,0.00015867,-0.00014288,-0.00061
 639,0.00103655,0.00074260,0.00003271,0.00002510,-0.00003155,0.00000078
 ,-0.00000346,-0.00000056,-0.00000737,0.00001504,0.00001398,-0.00000039
 ,-0.00000239,0.00000651,-0.00001290,0.00004707,0.00004298,0.00001318,0
 .00001369,-0.00002087,0.00000311,-0.00000237,0.00000372,0.00000334,0.0
 0000284,-0.00000183,0.00016703,0.00137682,0.00033025,0.00037190,-0.000
 14872,-0.00021114,-0.00008953,0.00013924,-0.00009523,-0.00008091,-0.00
 019676,-0.00009105,-0.05467634,0.02945019,0.00006519,-0.00132463,0.027
 11458,0.00087506,0.05055413,-0.00007898,0.00117624,-0.00169801,0.00006
 033,0.00029059,-0.00012968,0.00011418,-0.00013936,0.00001467,-0.000154
 42,0.00004163,0.00000939,-0.00016239,-0.00006907,0.00004146,0.00028568
 ,-0.00000517,-0.00000927,-0.00002131,-0.00000488,0.00001666,-0.0000289
 0,0.00000090,-0.00000453,-0.00027498,0.00000518,0.00001637,-0.00001731
 ,0.00002779,0.00001566,0.00017074,0.00002014,0.00009847,-0.00000550,0.
 00000639,-0.00000609,-0.00003554,-0.00002371,-0.00000800,0.00066637,0.
 00065739,0.00098057,-0.00019232,0.00029584,0.00008586,-0.00068437,0.00
 072891,-0.00075238,0.00015005,-0.00027748,0.00030923,0.00145663,-0.012
 39666,-0.00595157,-0.00017908,-0.00000094,0.00010907,0.00000978,0.0000
 1018,0.00000078,0.00002961,-0.00005194,-0.00002743,0.00000311,0.000008
 94,0.00000011,-0.00002601,-0.00013209,-0.00017463,-0.00001369,-0.00004
 359,0.00006906,0.00000088,0.00000937,0.00000171,0.00000253,0.00001822,
 0.00000868,-0.00069298,0.00152348,0.00114047,0.00068859,0.00059578,-0.
 00040807,0.00006067,-0.00013115,-0.00004944,-0.00003304,0.00039473,0.0
 0006675,0.02925265,-0.31002137,-0.00166352,-0.00043806,-0.00561247,0.0
 0033059,-0.03279022,0.33425538,-0.00018456,0.00141004,-0.00326604,0.00
 006166,0.00009440,-0.00001052,-0.00023313,-0.00002405,-0.00002457,-0.0
 0007516,0.00006729,-0.00000161,-0.00009715,-0.00001096,0.00002103,0.00
 008081,-0.00002543,0.00000560,-0.00000731,-0.00000267,-0.00000394,-0.0
 0001816,-0.00000159,0.00001234,-0.00010172,0.00000710,0.00000281,0.000
 18853,0.00019842,0.00016791,0.00024615,-0.00000036,0.00013893,-0.00001
 584,0.00000266,-0.00001297,-0.00005035,-0.00001547,-0.00001438,0.00264
 427,-0.00206002,0.00094683,0.00010718,0.00016478,0.00020150,-0.0002629
 4,0.00030483,0.00047987,-0.00000603,-0.00090951,0.00082682,0.00411992,
 -0.03890108,-0.01271680,-0.00020045,0.00003743,0.00013945,0.00001580,-
 0.00000257,-0.00000165,0.00003846,-0.00005173,-0.00003919,0.00001084,0
 .00001218,-0.00001922,-0.00005090,-0.00027790,-0.00024813,-0.00002087,
 -0.00006906,0.00012833,0.00000686,-0.00000756,0.00000152,-0.00000884,-
 0.00000528,0.00000765,-0.00112786,-0.00276252,0.00177810,-0.00035267,0
 .00108002,0.00047553,0.00007195,0.00026072,-0.00011184,-0.00019326,0.0
 0034329,0.00019749,-0.00081612,0.00571570,-0.05017370,-0.00012425,0.01
 363935,0.00118723,-0.00036289,0.00760821,0.05862430,0.00026516,-0.0001
 9253,0.00018637,0.00005348,0.00012371,-0.00008354,0.00041304,-0.000582
 85,-0.00004481,-0.00008434,0.00002210,0.00000809,0.00001662,0.00023880
 ,0.00013153,-0.00007335,-0.00022695,-0.00003926,-0.00000592,0.00000883
 ,0.00001765,-0.00000348,0.00000637,-0.00000384,0.00007336,0.00006298,0
 .00000274,-0.00030530,0.00011651,-0.00026752,0.00001870,0.00000319,0.0
 0001993,-0.00000854,0.00000742,0.00000105,0.00000003,-0.00000029,0.000
 00428,0.00062912,0.00060690,-0.00082567,0.00006716,-0.00001518,0.00010
 308,0.00011380,0.00000744,-0.00008211,0.00000725,0.00012082,-0.0000559
 8,0.00082895,0.00123964,-0.00166503,-0.00001118,0.00001150,-0.00000633
 ,-0.00000108,0.00000098,0.00000171,-0.00000075,-0.00000382,0.00000699,
 -0.00000204,0.00000015,0.00000652,-0.00000318,-0.00000150,0.00001931,0
 .00000334,-0.00000253,-0.00000884,-0.00000941,0.00001112,0.00000275,0.
 00001227,0.00002163,0.00000574,0.00052375,0.00052895,-0.00020084,-0.00
 004978,-0.00009217,-0.00001302,0.00047034,-0.00000102,-0.00008279,0.00
 036629,-0.00024435,0.00007817,-0.21461789,-0.09554155,0.10050620,-0.01
 746906,-0.01245812,0.01294252,0.00435157,0.00287729,-0.00328194,0.2244
 3107,0.00103678,-0.00091541,-0.00115454,-0.00008424,-0.00013166,0.0000
 1337,-0.00031584,0.00049069,-0.00003574,0.00006733,-0.00003645,-0.0000
 0404,0.00003321,-0.00002082,0.00002243,-0.00012342,0.00002208,-0.00001
 266,0.00000597,0.00000012,-0.00000083,0.00002458,-0.00000588,0.0000244
 4,0.00011195,-0.00001237,-0.00000743,0.00003292,-0.00038429,-0.0000715
 0,-0.00004077,-0.00001118,-0.00002182,0.00000081,0.00000038,0.00000449
 ,0.00000595,0.00000491,-0.00000172,0.00000287,0.00038858,0.00035429,0.
 00014319,-0.00014424,-0.00003867,-0.00010544,-0.00039134,0.00008231,-0
 .00005571,0.00013085,0.00000730,0.01134834,0.00468092,-0.00738475,0.00
 003964,0.00001898,-0.00001706,-0.00000082,-0.00000273,-0.00000027,-0.0
 0001035,0.00001622,0.00000483,-0.00000287,0.00000233,0.00000274,0.0000
 1719,0.00002580,0.00000448,-0.00000284,0.00001822,0.00000528,0.0000057
 4,-0.00000878,-0.00000013,-0.00002163,-0.00002796,-0.00000338,-0.00037
 927,-0.00016138,-0.00144541,0.00012698,0.00041796,-0.00039667,-0.00013
 908,-0.00018439,-0.00004212,0.00019320,0.00061225,-0.00041795,-0.09846
 074,-0.10471160,0.05962314,0.00724445,0.00388101,-0.00494497,-0.024044
 61,-0.01115718,0.01418135,0.10334654,0.10759635,0.00023115,0.00082608,
 -0.00018276,0.00000872,0.00005748,-0.00006381,-0.00058359,-0.00043705,
 -0.00029474,-0.00003385,0.00006403,-0.00001238,-0.00004608,0.00015411,
 0.00011915,-0.00023572,-0.00023300,0.00000431,-0.00000472,0.00001369,0
 .00001017,-0.00001232,0.00000079,-0.00001150,0.00017541,0.00006561,-0.
 00001306,0.00003070,-0.00018326,0.00003768,0.00009175,-0.00002447,0.00
 005722,-0.00001979,0.00000612,-0.00000456,-0.00002128,0.00000201,-0.00
 000702,0.00159020,0.00040829,0.00079666,0.00009307,0.00006686,0.000248
 54,-0.00018599,0.00025879,-0.00019345,-0.00001063,-0.00032434,-0.00004
 599,0.02704962,0.01400328,-0.02091703,-0.00004517,-0.00003880,0.000013
 48,-0.00000051,0.00000003,0.00000063,0.00001776,-0.00001421,-0.0000157
 6,0.00000615,0.00000111,-0.00001009,-0.00000895,0.00001618,-0.00004357
 ,-0.00000183,-0.00000868,0.00000765,-0.00000257,0.00000183,0.00000486,
 0.00000574,0.00000338,0.00000977,-0.00172571,-0.00329904,-0.00547109,-
 0.00014748,0.00000991,0.00006069,0.00008574,-0.00013285,0.00021259,0.0
 0143204,0.00094831,-0.00087027,0.09134908,0.05337645,-0.10651345,-0.01
 057502,-0.00721866,0.00848437,-0.00112281,-0.00004117,0.00130132,-0.10
 738311,-0.05832881,0.12330144\\0.00000282,0.,-0.00001056,-0.00000607,-
 0.00000343,0.00001470,-0.00000607,0.00000342,0.00001470,-0.00000481,0.
 00000169,0.00003019,-0.00000481,-0.00000169,0.00003019,0.00001019,0.,0
 .00003392,-0.00000220,0.00000054,0.00003460,-0.00000220,-0.00000054,0.
 00003460,-0.00000738,0.,0.00005105,-0.00000495,0.,0.00000826,-0.000008
 03,0.00000002,0.00000328,-0.00001702,-0.00000017,0.00000422,-0.0000015
 6,0.00000039,0.00000916,-0.00000803,-0.00000002,0.00000328,-0.00001702
 ,0.00000017,0.00000422,-0.00000156,-0.00000039,0.00000916,0.00000312,0
 .00000041,-0.00000941,0.00000312,-0.00000040,-0.00000941,-0.00000764,0
 .00000022,-0.00002054,-0.00000241,-0.00000030,-0.00003104,-0.00000719,
 0.00000034,-0.00001813,-0.00001773,-0.00000004,-0.00002079,0.00001358,
 0.00000119,-0.00001028,0.00001623,-0.00000025,-0.00000743,0.00001986,-
 0.00000081,-0.00001928,0.00002152,-0.00000017,-0.00000061,-0.00000764,
 -0.00000022,-0.00002054,-0.00000719,-0.00000034,-0.00001813,-0.0000024
 1,0.00000030,-0.00003104,-0.00001773,0.00000004,-0.00002079,0.00001358
 ,-0.00000119,-0.00001028,0.00001986,0.00000081,-0.00001928,0.00001623,
 0.00000025,-0.00000743,0.00002152,0.00000017,-0.00000061\\\@
 The archive entry for this job was punched.


 EXPERIENCE IS A WONDERFUL THING.  IT ENABLES
 YOU TO RECOGNIZE A MISTAKE WHEN YOU MAKE IT AGAIN.
           - BACK OF A SUGAR PACKET
 Job cpu time:       2 days 12 hours 57 minutes 45.3 seconds.
 Elapsed time:       0 days  8 hours  2 minutes 50.0 seconds.
 File lengths (MBytes):  RWF=   1452 Int=      0 D2E=      0 Chk=     58 Scr=      1
 Normal termination of Gaussian 16 at Wed Mar  6 16:20:29 2024.
