 Entering Gaussian System, Link 0=/cm/shared/apps//g16/g16
 Input=ZPtMe.gjf
 Output=ZPtMe.log
 Initial command:
 /cm/shared/apps//g16/l1.exe "/local/mvanvleet/pbs.14111.josephine/Gau-3923897.inp" -scrdir="/local/mvanvleet/pbs.14111.josephine/"
 Entering Link 1 = /cm/shared/apps//g16/l1.exe PID=   3923901.
  
 Copyright (c) 1988-2019, Gaussian, Inc.  All Rights Reserved.
  
 This is part of the Gaussian(R) 16 program.  It is based on
 the Gaussian(R) 09 system (copyright 2009, Gaussian, Inc.),
 the Gaussian(R) 03 system (copyright 2003, Gaussian, Inc.),
 the Gaussian(R) 98 system (copyright 1998, Gaussian, Inc.),
 the Gaussian(R) 94 system (copyright 1995, Gaussian, Inc.),
 the Gaussian 92(TM) system (copyright 1992, Gaussian, Inc.),
 the Gaussian 90(TM) system (copyright 1990, Gaussian, Inc.),
 the Gaussian 88(TM) system (copyright 1988, Gaussian, Inc.),
 the Gaussian 86(TM) system (copyright 1986, Carnegie Mellon
 University), and the Gaussian 82(TM) system (copyright 1983,
 Carnegie Mellon University). Gaussian is a federally registered
 trademark of Gaussian, Inc.
  
 This software contains proprietary and confidential information,
 including trade secrets, belonging to Gaussian, Inc.
  
 This software is provided under written license and may be
 used, copied, transmitted, or stored only in accord with that
 written license.
  
 The following legend is applicable only to US Government
 contracts under FAR:
  
                    RESTRICTED RIGHTS LEGEND
  
 Use, reproduction and disclosure by the US Government is
 subject to restrictions as set forth in subparagraphs (a)
 and (c) of the Commercial Computer Software - Restricted
 Rights clause in FAR 52.227-19.
  
 Gaussian, Inc.
 340 Quinnipiac St., Bldg. 40, Wallingford CT 06492
  
  
 ---------------------------------------------------------------
 Warning -- This program may not be used in any manner that
 competes with the business of Gaussian, Inc. or will provide
 assistance to any competitor of Gaussian, Inc.  The licensee
 of this program is prohibited from giving any competitor of
 Gaussian, Inc. access to this program.  By using this program,
 the user acknowledges that Gaussian, Inc. is engaged in the
 business of creating and licensing software in the field of
 computational chemistry and represents and warrants to the
 licensee that it is not a competitor of Gaussian, Inc. and that
 it will not use this program in any manner prohibited above.
 ---------------------------------------------------------------
  

 Cite this work as:
 Gaussian 16, Revision C.01,
 M. J. Frisch, G. W. Trucks, H. B. Schlegel, G. E. Scuseria, 
 M. A. Robb, J. R. Cheeseman, G. Scalmani, V. Barone, 
 G. A. Petersson, H. Nakatsuji, X. Li, M. Caricato, A. V. Marenich, 
 J. Bloino, B. G. Janesko, R. Gomperts, B. Mennucci, H. P. Hratchian, 
 J. V. Ortiz, A. F. Izmaylov, J. L. Sonnenberg, D. Williams-Young, 
 F. Ding, F. Lipparini, F. Egidi, J. Goings, B. Peng, A. Petrone, 
 T. Henderson, D. Ranasinghe, V. G. Zakrzewski, J. Gao, N. Rega, 
 G. Zheng, W. Liang, M. Hada, M. Ehara, K. Toyota, R. Fukuda, 
 J. Hasegawa, M. Ishida, T. Nakajima, Y. Honda, O. Kitao, H. Nakai, 
 T. Vreven, K. Throssell, J. A. Montgomery, Jr., J. E. Peralta, 
 F. Ogliaro, M. J. Bearpark, J. J. Heyd, E. N. Brothers, K. N. Kudin, 
 V. N. Staroverov, T. A. Keith, R. Kobayashi, J. Normand, 
 K. Raghavachari, A. P. Rendell, J. C. Burant, S. S. Iyengar, 
 J. Tomasi, M. Cossi, J. M. Millam, M. Klene, C. Adamo, R. Cammi, 
 J. W. Ochterski, R. L. Martin, K. Morokuma, O. Farkas, 
 J. B. Foresman, and D. J. Fox, Gaussian, Inc., Wallingford CT, 2019.
 
 ******************************************
 Gaussian 16:  ES64L-G16RevC.01  3-Jul-2019
                11-Mar-2024 
 ******************************************
 %nprocshared=8
 Will use up to    8 processors via shared memory.
 %chk=ZPtMe.chk
 %mem=1GB
 ----------------------------------------------------------
 # wb97xd def2TZVPP SCRF=(solvent=dichloromethane) opt freq
 ----------------------------------------------------------
 1/18=20,19=15,26=3,38=1/1,3;
 2/9=110,12=2,17=6,18=5,40=1/2;
 3/5=44,7=202,11=2,25=1,30=1,70=2201,71=1,72=9,74=-58/1,2,3;
 4//1;
 5/5=2,38=5,53=9/2;
 6/7=2,8=2,9=2,10=2,28=1/1;
 7//1,2,3,16;
 1/18=20,19=15,26=3/3(2);
 2/9=110/2;
 99//99;
 2/9=110/2;
 3/5=44,7=202,11=2,25=1,30=1,70=2205,71=1,72=9,74=-58/1,2,3;
 4/5=5,16=3,69=1/1;
 5/5=2,38=5,53=9/2;
 7//1,2,3,16;
 1/18=20,19=15,26=3/3(-5);
 2/9=110/2;
 6/7=2,8=2,9=2,10=2,19=2,28=1/1;
 99/9=1/99;
 -----
 ZPtMe
 -----
 Symbolic Z-matrix:
 Charge =  0 Multiplicity = 1
 Pt                   -0.92073  -0.00004  -0.03073 
 C                     1.6969    1.17057  -0.3508 
 C                     1.69698  -1.17048  -0.35074 
 C                     3.02832   1.22919  -0.09851 
 C                     3.0284   -1.229    -0.09845 
 C                     3.80668   0.00012   0.04128 
 H                     3.54761   2.1724    0.00305 
 H                     3.54776  -2.17217   0.00316 
 O                     5.01452   0.00017   0.26951 
 N                     1.04709   0.00002  -0.4891 
 C                     0.75491   2.32644  -0.5767 
 H                     0.5893    2.42093  -1.65031 
 H                     1.15747   3.27213  -0.20886 
 C                     0.75507  -2.32643  -0.5766 
 H                     0.5895   -2.42099  -1.65022 
 H                     1.15768  -3.27207  -0.2087 
 N                    -0.59454   2.08089   0.04937 
 N                    -0.59443  -2.08095   0.04937 
 C                    -2.92577  -0.00005   0.49894 
 H                    -3.57072  -0.00003  -0.38838 
 H                    -3.22039  -0.87316   1.09425 
 H                    -3.22037   0.87305   1.09429 
 C                    -1.60723   2.90239  -0.63389 
 H                    -2.57014   2.75159  -0.153 
 H                    -1.33627   3.96161  -0.58369 
 H                    -1.68104   2.59314  -1.67325 
 C                    -0.53138   2.47499   1.47284 
 H                    -0.34092   3.54982   1.55259 
 H                    -1.47387   2.2347    1.95702 
 H                     0.27251   1.93117   1.96323 
 C                    -1.60702  -2.90251  -0.63397 
 H                    -1.33599  -3.96171  -0.58375 
 H                    -2.56997  -2.75179  -0.15315 
 H                    -1.68077  -2.59326  -1.67333 
 C                    -0.53134  -2.47505   1.47285 
 H                    -1.47388  -2.23481   1.95696 
 H                    -0.34083  -3.54988   1.55261 
 H                     0.27249  -1.9312    1.9633 
 

 GradGradGradGradGradGradGradGradGradGradGradGradGradGradGradGradGradGrad
 Berny optimization.
 Initialization pass.
                           ----------------------------
                           !    Initial Parameters    !
                           ! (Angstroms and Degrees)  !
 --------------------------                            --------------------------
 ! Name  Definition              Value          Derivative Info.                !
 --------------------------------------------------------------------------------
 ! R1    R(1,10)                 2.0205         estimate D2E/DX2                !
 ! R2    R(1,17)                 2.1079         estimate D2E/DX2                !
 ! R3    R(1,18)                 2.1079         estimate D2E/DX2                !
 ! R4    R(1,19)                 2.0738         estimate D2E/DX2                !
 ! R5    R(2,4)                  1.3564         estimate D2E/DX2                !
 ! R6    R(2,10)                 1.3459         estimate D2E/DX2                !
 ! R7    R(2,11)                 1.5081         estimate D2E/DX2                !
 ! R8    R(3,5)                  1.3564         estimate D2E/DX2                !
 ! R9    R(3,10)                 1.3459         estimate D2E/DX2                !
 ! R10   R(3,14)                 1.5081         estimate D2E/DX2                !
 ! R11   R(4,6)                  1.4615         estimate D2E/DX2                !
 ! R12   R(4,7)                  1.0815         estimate D2E/DX2                !
 ! R13   R(5,6)                  1.4615         estimate D2E/DX2                !
 ! R14   R(5,8)                  1.0815         estimate D2E/DX2                !
 ! R15   R(6,9)                  1.2292         estimate D2E/DX2                !
 ! R16   R(11,12)                1.0904         estimate D2E/DX2                !
 ! R17   R(11,13)                1.0916         estimate D2E/DX2                !
 ! R18   R(11,17)                1.5077         estimate D2E/DX2                !
 ! R19   R(14,15)                1.0904         estimate D2E/DX2                !
 ! R20   R(14,16)                1.0916         estimate D2E/DX2                !
 ! R21   R(14,18)                1.5077         estimate D2E/DX2                !
 ! R22   R(17,23)                1.4722         estimate D2E/DX2                !
 ! R23   R(17,27)                1.4784         estimate D2E/DX2                !
 ! R24   R(18,31)                1.4722         estimate D2E/DX2                !
 ! R25   R(18,35)                1.4784         estimate D2E/DX2                !
 ! R26   R(19,20)                1.0969         estimate D2E/DX2                !
 ! R27   R(19,21)                1.0971         estimate D2E/DX2                !
 ! R28   R(19,22)                1.0971         estimate D2E/DX2                !
 ! R29   R(23,24)                1.0868         estimate D2E/DX2                !
 ! R30   R(23,25)                1.0945         estimate D2E/DX2                !
 ! R31   R(23,26)                1.0869         estimate D2E/DX2                !
 ! R32   R(27,28)                1.0945         estimate D2E/DX2                !
 ! R33   R(27,29)                1.0865         estimate D2E/DX2                !
 ! R34   R(27,30)                1.0874         estimate D2E/DX2                !
 ! R35   R(31,32)                1.0945         estimate D2E/DX2                !
 ! R36   R(31,33)                1.0868         estimate D2E/DX2                !
 ! R37   R(31,34)                1.0869         estimate D2E/DX2                !
 ! R38   R(35,36)                1.0865         estimate D2E/DX2                !
 ! R39   R(35,37)                1.0945         estimate D2E/DX2                !
 ! R40   R(35,38)                1.0874         estimate D2E/DX2                !
 ! A1    A(10,1,17)             81.8295         estimate D2E/DX2                !
 ! A2    A(10,1,18)             81.8296         estimate D2E/DX2                !
 ! A3    A(17,1,18)            161.6593         estimate D2E/DX2                !
 ! A4    A(17,1,19)             98.0431         estimate D2E/DX2                !
 ! A5    A(18,1,19)             98.0452         estimate D2E/DX2                !
 ! A6    A(4,2,10)             122.0464         estimate D2E/DX2                !
 ! A7    A(4,2,11)             127.4346         estimate D2E/DX2                !
 ! A8    A(10,2,11)            110.4634         estimate D2E/DX2                !
 ! A9    A(5,3,10)             122.0462         estimate D2E/DX2                !
 ! A10   A(5,3,14)             127.4346         estimate D2E/DX2                !
 ! A11   A(10,3,14)            110.4636         estimate D2E/DX2                !
 ! A12   A(2,4,6)              120.2796         estimate D2E/DX2                !
 ! A13   A(2,4,7)              121.7684         estimate D2E/DX2                !
 ! A14   A(6,4,7)              117.9518         estimate D2E/DX2                !
 ! A15   A(3,5,6)              120.2798         estimate D2E/DX2                !
 ! A16   A(3,5,8)              121.7683         estimate D2E/DX2                !
 ! A17   A(6,5,8)              117.9517         estimate D2E/DX2                !
 ! A18   A(4,6,5)              114.4877         estimate D2E/DX2                !
 ! A19   A(4,6,9)              122.7546         estimate D2E/DX2                !
 ! A20   A(5,6,9)              122.7547         estimate D2E/DX2                !
 ! A21   A(1,10,2)             116.546          estimate D2E/DX2                !
 ! A22   A(1,10,3)             116.546          estimate D2E/DX2                !
 ! A23   A(2,10,3)             120.8402         estimate D2E/DX2                !
 ! A24   A(2,11,12)            107.9847         estimate D2E/DX2                !
 ! A25   A(2,11,13)            112.5293         estimate D2E/DX2                !
 ! A26   A(2,11,17)            111.8406         estimate D2E/DX2                !
 ! A27   A(12,11,13)           108.2222         estimate D2E/DX2                !
 ! A28   A(12,11,17)           106.679          estimate D2E/DX2                !
 ! A29   A(13,11,17)           109.3427         estimate D2E/DX2                !
 ! A30   A(3,14,15)            107.9845         estimate D2E/DX2                !
 ! A31   A(3,14,16)            112.5296         estimate D2E/DX2                !
 ! A32   A(3,14,18)            111.8415         estimate D2E/DX2                !
 ! A33   A(15,14,16)           108.2221         estimate D2E/DX2                !
 ! A34   A(15,14,18)           106.6778         estimate D2E/DX2                !
 ! A35   A(16,14,18)           109.3428         estimate D2E/DX2                !
 ! A36   A(1,17,11)            106.4693         estimate D2E/DX2                !
 ! A37   A(1,17,23)            115.265          estimate D2E/DX2                !
 ! A38   A(1,17,27)            107.8402         estimate D2E/DX2                !
 ! A39   A(11,17,23)           109.3955         estimate D2E/DX2                !
 ! A40   A(11,17,27)           108.5518         estimate D2E/DX2                !
 ! A41   A(23,17,27)           109.1185         estimate D2E/DX2                !
 ! A42   A(1,18,14)            106.4697         estimate D2E/DX2                !
 ! A43   A(1,18,31)            115.2656         estimate D2E/DX2                !
 ! A44   A(1,18,35)            107.84           estimate D2E/DX2                !
 ! A45   A(14,18,31)           109.3942         estimate D2E/DX2                !
 ! A46   A(14,18,35)           108.5518         estimate D2E/DX2                !
 ! A47   A(31,18,35)           109.1189         estimate D2E/DX2                !
 ! A48   A(1,19,20)            111.2145         estimate D2E/DX2                !
 ! A49   A(1,19,21)            113.469          estimate D2E/DX2                !
 ! A50   A(1,19,22)            113.4675         estimate D2E/DX2                !
 ! A51   A(20,19,21)           106.3238         estimate D2E/DX2                !
 ! A52   A(20,19,22)           106.3239         estimate D2E/DX2                !
 ! A53   A(21,19,22)           105.4733         estimate D2E/DX2                !
 ! A54   A(17,23,24)           109.0672         estimate D2E/DX2                !
 ! A55   A(17,23,25)           110.3927         estimate D2E/DX2                !
 ! A56   A(17,23,26)           109.3761         estimate D2E/DX2                !
 ! A57   A(24,23,25)           109.4707         estimate D2E/DX2                !
 ! A58   A(24,23,26)           108.8734         estimate D2E/DX2                !
 ! A59   A(25,23,26)           109.6353         estimate D2E/DX2                !
 ! A60   A(17,27,28)           109.8391         estimate D2E/DX2                !
 ! A61   A(17,27,29)           109.4553         estimate D2E/DX2                !
 ! A62   A(17,27,30)           109.4203         estimate D2E/DX2                !
 ! A63   A(28,27,29)           109.6133         estimate D2E/DX2                !
 ! A64   A(28,27,30)           109.2452         estimate D2E/DX2                !
 ! A65   A(29,27,30)           109.2523         estimate D2E/DX2                !
 ! A66   A(18,31,32)           110.3924         estimate D2E/DX2                !
 ! A67   A(18,31,33)           109.0678         estimate D2E/DX2                !
 ! A68   A(18,31,34)           109.3761         estimate D2E/DX2                !
 ! A69   A(32,31,33)           109.4706         estimate D2E/DX2                !
 ! A70   A(32,31,34)           109.6352         estimate D2E/DX2                !
 ! A71   A(33,31,34)           108.8734         estimate D2E/DX2                !
 ! A72   A(18,35,36)           109.4551         estimate D2E/DX2                !
 ! A73   A(18,35,37)           109.8389         estimate D2E/DX2                !
 ! A74   A(18,35,38)           109.4205         estimate D2E/DX2                !
 ! A75   A(36,35,37)           109.6134         estimate D2E/DX2                !
 ! A76   A(36,35,38)           109.2524         estimate D2E/DX2                !
 ! A77   A(37,35,38)           109.2452         estimate D2E/DX2                !
 ! A78   L(10,1,19,17,-1)      179.8726         estimate D2E/DX2                !
 ! A79   L(10,1,19,17,-2)      181.6974         estimate D2E/DX2                !
 ! D1    D(17,1,10,2)            9.3725         estimate D2E/DX2                !
 ! D2    D(17,1,10,3)          162.2683         estimate D2E/DX2                !
 ! D3    D(18,1,10,2)         -162.271          estimate D2E/DX2                !
 ! D4    D(18,1,10,3)           -9.3753         estimate D2E/DX2                !
 ! D5    D(10,1,17,11)          12.8141         estimate D2E/DX2                !
 ! D6    D(10,1,17,23)         134.3107         estimate D2E/DX2                !
 ! D7    D(10,1,17,27)        -103.5247         estimate D2E/DX2                !
 ! D8    D(18,1,17,11)          40.0188         estimate D2E/DX2                !
 ! D9    D(18,1,17,23)         161.5154         estimate D2E/DX2                !
 ! D10   D(18,1,17,27)         -76.32           estimate D2E/DX2                !
 ! D11   D(19,1,17,11)        -168.8833         estimate D2E/DX2                !
 ! D12   D(19,1,17,23)         -47.3868         estimate D2E/DX2                !
 ! D13   D(19,1,17,27)          74.7778         estimate D2E/DX2                !
 ! D14   D(10,1,18,14)         -12.8105         estimate D2E/DX2                !
 ! D15   D(10,1,18,31)        -134.3061         estimate D2E/DX2                !
 ! D16   D(10,1,18,35)         103.5285         estimate D2E/DX2                !
 ! D17   D(17,1,18,14)         -40.0152         estimate D2E/DX2                !
 ! D18   D(17,1,18,31)        -161.5108         estimate D2E/DX2                !
 ! D19   D(17,1,18,35)          76.3238         estimate D2E/DX2                !
 ! D20   D(19,1,18,14)         168.8871         estimate D2E/DX2                !
 ! D21   D(19,1,18,31)          47.3915         estimate D2E/DX2                !
 ! D22   D(19,1,18,35)         -74.7739         estimate D2E/DX2                !
 ! D23   D(17,1,19,20)          94.4157         estimate D2E/DX2                !
 ! D24   D(17,1,19,21)        -145.7683         estimate D2E/DX2                !
 ! D25   D(17,1,19,22)         -25.3995         estimate D2E/DX2                !
 ! D26   D(18,1,19,20)         -94.4196         estimate D2E/DX2                !
 ! D27   D(18,1,19,21)          25.3964         estimate D2E/DX2                !
 ! D28   D(18,1,19,22)         145.7652         estimate D2E/DX2                !
 ! D29   D(10,2,4,6)            -0.4052         estimate D2E/DX2                !
 ! D30   D(10,2,4,7)           179.4456         estimate D2E/DX2                !
 ! D31   D(11,2,4,6)          -177.4281         estimate D2E/DX2                !
 ! D32   D(11,2,4,7)             2.4227         estimate D2E/DX2                !
 ! D33   D(4,2,10,1)           153.1771         estimate D2E/DX2                !
 ! D34   D(4,2,10,3)             1.5169         estimate D2E/DX2                !
 ! D35   D(11,2,10,1)          -29.3458         estimate D2E/DX2                !
 ! D36   D(11,2,10,3)          178.994          estimate D2E/DX2                !
 ! D37   D(4,2,11,12)          100.7439         estimate D2E/DX2                !
 ! D38   D(4,2,11,13)          -18.6353         estimate D2E/DX2                !
 ! D39   D(4,2,11,17)         -142.1786         estimate D2E/DX2                !
 ! D40   D(10,2,11,12)         -76.5628         estimate D2E/DX2                !
 ! D41   D(10,2,11,13)         164.0579         estimate D2E/DX2                !
 ! D42   D(10,2,11,17)          40.5146         estimate D2E/DX2                !
 ! D43   D(10,3,5,6)             0.4048         estimate D2E/DX2                !
 ! D44   D(10,3,5,8)          -179.445          estimate D2E/DX2                !
 ! D45   D(14,3,5,6)           177.4267         estimate D2E/DX2                !
 ! D46   D(14,3,5,8)            -2.4231         estimate D2E/DX2                !
 ! D47   D(5,3,10,1)          -153.1769         estimate D2E/DX2                !
 ! D48   D(5,3,10,2)            -1.5167         estimate D2E/DX2                !
 ! D49   D(14,3,10,1)           29.3469         estimate D2E/DX2                !
 ! D50   D(14,3,10,2)         -178.993          estimate D2E/DX2                !
 ! D51   D(5,3,14,15)         -100.7419         estimate D2E/DX2                !
 ! D52   D(5,3,14,16)           18.6374         estimate D2E/DX2                !
 ! D53   D(5,3,14,18)          142.1817         estimate D2E/DX2                !
 ! D54   D(10,3,14,15)          76.564          estimate D2E/DX2                !
 ! D55   D(10,3,14,16)        -164.0567         estimate D2E/DX2                !
 ! D56   D(10,3,14,18)         -40.5124         estimate D2E/DX2                !
 ! D57   D(2,4,6,5)             -0.6358         estimate D2E/DX2                !
 ! D58   D(2,4,6,9)            179.9823         estimate D2E/DX2                !
 ! D59   D(7,4,6,5)            179.5078         estimate D2E/DX2                !
 ! D60   D(7,4,6,9)              0.1259         estimate D2E/DX2                !
 ! D61   D(3,5,6,4)              0.6359         estimate D2E/DX2                !
 ! D62   D(3,5,6,9)           -179.9821         estimate D2E/DX2                !
 ! D63   D(8,5,6,4)           -179.5086         estimate D2E/DX2                !
 ! D64   D(8,5,6,9)             -0.1266         estimate D2E/DX2                !
 ! D65   D(2,11,17,1)          -31.402          estimate D2E/DX2                !
 ! D66   D(2,11,17,23)        -156.5665         estimate D2E/DX2                !
 ! D67   D(2,11,17,27)          84.4594         estimate D2E/DX2                !
 ! D68   D(12,11,17,1)          86.4593         estimate D2E/DX2                !
 ! D69   D(12,11,17,23)        -38.7052         estimate D2E/DX2                !
 ! D70   D(12,11,17,27)       -157.6794         estimate D2E/DX2                !
 ! D71   D(13,11,17,1)        -156.7239         estimate D2E/DX2                !
 ! D72   D(13,11,17,23)         78.1116         estimate D2E/DX2                !
 ! D73   D(13,11,17,27)        -40.8626         estimate D2E/DX2                !
 ! D74   D(3,14,18,1)           31.3979         estimate D2E/DX2                !
 ! D75   D(3,14,18,31)         156.5625         estimate D2E/DX2                !
 ! D76   D(3,14,18,35)         -84.4635         estimate D2E/DX2                !
 ! D77   D(15,14,18,1)         -86.463          estimate D2E/DX2                !
 ! D78   D(15,14,18,31)         38.7017         estimate D2E/DX2                !
 ! D79   D(15,14,18,35)        157.6756         estimate D2E/DX2                !
 ! D80   D(16,14,18,1)         156.7209         estimate D2E/DX2                !
 ! D81   D(16,14,18,31)        -78.1144         estimate D2E/DX2                !
 ! D82   D(16,14,18,35)         40.8595         estimate D2E/DX2                !
 ! D83   D(1,17,23,24)          62.3466         estimate D2E/DX2                !
 ! D84   D(1,17,23,25)        -177.3387         estimate D2E/DX2                !
 ! D85   D(1,17,23,26)         -56.624          estimate D2E/DX2                !
 ! D86   D(11,17,23,24)       -177.752          estimate D2E/DX2                !
 ! D87   D(11,17,23,25)        -57.4373         estimate D2E/DX2                !
 ! D88   D(11,17,23,26)         63.2774         estimate D2E/DX2                !
 ! D89   D(27,17,23,24)        -59.1295         estimate D2E/DX2                !
 ! D90   D(27,17,23,25)         61.1852         estimate D2E/DX2                !
 ! D91   D(27,17,23,26)       -178.1001         estimate D2E/DX2                !
 ! D92   D(1,17,27,28)         178.7934         estimate D2E/DX2                !
 ! D93   D(1,17,27,29)         -60.8151         estimate D2E/DX2                !
 ! D94   D(1,17,27,30)          58.8763         estimate D2E/DX2                !
 ! D95   D(11,17,27,28)         63.8227         estimate D2E/DX2                !
 ! D96   D(11,17,27,29)       -175.7859         estimate D2E/DX2                !
 ! D97   D(11,17,27,30)        -56.0944         estimate D2E/DX2                !
 ! D98   D(23,17,27,28)        -55.3257         estimate D2E/DX2                !
 ! D99   D(23,17,27,29)         65.0658         estimate D2E/DX2                !
 ! D100  D(23,17,27,30)       -175.2427         estimate D2E/DX2                !
 ! D101  D(1,18,31,32)         177.3382         estimate D2E/DX2                !
 ! D102  D(1,18,31,33)         -62.3472         estimate D2E/DX2                !
 ! D103  D(1,18,31,34)          56.6238         estimate D2E/DX2                !
 ! D104  D(14,18,31,32)         57.4369         estimate D2E/DX2                !
 ! D105  D(14,18,31,33)        177.7515         estimate D2E/DX2                !
 ! D106  D(14,18,31,34)        -63.2776         estimate D2E/DX2                !
 ! D107  D(35,18,31,32)        -61.1852         estimate D2E/DX2                !
 ! D108  D(35,18,31,33)         59.1295         estimate D2E/DX2                !
 ! D109  D(35,18,31,34)        178.1004         estimate D2E/DX2                !
 ! D110  D(1,18,35,36)          60.8149         estimate D2E/DX2                !
 ! D111  D(1,18,35,37)        -178.7937         estimate D2E/DX2                !
 ! D112  D(1,18,35,38)         -58.8766         estimate D2E/DX2                !
 ! D113  D(14,18,35,36)        175.7861         estimate D2E/DX2                !
 ! D114  D(14,18,35,37)        -63.8225         estimate D2E/DX2                !
 ! D115  D(14,18,35,38)         56.0946         estimate D2E/DX2                !
 ! D116  D(31,18,35,36)        -65.0669         estimate D2E/DX2                !
 ! D117  D(31,18,35,37)         55.3245         estimate D2E/DX2                !
 ! D118  D(31,18,35,38)        175.2416         estimate D2E/DX2                !
 --------------------------------------------------------------------------------
 Trust Radius=3.00D-01 FncErr=1.00D-07 GrdErr=1.00D-06 EigMax=2.50D+02 EigMin=1.00D-04
 Number of steps in this run=    228 maximum allowed number of steps=    228.
 GradGradGradGradGradGradGradGradGradGradGradGradGradGradGradGradGradGrad

                          Input orientation:                          
 ---------------------------------------------------------------------
 Center     Atomic      Atomic             Coordinates (Angstroms)
 Number     Number       Type             X           Y           Z
 ---------------------------------------------------------------------
      1         78           0       -0.920729   -0.000035   -0.030727
      2          6           0        1.696903    1.170568   -0.350800
      3          6           0        1.696979   -1.170482   -0.350741
      4          6           0        3.028319    1.229188   -0.098513
      5          6           0        3.028399   -1.228998   -0.098447
      6          6           0        3.806676    0.000124    0.041283
      7          1           0        3.547610    2.172396    0.003054
      8          1           0        3.547755   -2.172166    0.003159
      9          8           0        5.014518    0.000170    0.269505
     10          7           0        1.047092    0.000018   -0.489097
     11          6           0        0.754914    2.326440   -0.576695
     12          1           0        0.589300    2.420932   -1.650308
     13          1           0        1.157471    3.272127   -0.208859
     14          6           0        0.755074   -2.326431   -0.576602
     15          1           0        0.589502   -2.420991   -1.650216
     16          1           0        1.157677   -3.272073   -0.208703
     17          7           0       -0.594542    2.080894    0.049365
     18          7           0       -0.594432   -2.080952    0.049373
     19          6           0       -2.925767   -0.000049    0.498935
     20          1           0       -3.570722   -0.000025   -0.388377
     21          1           0       -3.220390   -0.873160    1.094255
     22          1           0       -3.220368    0.873048    1.094288
     23          6           0       -1.607232    2.902386   -0.633891
     24          1           0       -2.570140    2.751588   -0.152998
     25          1           0       -1.336273    3.961606   -0.583686
     26          1           0       -1.681043    2.593140   -1.673252
     27          6           0       -0.531382    2.474986    1.472843
     28          1           0       -0.340919    3.549823    1.552594
     29          1           0       -1.473870    2.234704    1.957016
     30          1           0        0.272510    1.931173    1.963230
     31          6           0       -1.607017   -2.902507   -0.633967
     32          1           0       -1.335985   -3.961708   -0.583749
     33          1           0       -2.569973   -2.751786   -0.153151
     34          1           0       -1.680768   -2.593260   -1.673332
     35          6           0       -0.531343   -2.475047    1.472854
     36          1           0       -1.473876   -2.234814    1.956964
     37          1           0       -0.340831   -3.549876    1.552610
     38          1           0        0.272489   -1.931198    1.963299
 ---------------------------------------------------------------------
                    Distance matrix (angstroms):
                    1          2          3          4          5
     1  Pt   0.000000
     2  C    2.885265   0.000000
     3  C    2.885264   2.341050   0.000000
     4  C    4.136492   1.356375   2.755812   0.000000
     5  C    4.136490   2.755809   1.356376   2.458186   0.000000
     6  C    4.727953   2.444343   2.444345   1.461500   1.461499
     7  H    4.968566   2.134008   3.837296   1.081490   3.442290
     8  H    4.968566   3.837292   2.134007   3.442290   1.081490
     9  O    5.942836   3.572279   3.572282   2.364510   2.364511
    10  N    2.020501   1.345945   1.345944   2.364038   2.364036
    11  C    2.918621   1.508115   3.628637   2.569239   4.247187
    12  H    3.280901   2.116345   3.976692   3.126841   4.656121
    13  H    3.880424   2.174324   4.477496   2.772336   4.875724
    14  C    2.918632   3.628640   1.508117   4.247192   2.569241
    15  H    3.280940   3.976696   2.116344   4.656116   3.126828
    16  H    3.880423   4.477501   2.174329   4.875735   2.772348
    17  N    2.107861   2.497908   3.997824   3.724566   4.909474
    18  N    2.107867   3.997842   2.497921   4.909503   3.724591
    19  C    2.073818   4.843704   4.843722   6.108937   6.108950
    20  H    2.674019   5.396255   5.396301   6.718804   6.718842
    21  H    2.704879   5.517679   5.133900   6.699920   6.371540
    22  H    2.704861   5.133844   5.517647   6.371475   6.699873
    23  C    3.042884   3.741209   5.252260   4.957273   6.232504
    24  H    3.210442   4.554822   5.799141   5.802018   6.869620
    25  H    4.021572   4.128473   5.966004   5.172153   6.799131
    26  H    3.162360   3.896551   5.227324   5.149588   6.266386
    27  C    2.921993   3.161081   4.645480   4.085663   5.372196
    28  H    3.929959   3.665581   5.482426   4.411719   6.075802
    29  H    3.041570   4.063521   5.193777   5.050343   6.040909
    30  H    3.021465   2.821728   4.123571   3.512556   4.672485
    31  C    3.042899   5.252239   3.741192   6.232492   4.957267
    32  H    4.021582   5.965981   4.128451   6.799118   5.172144
    33  H    3.210471   5.799151   4.554826   6.869644   5.802038
    34  H    3.162377   5.227251   3.896501   6.266312   5.149537
    35  C    2.921996   4.645568   3.161140   5.372313   4.085754
    36  H    3.041566   5.193866   4.063573   6.041031   5.050432
    37  H    3.929963   5.482510   3.665642   6.075922   4.411822
    38  H    3.021473   4.123707   2.821815   4.672655   3.512680
                    6          7          8          9         10
     6  C    0.000000
     7  H    2.188000   0.000000
     8  H    2.187998   4.344562   0.000000
     9  O    1.229214   2.634650   2.634649   0.000000
    10  N    2.810090   3.348735   3.348733   4.039300   0.000000
    11  C    3.886759   2.856394   5.326692   4.926643   2.346333
    12  H    4.367299   3.398084   5.708148   5.397066   2.723749
    13  H    4.217447   2.639523   5.949684   5.080487   3.285942
    14  C    3.886761   5.326697   2.856394   4.926645   2.346337
    15  H    4.367285   5.708144   3.398062   5.397047   2.723760
    16  H    4.217459   5.949694   2.639537   5.080500   3.285944
    17  N    4.868305   4.143421   5.937110   5.986604   2.704616
    18  N    4.868336   5.937140   4.143449   5.986639   2.704623
    19  C    6.747980   6.846169   6.846194   7.943599   4.093875
    20  H    7.389899   7.452737   7.452799   8.610410   4.618912
    21  H    7.158983   7.501464   6.977513   8.322057   4.634743
    22  H    7.158922   6.977437   7.501425   8.321991   4.634706
    23  C    6.179756   5.245091   7.261598   7.286052   3.935752
    24  H    6.947811   6.147087   7.854704   8.079347   4.557243
    25  H    6.521798   5.234296   7.862651   7.533489   4.624236
    26  H    6.307014   5.506890   7.270407   7.438302   3.945786
    27  C    5.195484   4.346265   6.355734   6.191102   3.530758
    28  H    5.664536   4.406704   7.089689   6.551874   4.323909
    29  H    6.045457   5.388609   6.960947   7.066825   4.163237
    30  H    4.462416   3.824495   5.604150   5.392969   3.216092
    31  C    6.179749   7.261585   5.245093   7.286050   3.935725
    32  H    6.521790   7.862638   5.234294   7.533486   4.624207
    33  H    6.947839   7.854730   6.147112   8.079381   4.557241
    34  H    6.306948   7.270329   5.506850   7.438236   3.945722
    35  C    5.195602   6.355855   4.346353   6.191229   3.530815
    36  H    6.045578   6.961076   5.388697   7.066960   4.163288
    37  H    5.664664   7.089816   4.406811   6.552019   4.323962
    38  H    4.462581   5.604325   3.824602   5.393140   3.216186
                   11         12         13         14         15
    11  C    0.000000
    12  H    1.090414   0.000000
    13  H    1.091641   1.767803   0.000000
    14  C    4.652871   4.870090   5.625034   0.000000
    15  H    4.870104   4.841923   5.900143   1.090414   0.000000
    16  H    5.625032   5.900134   6.544200   1.091640   1.767802
    17  N    1.507739   2.099046   2.134307   4.651646   4.955553
    18  N    4.651645   4.955512   5.638378   1.507737   2.099030
    19  C    4.485192   4.778712   5.280241   4.485245   4.778800
    20  H    4.915184   4.975870   5.752827   4.915293   4.976020
    21  H    5.369596   5.735626   6.168239   4.550612   4.944004
    22  H    4.550538   4.943918   5.159384   5.369607   5.735687
    23  C    2.432020   2.467722   2.821514   5.737970   5.847812
    24  H    3.378795   3.511884   3.764195   6.084634   6.243442
    25  H    2.654596   2.686855   2.614314   6.626703   6.751566
    26  H    2.684670   2.276980   3.265369   5.598168   5.504309
    27  C    2.424300   3.318572   2.513122   5.376690   5.914429
    28  H    2.689124   3.521120   2.329164   6.345474   6.839174
    29  H    3.375735   4.159824   3.562473   5.673743   6.240603
    30  H    2.615372   3.660311   2.701719   4.981045   5.665581
    31  C    5.737934   5.847714   6.778585   2.432001   2.467654
    32  H    6.626667   6.751471   7.660694   2.654564   2.686757
    33  H    6.084623   6.243356   7.084100   3.378783   3.511824
    34  H    5.598090   5.504168   6.678551   2.684649   2.276914
    35  C    5.376745   5.914439   6.221757   2.424299   3.318551
    36  H    5.673797   6.240599   6.476201   3.375732   4.159800
    37  H    6.345525   6.839179   7.203291   2.689121   3.521079
    38  H    4.981143   5.665647   5.707544   2.615377   3.660312
                   16         17         18         19         20
    16  H    0.000000
    17  N    5.638362   0.000000
    18  N    2.134305   4.161846   0.000000
    19  C    5.280285   3.157063   3.157117   0.000000
    20  H    5.752942   3.657798   3.657893   1.096946   0.000000
    21  H    5.159453   4.088191   3.073466   1.097056   1.755931
    22  H    6.168232   3.073389   4.088215   1.097057   1.755933
    23  C    6.778602   1.472151   5.130913   3.383188   3.512771
    24  H    7.084082   2.096132   5.224731   2.850087   2.937336
    25  H    7.660712   2.118489   6.120752   4.403779   4.552519
    26  H    6.678620   2.100069   5.098558   3.604492   3.456341
    27  C    6.221672   1.478373   4.773554   3.578739   4.339056
    28  H    7.203209   2.117020   5.833487   4.515886   5.176912
    29  H    6.476108   2.106183   4.799729   3.037783   3.858973
    30  H    5.707415   2.106437   4.528972   4.012824   4.902042
    31  C    2.821518   5.130919   1.472153   3.383317   3.512955
    32  H    2.614308   6.120752   2.118487   4.403902   4.552708
    33  H    3.764194   5.224762   2.096138   2.850239   2.937519
    34  H    3.265378   5.098557   2.100071   3.604651   3.456574
    35  C    2.513100   4.773564   1.478374   3.578743   4.339094
    36  H    3.562456   4.799739   2.106181   3.037764   3.858973
    37  H    2.329147   5.833497   2.117020   4.515905   5.176975
    38  H    2.701684   4.528992   2.106440   4.012797   4.902049
                   21         22         23         24         25
    21  H    0.000000
    22  H    1.746208   0.000000
    23  C    4.454606   3.115610   0.000000
    24  H    3.888092   2.346792   1.086826   0.000000
    25  H    5.453471   3.988057   1.094480   1.781029   0.000000
    26  H    4.695095   3.603820   1.086900   1.768268   1.782896
    27  C    4.310937   3.152801   2.403841   2.622289   2.662180
    28  H    5.297566   3.958080   2.608340   2.918159   2.392486
    29  H    3.667902   2.376691   2.678877   2.433338   3.075108
    30  H    4.562867   3.751651   3.349884   3.637604   3.632853
    31  C    3.115762   4.454726   5.804893   5.755669   6.869634
    32  H    3.988209   5.453584   6.869634   6.839373   7.923314
    33  H    2.346977   3.888257   5.755662   5.503374   6.839372
    34  H    3.603986   4.695251   5.593565   5.627593   6.653741
    35  C    3.152833   4.310906   5.874751   5.841045   6.804981
    36  H    2.376695   3.667867   5.755097   5.524304   6.698467
    37  H    3.958126   5.297551   6.929375   6.898360   7.872549
    38  H    3.751651   4.562787   5.800197   5.872626   6.618186
                   26         27         28         29         30
    26  H    0.000000
    27  C    3.351655   0.000000
    28  H    3.621775   1.094491   0.000000
    29  H    3.653798   1.086482   1.782322   0.000000
    30  H    4.180738   1.087407   1.779029   1.772572   0.000000
    31  C    5.593544   5.874783   6.929402   5.755159   5.800217
    32  H    6.653729   6.804997   7.872561   6.698509   6.618187
    33  H    5.627534   5.841135   6.898444   5.524430   5.872724
    34  H    5.186400   6.075082   7.066772   6.044127   6.124571
    35  C    6.075057   4.950033   6.028406   4.827476   4.505710
    36  H    6.044049   4.827513   5.908395   4.469518   4.517228
    37  H    7.066753   6.028402   7.099699   5.908357   5.530524
    38  H    6.124575   4.505687   5.530510   4.517139   3.862371
                   31         32         33         34         35
    31  C    0.000000
    32  H    1.094480   0.000000
    33  H    1.086823   1.781026   0.000000
    34  H    1.086900   1.782895   1.768266   0.000000
    35  C    2.403849   2.662184   2.622306   3.351662   0.000000
    36  H    2.678892   3.075126   2.433367   3.653811   1.086482
    37  H    2.608339   2.392481   2.918157   3.621774   1.094492
    38  H    3.349892   3.632852   3.637625   4.180744   1.087407
                   36         37         38
    36  H    0.000000
    37  H    1.782325   0.000000
    38  H    1.772573   1.779029   0.000000
 Stoichiometry    C12H21N3OPt
 Framework group  C1[X(C12H21N3OPt)]
 Deg. of freedom   108
 Full point group                 C1      NOp   1
 Largest Abelian subgroup         C1      NOp   1
 Largest concise Abelian subgroup C1      NOp   1
                         Standard orientation:                         
 ---------------------------------------------------------------------
 Center     Atomic      Atomic             Coordinates (Angstroms)
 Number     Number       Type             X           Y           Z
 ---------------------------------------------------------------------
      1         78           0        0.914213   -0.000006   -0.068152
      2          6           0       -1.711563   -1.170509   -0.313056
      3          6           0       -1.711547    1.170541   -0.313002
      4          6           0       -3.035202   -1.229077   -0.022707
      5          6           0       -3.035186    1.229109   -0.022647
      6          6           0       -3.809185    0.000017    0.139339
      7          1           0       -3.551405   -2.172265    0.093707
      8          1           0       -3.551380    2.172297    0.093802
      9          8           0       -5.009989    0.000018    0.402090
     10          7           0       -1.065938    0.000016   -0.469926
     11          6           0       -0.776481   -2.326417   -0.565856
     12          1           0       -0.641714   -2.420918   -1.643775
     13          1           0       -1.168365   -3.272088   -0.186629
     14          6           0       -0.776459    2.326454   -0.565773
     15          1           0       -0.641727    2.421005   -1.643692
     16          1           0       -1.168315    3.272112   -0.186488
     17          7           0        0.590376   -2.080922    0.021264
     18          7           0        0.590426    2.080924    0.021262
     19          6           0        2.933610   -0.000068    0.403818
     20          1           0        3.552865   -0.000119   -0.501617
     21          1           0        3.245210    0.873033    0.990446
     22          1           0        3.245122   -0.873175    0.990485
     23          6           0        1.583033   -2.902455   -0.690738
     24          1           0        2.559336   -2.751693   -0.237644
     25          1           0        1.313583   -3.961664   -0.632783
     26          1           0        1.627032   -2.593213   -1.731788
     27          6           0        0.568031   -2.475009    1.445969
     28          1           0        0.379891   -3.549838    1.531150
     29          1           0        1.524019   -2.234762    1.902926
     30          1           0       -0.221453   -1.931164    1.959196
     31          6           0        1.583039    2.902438   -0.690825
     32          1           0        1.313599    3.961650   -0.632862
     33          1           0        2.559376    2.751681   -0.237810
     34          1           0        1.626954    2.593187   -1.731876
     35          6           0        0.568182    2.475024    1.445965
     36          1           0        1.524196    2.234756    1.902859
     37          1           0        0.380076    3.549861    1.531146
     38          1           0       -0.221282    1.931207    1.959252
 ---------------------------------------------------------------------
 Rotational constants (GHZ):           0.5421250           0.3497454           0.2353293
 Standard basis: def2TZVPP (5D, 7F)
 There are   962 symmetry adapted cartesian basis functions of A   symmetry.
 There are   846 symmetry adapted basis functions of A   symmetry.
   846 basis functions,  1273 primitive gaussians,   962 cartesian basis functions
    70 alpha electrons       70 beta electrons
       nuclear repulsion energy      1539.3700534006 Hartrees.
 NAtoms=   38 NActive=   38 NUniq=   38 SFac= 1.00D+00 NAtFMM=   60 NAOKFM=F Big=F
 Integral buffers will be    131072 words long.
 Raffenetti 2 integral format.
 Two-electron integral symmetry is turned on.
 Nuclear repulsion after empirical dispersion term =     1539.3278941695 Hartrees.
 ------------------------------------------------------------------------------
 Polarizable Continuum Model (PCM)
 =================================
 Model                : PCM.
 Atomic radii         : UFF (Universal Force Field).
 Polarization charges : Total charges.
 Charge compensation  : None.
 Solution method      : On-the-fly selection.
 Cavity type          : Scaled VdW (van der Waals Surface) (Alpha=1.100).
 Cavity algorithm     : GePol (No added spheres)
                        Default sphere list used, NSphG=   38.
                        Lebedev-Laikov grids with approx.  5.0 points / Ang**2.
                        Smoothing algorithm: York/Karplus (Gamma=1.0000).
                        Polarization charges: spherical gaussians, with
                                              point-specific exponents (IZeta= 3).
                        Self-potential: point-specific (ISelfS= 7).
                        Self-field    : sphere-specific E.n sum rule (ISelfD= 2).
 1st derivatives      : Analytical E(r).r(x)/FMM algorithm (CHGder, D1EAlg=3).
                        Cavity 1st derivative terms included.
 Solvent              : Dichloromethane, Eps=   8.930000 Eps(inf)=   2.028346
 ------------------------------------------------------------------------------
 One-electron integrals computed using PRISM.
 PrsmSu:  requested number of processors reduced to:   5 ShMem   1 Linda.
   1 Symmetry operations used in ECPInt.
 ECPInt:  NShTT=   50721 NPrTT=  131758 LenC2=   46026 LenP2D=   91195.
 LDataN:  DoStor=T MaxTD1= 9 Len=  602
 NBasis=   846 RedAO= T EigKep=  1.91D-05  NBF=   846
 NBsUse=   846 1.00D-06 EigRej= -1.00D+00 NBFU=   846
 Defaulting to unpruned grid for atomic number  78.
 ExpMin= 4.92D-02 ExpMax= 2.70D+04 ExpMxC= 9.22D+02 IAcc=3 IRadAn=         5 AccDes= 0.00D+00
 Harris functional with IExCor= 4639 and IRadAn=       5 diagonalized for initial guess.
 HarFok:  IExCor= 4639 AccDes= 0.00D+00 IRadAn=         5 IDoV= 1 UseB2=F ITyADJ=14
 ICtDFT=  3500011 ScaDFX=  1.000000  1.000000  1.000000  1.000000
 Defaulting to unpruned grid for atomic number  78.
 FoFCou: FMM=F IPFlag=           0 FMFlag=      100000 FMFlg1=           0
         NFxFlg=           0 DoJE=T BraDBF=F KetDBF=T FulRan=T
         wScrn=  0.000000 ICntrl=       500 IOpCl=  0 I1Cent=   200000004 NGrid=           0
         NMat0=    1 NMatS0=      1 NMatT0=    0 NMatD0=    1 NMtDS0=    0 NMtDT0=    0
 Petite list used in FoFCou.
 Requested convergence on RMS density matrix=1.00D-08 within 128 cycles.
 Requested convergence on MAX density matrix=1.00D-06.
 Requested convergence on             energy=1.00D-06.
 No special actions if energy rises.
 Defaulting to unpruned grid for atomic number  78.
 Defaulting to unpruned grid for atomic number  78.
 Defaulting to unpruned grid for atomic number  78.
 Defaulting to unpruned grid for atomic number  78.
 Defaulting to unpruned grid for atomic number  78.
 Defaulting to unpruned grid for atomic number  78.
 Defaulting to unpruned grid for atomic number  78.
 Defaulting to unpruned grid for atomic number  78.
 Inv3:  Mode=1 IEnd=    19111728.
 Iteration    1 A*A^-1 deviation from unit magnitude is 3.55D-15 for    367.
 Iteration    1 A*A^-1 deviation from orthogonality  is 1.77D-15 for   2227    490.
 Iteration    1 A^-1*A deviation from unit magnitude is 3.33D-15 for    367.
 Iteration    1 A^-1*A deviation from orthogonality  is 1.85D-15 for   1678   1117.
 Error on total polarization charges =  0.01762
 SCF Done:  E(RwB97XD) =  -828.910133626     A.U. after   19 cycles
            NFock= 19  Conv=0.11D-08     -V/T= 2.1107

 **********************************************************************

            Population analysis using the SCF Density.

 **********************************************************************

 Orbital symmetries:
       Occupied  (A) (A) (A) (A) (A) (A) (A) (A) (A) (A) (A) (A)
                 (A) (A) (A) (A) (A) (A) (A) (A) (A) (A) (A) (A)
                 (A) (A) (A) (A) (A) (A) (A) (A) (A) (A) (A) (A)
                 (A) (A) (A) (A) (A) (A) (A) (A) (A) (A) (A) (A)
                 (A) (A) (A) (A) (A) (A) (A) (A) (A) (A) (A) (A)
                 (A) (A) (A) (A) (A) (A) (A) (A) (A) (A)
       Virtual   (A) (A) (A) (A) (A) (A) (A) (A) (A) (A) (A) (A)
                 (A) (A) (A) (A) (A) (A) (A) (A) (A) (A) (A) (A)
                 (A) (A) (A) (A) (A) (A) (A) (A) (A) (A) (A) (A)
                 (A) (A) (A) (A) (A) (A) (A) (A) (A) (A) (A) (A)
                 (A) (A) (A) (A) (A) (A) (A) (A) (A) (A) (A) (A)
                 (A) (A) (A) (A) (A) (A) (A) (A) (A) (A) (A) (A)
                 (A) (A) (A) (A) (A) (A) (A) (A) (A) (A) (A) (A)
                 (A) (A) (A) (A) (A) (A) (A) (A) (A) (A) (A) (A)
                 (A) (A) (A) (A) (A) (A) (A) (A) (A) (A) (A) (A)
                 (A) (A) (A) (A) (A) (A) (A) (A) (A) (A) (A) (A)
                 (A) (A) (A) (A) (A) (A) (A) (A) (A) (A) (A) (A)
                 (A) (A) (A) (A) (A) (A) (A) (A) (A) (A) (A) (A)
                 (A) (A) (A) (A) (A) (A) (A) (A) (A) (A) (A) (A)
                 (A) (A) (A) (A) (A) (A) (A) (A) (A) (A) (A) (A)
                 (A) (A) (A) (A) (A) (A) (A) (A) (A) (A) (A) (A)
                 (A) (A) (A) (A) (A) (A) (A) (A) (A) (A) (A) (A)
                 (A) (A) (A) (A) (A) (A) (A) (A) (A) (A) (A) (A)
                 (A) (A) (A) (A) (A) (A) (A) (A) (A) (A) (A) (A)
                 (A) (A) (A) (A) (A) (A) (A) (A) (A) (A) (A) (A)
                 (A) (A) (A) (A) (A) (A) (A) (A) (A) (A) (A) (A)
                 (A) (A) (A) (A) (A) (A) (A) (A) (A) (A) (A) (A)
                 (A) (A) (A) (A) (A) (A) (A) (A) (A) (A) (A) (A)
                 (A) (A) (A) (A) (A) (A) (A) (A) (A) (A) (A) (A)
                 (A) (A) (A) (A) (A) (A) (A) (A) (A) (A) (A) (A)
                 (A) (A) (A) (A) (A) (A) (A) (A) (A) (A) (A) (A)
                 (A) (A) (A) (A) (A) (A) (A) (A) (A) (A) (A) (A)
                 (A) (A) (A) (A) (A) (A) (A) (A) (A) (A) (A) (A)
                 (A) (A) (A) (A) (A) (A) (A) (A) (A) (A) (A) (A)
                 (A) (A) (A) (A) (A) (A) (A) (A) (A) (A) (A) (A)
                 (A) (A) (A) (A) (A) (A) (A) (A) (A) (A) (A) (A)
                 (A) (A) (A) (A) (A) (A) (A) (A) (A) (A) (A) (A)
                 (A) (A) (A) (A) (A) (A) (A) (A) (A) (A) (A) (A)
                 (A) (A) (A) (A) (A) (A) (A) (A) (A) (A) (A) (A)
                 (A) (A) (A) (A) (A) (A) (A) (A) (A) (A) (A) (A)
                 (A) (A) (A) (A) (A) (A) (A) (A) (A) (A) (A) (A)
                 (A) (A) (A) (A) (A) (A) (A) (A) (A) (A) (A) (A)
                 (A) (A) (A) (A) (A) (A) (A) (A) (A) (A) (A) (A)
                 (A) (A) (A) (A) (A) (A) (A) (A) (A) (A) (A) (A)
                 (A) (A) (A) (A) (A) (A) (A) (A) (A) (A) (A) (A)
                 (A) (A) (A) (A) (A) (A) (A) (A) (A) (A) (A) (A)
                 (A) (A) (A) (A) (A) (A) (A) (A) (A) (A) (A) (A)
                 (A) (A) (A) (A) (A) (A) (A) (A) (A) (A) (A) (A)
                 (A) (A) (A) (A) (A) (A) (A) (A) (A) (A) (A) (A)
                 (A) (A) (A) (A) (A) (A) (A) (A) (A) (A) (A) (A)
                 (A) (A) (A) (A) (A) (A) (A) (A) (A) (A) (A) (A)
                 (A) (A) (A) (A) (A) (A) (A) (A) (A) (A) (A) (A)
                 (A) (A) (A) (A) (A) (A) (A) (A) (A) (A) (A) (A)
                 (A) (A) (A) (A) (A) (A) (A) (A) (A) (A) (A) (A)
                 (A) (A) (A) (A) (A) (A) (A) (A) (A) (A) (A) (A)
                 (A) (A) (A) (A) (A) (A) (A) (A) (A) (A) (A) (A)
                 (A) (A) (A) (A) (A) (A) (A) (A) (A) (A) (A) (A)
                 (A) (A) (A) (A) (A) (A) (A) (A) (A) (A) (A) (A)
                 (A) (A) (A) (A) (A) (A) (A) (A) (A) (A) (A) (A)
                 (A) (A) (A) (A) (A) (A) (A) (A) (A) (A) (A) (A)
                 (A) (A) (A) (A) (A) (A) (A) (A) (A) (A) (A) (A)
                 (A) (A) (A) (A) (A) (A) (A) (A) (A) (A) (A) (A)
                 (A) (A) (A) (A) (A) (A) (A) (A) (A) (A) (A) (A)
                 (A) (A) (A) (A) (A) (A) (A) (A) (A) (A) (A) (A)
                 (A) (A) (A) (A) (A) (A) (A) (A) (A) (A) (A) (A)
                 (A) (A) (A) (A) (A) (A) (A) (A) (A) (A) (A) (A)
                 (A) (A) (A) (A) (A) (A) (A) (A) (A) (A) (A) (A)
                 (A) (A) (A) (A) (A) (A) (A) (A) (A) (A) (A) (A)
                 (A) (A) (A) (A) (A) (A) (A) (A) (A) (A) (A) (A)
                 (A) (A) (A) (A) (A) (A) (A) (A) (A) (A) (A) (A)
                 (A) (A) (A) (A) (A) (A) (A) (A)
 The electronic state is 1-A.
 Alpha  occ. eigenvalues --  -19.18394 -14.51467 -14.51467 -14.44349 -10.34181
 Alpha  occ. eigenvalues --  -10.33530 -10.33530 -10.33160 -10.33157 -10.31837
 Alpha  occ. eigenvalues --  -10.31836 -10.31834 -10.31834 -10.27060 -10.27060
 Alpha  occ. eigenvalues --  -10.23966  -4.01133  -2.25965  -2.25313  -2.22663
 Alpha  occ. eigenvalues --   -1.09943  -1.08300  -1.06946  -1.04782  -0.90763
 Alpha  occ. eigenvalues --   -0.86026  -0.83942  -0.82931  -0.82893  -0.80491
 Alpha  occ. eigenvalues --   -0.74719  -0.73629  -0.72742  -0.70717  -0.66625
 Alpha  occ. eigenvalues --   -0.62165  -0.60721  -0.59594  -0.59099  -0.58319
 Alpha  occ. eigenvalues --   -0.57759  -0.57052  -0.56595  -0.52659  -0.52134
 Alpha  occ. eigenvalues --   -0.51194  -0.50365  -0.49867  -0.49426  -0.48223
 Alpha  occ. eigenvalues --   -0.47994  -0.47904  -0.47284  -0.47014  -0.46751
 Alpha  occ. eigenvalues --   -0.45578  -0.45097  -0.45003  -0.44693  -0.44465
 Alpha  occ. eigenvalues --   -0.43315  -0.38874  -0.34132  -0.33836  -0.32647
 Alpha  occ. eigenvalues --   -0.32406  -0.32008  -0.30960  -0.29860  -0.26688
 Alpha virt. eigenvalues --    0.04588   0.05772   0.07873   0.09462   0.09770
 Alpha virt. eigenvalues --    0.11762   0.12741   0.13887   0.15302   0.15474
 Alpha virt. eigenvalues --    0.15635   0.16011   0.16234   0.16469   0.17014
 Alpha virt. eigenvalues --    0.17130   0.17781   0.17927   0.19087   0.19699
 Alpha virt. eigenvalues --    0.20065   0.21492   0.21502   0.21643   0.21906
 Alpha virt. eigenvalues --    0.22245   0.22268   0.23205   0.23329   0.23531
 Alpha virt. eigenvalues --    0.24315   0.24541   0.25535   0.26470   0.27009
 Alpha virt. eigenvalues --    0.28348   0.28897   0.29974   0.30246   0.30517
 Alpha virt. eigenvalues --    0.31171   0.31773   0.31872   0.32274   0.33412
 Alpha virt. eigenvalues --    0.33675   0.34723   0.34971   0.36048   0.36956
 Alpha virt. eigenvalues --    0.37012   0.37712   0.37736   0.38121   0.38582
 Alpha virt. eigenvalues --    0.40070   0.40099   0.40371   0.41192   0.41377
 Alpha virt. eigenvalues --    0.41962   0.42839   0.43371   0.43791   0.44674
 Alpha virt. eigenvalues --    0.45148   0.45525   0.46180   0.46245   0.46570
 Alpha virt. eigenvalues --    0.46613   0.48198   0.48363   0.48952   0.49201
 Alpha virt. eigenvalues --    0.49440   0.49864   0.50415   0.50415   0.50954
 Alpha virt. eigenvalues --    0.51313   0.51693   0.51696   0.51898   0.51939
 Alpha virt. eigenvalues --    0.52989   0.53191   0.53914   0.54759   0.55007
 Alpha virt. eigenvalues --    0.55258   0.55760   0.55876   0.56399   0.57005
 Alpha virt. eigenvalues --    0.57581   0.58526   0.58693   0.59621   0.59872
 Alpha virt. eigenvalues --    0.59959   0.60972   0.61737   0.62111   0.62908
 Alpha virt. eigenvalues --    0.63141   0.63736   0.65506   0.65587   0.66102
 Alpha virt. eigenvalues --    0.67165   0.67238   0.67941   0.69417   0.69859
 Alpha virt. eigenvalues --    0.70500   0.71788   0.72417   0.72685   0.72925
 Alpha virt. eigenvalues --    0.74402   0.74772   0.75636   0.75831   0.76149
 Alpha virt. eigenvalues --    0.78542   0.80213   0.80974   0.81182   0.81818
 Alpha virt. eigenvalues --    0.81858   0.83505   0.85058   0.85255   0.86070
 Alpha virt. eigenvalues --    0.86101   0.86492   0.87800   0.88871   0.88937
 Alpha virt. eigenvalues --    0.89539   0.90748   0.91598   0.91787   0.93639
 Alpha virt. eigenvalues --    0.93840   0.94208   0.94280   0.94770   0.96357
 Alpha virt. eigenvalues --    0.96824   0.97423   0.97698   0.98430   0.99042
 Alpha virt. eigenvalues --    1.00266   1.01057   1.01549   1.03457   1.03487
 Alpha virt. eigenvalues --    1.03673   1.03988   1.04869   1.05717   1.06213
 Alpha virt. eigenvalues --    1.06415   1.07004   1.07152   1.07424   1.08423
 Alpha virt. eigenvalues --    1.09343   1.09426   1.10561   1.10953   1.11136
 Alpha virt. eigenvalues --    1.11854   1.12332   1.12792   1.13609   1.14170
 Alpha virt. eigenvalues --    1.15601   1.16090   1.16110   1.16351   1.17393
 Alpha virt. eigenvalues --    1.17928   1.19505   1.19786   1.20898   1.21314
 Alpha virt. eigenvalues --    1.23160   1.23562   1.24127   1.24620   1.24710
 Alpha virt. eigenvalues --    1.25436   1.26391   1.27237   1.27550   1.28885
 Alpha virt. eigenvalues --    1.29026   1.29233   1.29949   1.31482   1.31867
 Alpha virt. eigenvalues --    1.32671   1.32980   1.33891   1.34524   1.34591
 Alpha virt. eigenvalues --    1.34965   1.36645   1.37089   1.37188   1.38964
 Alpha virt. eigenvalues --    1.39347   1.39382   1.39944   1.40163   1.42076
 Alpha virt. eigenvalues --    1.42970   1.42990   1.43603   1.43766   1.44104
 Alpha virt. eigenvalues --    1.44231   1.46436   1.46810   1.47264   1.47823
 Alpha virt. eigenvalues --    1.47962   1.48679   1.48836   1.49942   1.50922
 Alpha virt. eigenvalues --    1.51035   1.51980   1.53414   1.53419   1.54638
 Alpha virt. eigenvalues --    1.55169   1.55812   1.55959   1.56292   1.57034
 Alpha virt. eigenvalues --    1.58469   1.59399   1.59823   1.60403   1.60776
 Alpha virt. eigenvalues --    1.61889   1.62290   1.63187   1.63394   1.63522
 Alpha virt. eigenvalues --    1.64262   1.64331   1.66713   1.67020   1.67932
 Alpha virt. eigenvalues --    1.69076   1.69120   1.69571   1.70720   1.71124
 Alpha virt. eigenvalues --    1.72917   1.73123   1.73425   1.74054   1.74817
 Alpha virt. eigenvalues --    1.75255   1.76487   1.76711   1.77743   1.78817
 Alpha virt. eigenvalues --    1.79191   1.80860   1.81699   1.82464   1.83843
 Alpha virt. eigenvalues --    1.84203   1.84386   1.84963   1.85648   1.86029
 Alpha virt. eigenvalues --    1.87709   1.89122   1.89505   1.91609   1.91752
 Alpha virt. eigenvalues --    1.93142   1.93930   1.94503   1.95664   1.95905
 Alpha virt. eigenvalues --    1.97599   1.98159   1.99020   2.00827   2.03483
 Alpha virt. eigenvalues --    2.05046   2.06179   2.07556   2.10214   2.10307
 Alpha virt. eigenvalues --    2.12588   2.14518   2.15047   2.15575   2.18077
 Alpha virt. eigenvalues --    2.20127   2.20771   2.21503   2.23782   2.23961
 Alpha virt. eigenvalues --    2.25779   2.27062   2.27478   2.28068   2.28280
 Alpha virt. eigenvalues --    2.30243   2.30731   2.32857   2.33741   2.35763
 Alpha virt. eigenvalues --    2.36771   2.38528   2.40030   2.41307   2.43807
 Alpha virt. eigenvalues --    2.44151   2.45291   2.48322   2.48871   2.51142
 Alpha virt. eigenvalues --    2.55290   2.56679   2.59601   2.60071   2.61509
 Alpha virt. eigenvalues --    2.61873   2.63270   2.65194   2.65956   2.66270
 Alpha virt. eigenvalues --    2.67358   2.67614   2.68123   2.69252   2.69833
 Alpha virt. eigenvalues --    2.72244   2.72463   2.73645   2.74504   2.74725
 Alpha virt. eigenvalues --    2.75257   2.75520   2.76711   2.77623   2.79317
 Alpha virt. eigenvalues --    2.79806   2.79853   2.83068   2.83754   2.83994
 Alpha virt. eigenvalues --    2.85584   2.85886   2.86029   2.87256   2.88349
 Alpha virt. eigenvalues --    2.89009   2.89712   2.90204   2.90952   2.91508
 Alpha virt. eigenvalues --    2.91694   2.93153   2.93561   2.93663   2.94223
 Alpha virt. eigenvalues --    2.95697   2.96504   2.96702   2.97132   2.97253
 Alpha virt. eigenvalues --    2.97840   2.98209   2.99851   3.00680   3.01353
 Alpha virt. eigenvalues --    3.01448   3.02979   3.03702   3.03918   3.04219
 Alpha virt. eigenvalues --    3.05041   3.05525   3.05865   3.06994   3.07140
 Alpha virt. eigenvalues --    3.07477   3.08168   3.08505   3.08933   3.10428
 Alpha virt. eigenvalues --    3.10708   3.11449   3.12373   3.12905   3.13391
 Alpha virt. eigenvalues --    3.13661   3.14889   3.15279   3.16001   3.16959
 Alpha virt. eigenvalues --    3.17187   3.18127   3.18953   3.19342   3.20890
 Alpha virt. eigenvalues --    3.21743   3.22255   3.22478   3.23947   3.25462
 Alpha virt. eigenvalues --    3.26412   3.27169   3.28140   3.28579   3.28897
 Alpha virt. eigenvalues --    3.29216   3.29640   3.29748   3.30236   3.31320
 Alpha virt. eigenvalues --    3.32347   3.32952   3.33313   3.34047   3.36368
 Alpha virt. eigenvalues --    3.36790   3.37055   3.37893   3.38020   3.38929
 Alpha virt. eigenvalues --    3.40208   3.40461   3.41459   3.42321   3.43835
 Alpha virt. eigenvalues --    3.44259   3.44830   3.45596   3.45665   3.46382
 Alpha virt. eigenvalues --    3.47481   3.48098   3.48104   3.48405   3.48789
 Alpha virt. eigenvalues --    3.49217   3.49895   3.51226   3.51402   3.52075
 Alpha virt. eigenvalues --    3.52432   3.53068   3.53537   3.54390   3.54806
 Alpha virt. eigenvalues --    3.55562   3.56745   3.57951   3.58157   3.58279
 Alpha virt. eigenvalues --    3.59363   3.60874   3.61103   3.61967   3.62978
 Alpha virt. eigenvalues --    3.63284   3.63797   3.65035   3.65037   3.66392
 Alpha virt. eigenvalues --    3.67046   3.67625   3.67721   3.68118   3.68672
 Alpha virt. eigenvalues --    3.69378   3.70466   3.71058   3.71894   3.72895
 Alpha virt. eigenvalues --    3.73968   3.74227   3.74831   3.75797   3.76713
 Alpha virt. eigenvalues --    3.77852   3.78224   3.78954   3.79023   3.79187
 Alpha virt. eigenvalues --    3.79758   3.80557   3.80640   3.82374   3.82971
 Alpha virt. eigenvalues --    3.83186   3.83894   3.84524   3.84725   3.85891
 Alpha virt. eigenvalues --    3.86458   3.86674   3.88475   3.88830   3.89295
 Alpha virt. eigenvalues --    3.89642   3.90754   3.90835   3.91241   3.92812
 Alpha virt. eigenvalues --    3.93255   3.94328   3.95376   3.95431   3.96932
 Alpha virt. eigenvalues --    3.97339   3.98263   3.98769   4.00087   4.00701
 Alpha virt. eigenvalues --    4.01042   4.03229   4.03984   4.04766   4.05921
 Alpha virt. eigenvalues --    4.06296   4.06618   4.07588   4.08077   4.09723
 Alpha virt. eigenvalues --    4.09834   4.10700   4.11410   4.13567   4.13713
 Alpha virt. eigenvalues --    4.15584   4.16018   4.16921   4.17843   4.18074
 Alpha virt. eigenvalues --    4.18272   4.18534   4.20957   4.21090   4.21319
 Alpha virt. eigenvalues --    4.22198   4.22660   4.23078   4.23191   4.23462
 Alpha virt. eigenvalues --    4.24524   4.25009   4.25420   4.25447   4.26460
 Alpha virt. eigenvalues --    4.27572   4.28483   4.28494   4.28712   4.29770
 Alpha virt. eigenvalues --    4.29833   4.31113   4.31335   4.32360   4.33256
 Alpha virt. eigenvalues --    4.34083   4.34336   4.35022   4.35100   4.35671
 Alpha virt. eigenvalues --    4.36560   4.37071   4.37469   4.37547   4.38134
 Alpha virt. eigenvalues --    4.39747   4.39914   4.41024   4.41750   4.42100
 Alpha virt. eigenvalues --    4.44192   4.44323   4.44737   4.46089   4.48226
 Alpha virt. eigenvalues --    4.48350   4.49010   4.50136   4.51443   4.52260
 Alpha virt. eigenvalues --    4.54352   4.54781   4.55429   4.57153   4.57212
 Alpha virt. eigenvalues --    4.58204   4.60191   4.60445   4.62903   4.64935
 Alpha virt. eigenvalues --    4.67180   4.68491   4.70715   4.71786   4.74168
 Alpha virt. eigenvalues --    4.74418   4.75576   4.76475   4.77248   4.77431
 Alpha virt. eigenvalues --    4.78292   4.80070   4.81072   4.82188   4.83094
 Alpha virt. eigenvalues --    4.83463   4.85949   4.88099   4.88487   4.89108
 Alpha virt. eigenvalues --    4.90722   4.92306   4.92512   4.93351   4.94999
 Alpha virt. eigenvalues --    4.98010   4.98184   5.00836   5.03414   5.06919
 Alpha virt. eigenvalues --    5.07103   5.08471   5.08702   5.09336   5.09454
 Alpha virt. eigenvalues --    5.10544   5.11264   5.12658   5.14912   5.15718
 Alpha virt. eigenvalues --    5.15745   5.16400   5.17386   5.20300   5.20314
 Alpha virt. eigenvalues --    5.20947   5.21889   5.22415   5.22614   5.24521
 Alpha virt. eigenvalues --    5.25545   5.25943   5.26612   5.26712   5.27323
 Alpha virt. eigenvalues --    5.28203   5.28863   5.29549   5.29604   5.32022
 Alpha virt. eigenvalues --    5.32074   5.32848   5.33603   5.33988   5.34523
 Alpha virt. eigenvalues --    5.34991   5.36600   5.37851   5.38403   5.38863
 Alpha virt. eigenvalues --    5.39177   5.40398   5.41260   5.41826   5.43581
 Alpha virt. eigenvalues --    5.43581   5.45340   5.46070   5.46396   5.48590
 Alpha virt. eigenvalues --    5.49677   5.51264   5.52241   5.52630   5.53722
 Alpha virt. eigenvalues --    5.55987   5.56673   5.57599   5.58344   5.58875
 Alpha virt. eigenvalues --    5.59595   5.59726   5.60895   5.62468   5.65360
 Alpha virt. eigenvalues --    5.65815   5.66044   5.67548   5.68589   5.70522
 Alpha virt. eigenvalues --    5.70726   5.70982   5.72754   5.74087   5.75060
 Alpha virt. eigenvalues --    5.77224   5.77412   5.77672   5.79494   5.79755
 Alpha virt. eigenvalues --    5.80027   5.80392   5.80951   5.81872   5.81875
 Alpha virt. eigenvalues --    5.82415   5.83037   5.86681   5.89971   5.94638
 Alpha virt. eigenvalues --    5.95429   6.05396   6.09073   6.10080   6.15057
 Alpha virt. eigenvalues --    6.17012   6.18932   6.21327   6.27273   6.28006
 Alpha virt. eigenvalues --    6.31028   6.32403   6.40981   6.52469   6.62237
 Alpha virt. eigenvalues --    6.80144   6.94942   7.02561   7.23230   7.28531
 Alpha virt. eigenvalues --   22.97361  23.18406  23.38236  23.48580  23.48630
 Alpha virt. eigenvalues --   23.54942  23.60082  23.78358  23.81237  23.86699
 Alpha virt. eigenvalues --   23.90254  23.93308  30.34110  32.86360  32.90770
 Alpha virt. eigenvalues --   33.05686  37.06369  38.09902  44.13175  53.25650
 Alpha virt. eigenvalues --  285.23222
          Condensed to atoms (all electrons):
               1          2          3          4          5          6
     1  Pt  17.336139  -0.067789  -0.067787   0.004793   0.004795  -0.000566
     2  C   -0.067789   5.505403  -0.176304  -0.069752   0.130252   0.043259
     3  C   -0.067787  -0.176304   5.505392   0.130251  -0.069763   0.043262
     4  C    0.004793  -0.069752   0.130251   6.149515  -0.308313   0.236266
     5  C    0.004795   0.130252  -0.069763  -0.308313   6.149543   0.236261
     6  C   -0.000566   0.043259   0.043262   0.236266   0.236261   4.541946
     7  H   -0.000570  -0.009728  -0.006698   0.384632   0.024332  -0.034613
     8  H   -0.000570  -0.006698  -0.009728   0.024332   0.384632  -0.034612
     9  O    0.000100   0.033530   0.033530  -0.160145  -0.160146   0.680559
    10  N    0.184596   0.373293   0.373291  -0.094695  -0.094698  -0.000420
    11  C   -0.038238   0.224804  -0.002681  -0.018193   0.002865  -0.004323
    12  H   -0.006874  -0.035537   0.000538  -0.001219   0.000128  -0.000358
    13  H    0.011918  -0.046785  -0.000210  -0.002963  -0.000242   0.001265
    14  C   -0.038242  -0.002682   0.224810   0.002866  -0.018194  -0.004323
    15  H   -0.006873   0.000538  -0.035538   0.000128  -0.001219  -0.000358
    16  H    0.011917  -0.000210  -0.046784  -0.000242  -0.002964   0.001265
    17  N    0.214891  -0.022959   0.000461   0.000598   0.000314   0.000018
    18  N    0.214890   0.000461  -0.022952   0.000314   0.000598   0.000018
    19  C    0.287476   0.001411   0.001411  -0.000081  -0.000081   0.000012
    20  H   -0.025842  -0.000173  -0.000173  -0.000009  -0.000009   0.000001
    21  H   -0.044874   0.000023  -0.000135   0.000010   0.000018  -0.000001
    22  H   -0.044876  -0.000136   0.000023   0.000018   0.000010  -0.000001
    23  C   -0.038457   0.011714  -0.000017   0.000857   0.000010  -0.000101
    24  H   -0.017744  -0.000775  -0.000024   0.000035   0.000002  -0.000002
    25  H    0.012390   0.001781   0.000006  -0.000016  -0.000005   0.000004
    26  H   -0.008724  -0.001643   0.000054  -0.000181   0.000003   0.000004
    27  C   -0.035069   0.000909  -0.000120   0.001793  -0.000289  -0.000054
    28  H    0.011774  -0.003661  -0.000014  -0.000298  -0.000004   0.000019
    29  H   -0.013617  -0.000034   0.000088  -0.000039   0.000019   0.000005
    30  H   -0.012299   0.010338  -0.000689   0.004914   0.000320  -0.000418
    31  C   -0.038456  -0.000017   0.011714   0.000010   0.000857  -0.000101
    32  H    0.012390   0.000006   0.001781  -0.000005  -0.000016   0.000004
    33  H   -0.017742  -0.000024  -0.000775   0.000002   0.000035  -0.000002
    34  H   -0.008724   0.000054  -0.001644   0.000003  -0.000181   0.000004
    35  C   -0.035070  -0.000120   0.000909  -0.000289   0.001793  -0.000054
    36  H   -0.013618   0.000088  -0.000034   0.000019  -0.000039   0.000005
    37  H    0.011774  -0.000014  -0.003661  -0.000004  -0.000298   0.000019
    38  H   -0.012299  -0.000689   0.010336   0.000320   0.004914  -0.000418
               7          8          9         10         11         12
     1  Pt  -0.000570  -0.000570   0.000100   0.184596  -0.038238  -0.006874
     2  C   -0.009728  -0.006698   0.033530   0.373293   0.224804  -0.035537
     3  C   -0.006698  -0.009728   0.033530   0.373291  -0.002681   0.000538
     4  C    0.384632   0.024332  -0.160145  -0.094695  -0.018193  -0.001219
     5  C    0.024332   0.384632  -0.160146  -0.094698   0.002865   0.000128
     6  C   -0.034613  -0.034612   0.680559  -0.000420  -0.004323  -0.000358
     7  H    0.531626  -0.000182   0.009130   0.004026  -0.003855   0.000104
     8  H   -0.000182   0.531626   0.009130   0.004026   0.000187   0.000002
     9  O    0.009130   0.009130   8.090170   0.001159  -0.000833  -0.000001
    10  N    0.004026   0.004026   0.001159   6.683837  -0.027801  -0.004743
    11  C   -0.003855   0.000187  -0.000833  -0.027801   4.924266   0.438685
    12  H    0.000104   0.000002  -0.000001  -0.004743   0.438685   0.535738
    13  H    0.000714  -0.000007   0.000023   0.004534   0.436238  -0.015897
    14  C    0.000187  -0.003855  -0.000833  -0.027803  -0.001679  -0.000171
    15  H    0.000002   0.000104  -0.000001  -0.004742  -0.000171  -0.000043
    16  H   -0.000007   0.000714   0.000023   0.004534   0.000097  -0.000001
    17  N    0.000183  -0.000006   0.000006  -0.017515   0.256533  -0.036422
    18  N   -0.000006   0.000183   0.000006  -0.017519   0.000626   0.000084
    19  C    0.000003   0.000003  -0.000000  -0.022559   0.001120  -0.000180
    20  H   -0.000000  -0.000000   0.000000   0.000962   0.000176  -0.000002
    21  H    0.000000  -0.000000   0.000000   0.000646  -0.000068   0.000004
    22  H   -0.000000   0.000000   0.000000   0.000646  -0.000143   0.000002
    23  C   -0.000037   0.000001  -0.000001  -0.000728  -0.044990  -0.003983
    24  H   -0.000000   0.000000  -0.000000   0.000163   0.008574   0.000481
    25  H    0.000010  -0.000000   0.000000   0.000072  -0.010445  -0.002656
    26  H   -0.000005   0.000000  -0.000000  -0.000188  -0.005809   0.002353
    27  C   -0.000092   0.000001   0.000004  -0.002710  -0.032830   0.005491
    28  H   -0.000001  -0.000000   0.000000   0.000210  -0.010614  -0.000200
    29  H   -0.000003  -0.000000  -0.000000  -0.000055   0.006560  -0.000133
    30  H    0.000188   0.000004  -0.000006  -0.003406  -0.008585   0.000391
    31  C    0.000001  -0.000037  -0.000001  -0.000729  -0.000265  -0.000001
    32  H   -0.000000   0.000010   0.000000   0.000072   0.000008  -0.000000
    33  H    0.000000  -0.000000  -0.000000   0.000163  -0.000013   0.000000
    34  H    0.000000  -0.000005  -0.000000  -0.000188  -0.000051  -0.000000
    35  C    0.000001  -0.000092   0.000004  -0.002710   0.000044  -0.000006
    36  H   -0.000000  -0.000003  -0.000000  -0.000055  -0.000036   0.000000
    37  H   -0.000000  -0.000001   0.000000   0.000210   0.000004  -0.000000
    38  H    0.000004   0.000188  -0.000006  -0.003406   0.000044  -0.000001
              13         14         15         16         17         18
     1  Pt   0.011918  -0.038242  -0.006873   0.011917   0.214891   0.214890
     2  C   -0.046785  -0.002682   0.000538  -0.000210  -0.022959   0.000461
     3  C   -0.000210   0.224810  -0.035538  -0.046784   0.000461  -0.022952
     4  C   -0.002963   0.002866   0.000128  -0.000242   0.000598   0.000314
     5  C   -0.000242  -0.018194  -0.001219  -0.002964   0.000314   0.000598
     6  C    0.001265  -0.004323  -0.000358   0.001265   0.000018   0.000018
     7  H    0.000714   0.000187   0.000002  -0.000007   0.000183  -0.000006
     8  H   -0.000007  -0.003855   0.000104   0.000714  -0.000006   0.000183
     9  O    0.000023  -0.000833  -0.000001   0.000023   0.000006   0.000006
    10  N    0.004534  -0.027803  -0.004742   0.004534  -0.017515  -0.017519
    11  C    0.436238  -0.001679  -0.000171   0.000097   0.256533   0.000626
    12  H   -0.015897  -0.000171  -0.000043  -0.000001  -0.036422   0.000084
    13  H    0.533871   0.000097  -0.000001  -0.000001  -0.024356  -0.000056
    14  C    0.000097   4.924270   0.438684   0.436239   0.000626   0.256525
    15  H   -0.000001   0.438684   0.535744  -0.015898   0.000084  -0.036424
    16  H   -0.000001   0.436239  -0.015898   0.533874  -0.000056  -0.024356
    17  N   -0.024356   0.000626   0.000084  -0.000056   6.337990  -0.008129
    18  N   -0.000056   0.256525  -0.036424  -0.024356  -0.008129   6.338001
    19  C    0.000079   0.001120  -0.000180   0.000079  -0.008405  -0.008403
    20  H    0.000002   0.000176  -0.000002   0.000002  -0.000302  -0.000302
    21  H   -0.000001  -0.000143   0.000002  -0.000008   0.000564  -0.001790
    22  H   -0.000008  -0.000068   0.000004  -0.000001  -0.001790   0.000564
    23  C   -0.006520  -0.000265  -0.000001   0.000002   0.257966   0.000758
    24  H   -0.000460  -0.000013   0.000000   0.000000  -0.030946   0.000078
    25  H    0.004286   0.000008  -0.000000  -0.000000  -0.019549  -0.000017
    26  H   -0.000318  -0.000051  -0.000000   0.000000  -0.035836   0.000088
    27  C   -0.013184   0.000044  -0.000006   0.000005   0.266230   0.000740
    28  H    0.006406   0.000004  -0.000000  -0.000000  -0.021601  -0.000034
    29  H   -0.000029  -0.000036   0.000000   0.000000  -0.031851   0.000189
    30  H   -0.003916   0.000044  -0.000001  -0.000001  -0.033230   0.000204
    31  C    0.000002  -0.044993  -0.003984  -0.006521   0.000758   0.257967
    32  H   -0.000000  -0.010446  -0.002656   0.004286  -0.000017  -0.019548
    33  H    0.000000   0.008574   0.000481  -0.000460   0.000078  -0.030945
    34  H    0.000000  -0.005809   0.002353  -0.000318   0.000088  -0.035835
    35  C    0.000005  -0.032828   0.005491  -0.013185   0.000740   0.266229
    36  H    0.000000   0.006560  -0.000133  -0.000029   0.000189  -0.031851
    37  H   -0.000000  -0.010616  -0.000200   0.006407  -0.000034  -0.021600
    38  H   -0.000001  -0.008582   0.000391  -0.003916   0.000204  -0.033230
              19         20         21         22         23         24
     1  Pt   0.287476  -0.025842  -0.044874  -0.044876  -0.038457  -0.017744
     2  C    0.001411  -0.000173   0.000023  -0.000136   0.011714  -0.000775
     3  C    0.001411  -0.000173  -0.000135   0.000023  -0.000017  -0.000024
     4  C   -0.000081  -0.000009   0.000010   0.000018   0.000857   0.000035
     5  C   -0.000081  -0.000009   0.000018   0.000010   0.000010   0.000002
     6  C    0.000012   0.000001  -0.000001  -0.000001  -0.000101  -0.000002
     7  H    0.000003  -0.000000   0.000000  -0.000000  -0.000037  -0.000000
     8  H    0.000003  -0.000000  -0.000000   0.000000   0.000001   0.000000
     9  O   -0.000000   0.000000   0.000000   0.000000  -0.000001  -0.000000
    10  N   -0.022559   0.000962   0.000646   0.000646  -0.000728   0.000163
    11  C    0.001120   0.000176  -0.000068  -0.000143  -0.044990   0.008574
    12  H   -0.000180  -0.000002   0.000004   0.000002  -0.003983   0.000481
    13  H    0.000079   0.000002  -0.000001  -0.000008  -0.006520  -0.000460
    14  C    0.001120   0.000176  -0.000143  -0.000068  -0.000265  -0.000013
    15  H   -0.000180  -0.000002   0.000002   0.000004  -0.000001   0.000000
    16  H    0.000079   0.000002  -0.000008  -0.000001   0.000002   0.000000
    17  N   -0.008405  -0.000302   0.000564  -0.001790   0.257966  -0.030946
    18  N   -0.008403  -0.000302  -0.001790   0.000564   0.000758   0.000078
    19  C    5.234073   0.390243   0.393740   0.393742  -0.009616  -0.004146
    20  H    0.390243   0.580027  -0.019221  -0.019222  -0.000553   0.000354
    21  H    0.393740  -0.019221   0.615014  -0.018251   0.000487   0.000298
    22  H    0.393742  -0.019222  -0.018251   0.615016  -0.002490   0.002521
    23  C   -0.009616  -0.000553   0.000487  -0.002490   4.813294   0.424209
    24  H   -0.004146   0.000354   0.000298   0.002521   0.424209   0.540975
    25  H    0.000287  -0.000022   0.000006  -0.000277   0.414575  -0.019601
    26  H   -0.000203   0.000184  -0.000070   0.000478   0.426547  -0.015013
    27  C   -0.006132   0.000409   0.000045  -0.001972  -0.047762  -0.004588
    28  H    0.000435  -0.000022  -0.000001  -0.000260  -0.009414  -0.001712
    29  H   -0.003780   0.000094   0.000093   0.003474  -0.005596   0.002690
    30  H    0.000080  -0.000008  -0.000008   0.000278   0.007538   0.000235
    31  C   -0.009613  -0.000553  -0.002487   0.000487  -0.000169  -0.000020
    32  H    0.000287  -0.000022  -0.000277   0.000006   0.000004   0.000000
    33  H   -0.004145   0.000354   0.002520   0.000298  -0.000020   0.000003
    34  H   -0.000203   0.000184   0.000478  -0.000070  -0.000025  -0.000003
    35  C   -0.006132   0.000409  -0.001972   0.000045  -0.000034  -0.000010
    36  H   -0.003780   0.000094   0.003474   0.000093  -0.000008  -0.000001
    37  H    0.000435  -0.000022  -0.000260  -0.000001   0.000001  -0.000000
    38  H    0.000080  -0.000008   0.000278  -0.000008  -0.000015   0.000000
              25         26         27         28         29         30
     1  Pt   0.012390  -0.008724  -0.035069   0.011774  -0.013617  -0.012299
     2  C    0.001781  -0.001643   0.000909  -0.003661  -0.000034   0.010338
     3  C    0.000006   0.000054  -0.000120  -0.000014   0.000088  -0.000689
     4  C   -0.000016  -0.000181   0.001793  -0.000298  -0.000039   0.004914
     5  C   -0.000005   0.000003  -0.000289  -0.000004   0.000019   0.000320
     6  C    0.000004   0.000004  -0.000054   0.000019   0.000005  -0.000418
     7  H    0.000010  -0.000005  -0.000092  -0.000001  -0.000003   0.000188
     8  H   -0.000000   0.000000   0.000001  -0.000000  -0.000000   0.000004
     9  O    0.000000  -0.000000   0.000004   0.000000  -0.000000  -0.000006
    10  N    0.000072  -0.000188  -0.002710   0.000210  -0.000055  -0.003406
    11  C   -0.010445  -0.005809  -0.032830  -0.010614   0.006560  -0.008585
    12  H   -0.002656   0.002353   0.005491  -0.000200  -0.000133   0.000391
    13  H    0.004286  -0.000318  -0.013184   0.006406  -0.000029  -0.003916
    14  C    0.000008  -0.000051   0.000044   0.000004  -0.000036   0.000044
    15  H   -0.000000  -0.000000  -0.000006  -0.000000   0.000000  -0.000001
    16  H   -0.000000   0.000000   0.000005  -0.000000   0.000000  -0.000001
    17  N   -0.019549  -0.035836   0.266230  -0.021601  -0.031851  -0.033230
    18  N   -0.000017   0.000088   0.000740  -0.000034   0.000189   0.000204
    19  C    0.000287  -0.000203  -0.006132   0.000435  -0.003780   0.000080
[...]
 ,0.00000302,-0.00000057,-0.00000349,0.00000092,0.00000583,0.00000105,-
 0.00000004,-0.00001076,-0.00000742,0.00001105,0.00000100,-0.00000197,-
 0.00000633,0.00000166,0.00000165,-0.00000217,0.00000019,0.00000151,-0.
 00000378,-0.04997486,0.00164942,-0.00377971,-0.00031098,0.00290211,-0.
 00852313,0.00394274,-0.00893967,0.02664203,0.05346276,-0.00036048,-0.0
 0016301,-0.00082284,-0.00004517,-0.00004108,0.00000611,0.00014047,0.00
 008197,-0.00012785,0.00003707,-0.00002986,0.00000297,0.00000488,-0.000
 02330,-0.00000057,-0.00000404,0.00004408,0.00001055,0.00000301,-0.0000
 0165,-0.00000181,0.00000505,-0.00000208,-0.00000076,0.00001379,-0.0000
 1339,-0.00000168,0.00002067,-0.00002528,-0.00005934,-0.00002709,-0.000
 01367,0.00000845,0.00000209,-0.00000384,0.00000022,0.00000363,0.000003
 65,0.00000332,0.00077329,-0.00016402,-0.00048998,0.00019263,0.00018999
 ,0.00006273,-0.00008753,0.00003735,0.00012981,-0.00001009,0.00001013,0
 .00015951,-0.00278840,0.00337038,-0.02395326,0.00003632,0.00010384,0.0
 0001621,0.00004687,-0.00003879,0.00000888,-0.00002607,-0.00002433,0.00
 000330,-0.00000442,0.00002182,0.00002898,0.00000921,-0.00001341,-0.000
 00075,0.00000066,-0.00000183,0.00000076,0.00000193,0.00001035,0.000002
 50,-0.00000105,-0.00000811,0.00000117,0.00000983,0.00004173,-0.0000211
 7,0.00000273,0.00001718,0.00001567,0.00000088,-0.00000009,-0.00000310,
 -0.00000084,0.00000303,-0.00000076,0.00395201,-0.07412623,0.08496182,0
 .00034313,-0.00640460,0.02856708,-0.00008586,0.00111457,-0.00511064,0.
 00123789,0.07683870,-0.00009500,0.00090246,0.00018283,0.00000460,0.000
 00366,-0.00001058,-0.00001377,-0.00006368,0.00040754,-0.00001187,0.000
 00042,0.00000438,0.00005550,0.00001902,0.00000661,0.00000941,-0.000019
 55,-0.00007465,-0.00000060,-0.00000031,0.00000027,0.00000145,-0.000000
 57,0.00001698,0.00000017,0.00000275,0.00002074,0.00002019,-0.00000041,
 -0.00001137,0.00003277,-0.00001570,-0.00002685,-0.00000184,-0.00000304
 ,0.00000415,-0.00001258,-0.00000518,0.00000592,0.00162693,0.00019961,0
 .00035918,-0.00041725,0.00007585,0.00058442,0.00004197,0.00002867,0.00
 004328,-0.00002731,-0.00028148,-0.00005435,-0.00120587,0.00245401,-0.0
 1711757,0.00001251,0.00016071,0.00002117,0.00013147,-0.00003103,-0.000
 00481,-0.00007232,-0.00004852,0.00008381,-0.00003794,-0.00007130,0.000
 05901,-0.00003882,0.00000511,-0.00004361,0.00000469,-0.00000027,-0.000
 00185,0.00000869,-0.00001269,0.00000762,-0.00000004,-0.00000117,0.0000
 1099,-0.00000028,-0.00002551,0.00003314,-0.00000607,-0.00000122,-0.000
 02121,0.00000548,-0.00000006,-0.00000527,-0.00000765,0.00000688,-0.000
 01117,-0.01156658,0.07663923,-0.30067922,0.00075671,-0.00025589,0.0008
 6084,-0.00131884,0.00408476,-0.01028156,0.01507292,-0.08129705,0.32605
 105,0.00051561,0.00104520,-0.00400827,-0.00009595,-0.00015509,-0.00003
 662,0.00019764,0.00084567,0.00169268,0.00009013,-0.00012093,0.00000723
 ,-0.00019128,-0.00047431,-0.00017403,0.00024225,0.00042518,-0.00007694
 ,-0.00000128,-0.00001860,0.00000588,0.00000152,0.00002910,0.00003658,-
 0.00024537,-0.00011701,-0.00000882,-0.00006173,-0.00002590,-0.00039123
 ,-0.00008313,-0.00001702,0.00004371,0.00001677,-0.00000557,-0.00000365
 ,0.00001156,-0.00000795,-0.00000043,-0.00321776,-0.00566298,0.03671482
 ,-0.00563943,0.00004873,0.00319360,0.00071213,-0.00110725,0.00147888,0
 .00015121,0.00021225,0.00065136,-0.09381022,-0.00304574,-0.00711630,-0
 .00024176,-0.00008330,-0.00009028,0.00006309,-0.00011912,0.00016922,-0
 .00065104,0.00028758,-0.00013277,0.00004904,-0.00011405,0.00002330,0.0
 0004037,-0.00009445,-0.00000164,-0.00000586,0.00000964,-0.00000232,0.0
 0000141,-0.00000025,0.00000768,-0.00001076,-0.00000984,-0.00000028,0.0
 0009266,0.00015858,-0.00002488,-0.00001240,0.00002992,0.00005077,-0.00
 000775,0.00000723,0.00000196,-0.00001298,-0.00002442,-0.00000079,-0.00
 230460,0.00600252,-0.02974758,0.00060486,0.00046299,0.00073914,0.00034
 700,0.00014476,-0.00158866,-0.00340206,-0.00280904,-0.00300189,0.63406
 913,0.00077018,-0.01066521,0.01728062,0.00000575,-0.00007655,-0.000080
 15,-0.00088582,-0.00112355,0.00067124,-0.00001161,0.00012723,0.0000003
 8,0.00028853,0.00055700,-0.00007961,-0.00036664,-0.00038392,-0.0000214
 2,0.00000749,0.00002569,0.00001280,0.00000485,-0.00001086,-0.00002392,
 0.00035896,0.00010722,0.00003896,-0.00020171,-0.00007457,-0.00003728,0
 .00019375,0.00019150,-0.00007207,-0.00002779,0.00002520,0.00001734,0.0
 0000435,0.00001458,0.00000081,0.00153255,-0.00084489,-0.00478702,0.001
 76497,-0.00012745,-0.00151020,0.00173408,0.00151314,-0.00290500,-0.000
 11657,-0.00064534,-0.00285387,-0.00479895,-0.08739154,0.04846197,0.000
 79951,0.00027252,0.00075531,0.00023045,-0.00012319,-0.00021186,0.00004
 910,-0.00024191,-0.00000119,-0.00008930,0.00000556,-0.00002542,-0.0000
 3837,0.00036196,-0.00007946,0.00000616,-0.00001012,-0.00000345,-0.0000
 3733,0.00004207,-0.00000650,0.00000741,0.00004173,0.00002552,-0.000158
 54,-0.00074357,0.00008338,-0.00001924,-0.00008445,-0.00022633,0.000012
 73,0.00000191,0.00001806,-0.00001823,0.00000747,0.00001258,-0.00109859
 ,0.00313413,-0.02131213,-0.00127126,0.00086476,-0.00298354,0.00046770,
 0.00037415,0.00006159,-0.00258617,-0.00164307,-0.00281677,0.00828423,0
 .58105773,-0.00284562,0.01230607,-0.00220118,0.00029510,0.00015339,0.0
 0017546,0.00015564,0.00148603,0.00107725,-0.00029011,0.00010184,-0.000
 05669,-0.00084778,-0.00110053,-0.00020219,0.00072156,0.00036491,-0.000
 10320,-0.00003746,-0.00004765,0.00000584,-0.00002668,0.00004451,0.0000
 9265,-0.00088147,-0.00012139,-0.00007420,0.00057444,-0.00020266,-0.000
 57773,0.00056516,-0.00020683,-0.00039317,-0.00001790,0.00000324,0.0000
 3292,-0.00019893,-0.00012184,0.00005769,0.01103020,0.00307832,-0.02465
 057,0.00121251,0.00072985,0.00023951,-0.00271074,0.00091467,0.00101840
 ,-0.00025896,-0.00254123,0.00020542,-0.00149699,0.01316012,-0.18327390
 ,-0.00055923,0.00039413,-0.00035277,0.00006356,0.00024666,0.00001144,0
 .00093240,-0.00013159,0.00010388,0.00014371,-0.00007281,-0.00014994,-0
 .00063798,-0.00008912,-0.00040701,0.00006126,0.00002420,-0.00000621,0.
 00015407,-0.00028397,0.00010076,0.00001105,0.00002117,0.00003314,-0.00
 002489,-0.00008339,0.00081001,-0.00005264,-0.00018148,-0.00021225,0.00
 005307,0.00001495,-0.00003825,-0.00003372,0.00000573,-0.00004630,-0.00
 958877,0.00201156,-0.02999781,0.00183514,0.00174141,0.00165289,0.00160
 965,0.00096093,0.00122485,-0.00113434,-0.00086024,-0.00000671,-0.00583
 893,0.05097227,0.48401913,0.00005706,0.00078171,-0.00026925,0.00001679
 ,0.00002247,-0.00002205,0.00026595,0.00037656,-0.00006259,-0.00000726,
 -0.00002173,-0.00000261,-0.00003539,-0.00014349,0.00002791,0.00013448,
 0.00011332,0.00002504,-0.00000309,-0.00001023,0.00000039,0.00001210,0.
 00000238,-0.00000973,-0.00012808,-0.00003717,-0.00001743,-0.00001085,-
 0.00008873,0.00003001,-0.00000614,-0.00000874,-0.00001332,0.00000540,-
 0.00000629,0.00000194,-0.00000414,-0.00000930,0.00000533,0.00119675,-0
 .00003941,-0.00043949,0.00013727,-0.00009845,0.00010046,0.00018340,-0.
 00028291,-0.00012421,-0.00002338,-0.00020639,-0.00005980,0.00182230,-0
 .00129167,-0.00137441,0.00009072,0.00065353,-0.00066170,-0.00013301,0.
 00002851,0.00007759,-0.00005501,-0.00006763,0.00005015,-0.00005428,-0.
 00006921,0.00006131,-0.00002571,0.00000055,-0.00003503,0.00000595,0.00
 000688,0.00000193,0.00000475,-0.00000841,0.00000773,0.00000166,-0.0000
 0088,0.00000548,-0.00000774,-0.00001273,0.00005307,-0.00000035,-0.0000
 0638,-0.00001842,0.00001738,-0.00000884,0.00000288,-0.00001786,-0.0000
 0462,0.00000330,0.00077034,-0.00004661,-0.00086330,-0.00015022,0.00000
 079,0.00003598,0.00017976,0.00015166,-0.00010931,0.00028744,-0.0000602
 3,0.00005642,-0.27153707,0.05305012,0.10307401,0.28677566,-0.00111415,
 -0.00081289,0.00134705,-0.00001861,-0.00003895,-0.00001316,0.00015980,
 0.00030656,-0.00020645,0.00003408,-0.00002925,-0.00000097,0.00004181,-
 0.00008808,0.00002246,-0.00000099,0.00006446,0.00000689,0.00000265,-0.
 00000185,0.00000322,0.00000221,0.00000127,0.00000169,-0.00000693,-0.00
 002149,-0.00000524,0.00020700,0.00000367,-0.00000524,-0.00005594,0.000
 01694,0.00003116,0.00000397,-0.00000370,-0.00000371,0.00001434,0.00000
 203,0.00000066,0.00099750,0.00000380,0.00168867,-0.00061029,0.00042137
 ,0.00024421,-0.00034627,0.00037729,0.00000321,0.00006279,0.00004500,-0
 .00006776,-0.01039623,0.00063850,0.00607347,-0.00015164,-0.00043593,0.
 00002624,-0.00001903,0.00014096,-0.00010925,0.00061604,0.00004655,0.00
 006326,0.00001498,0.00007976,-0.00003391,0.00002212,-0.00000201,0.0000
 1222,0.00000133,-0.00001226,0.00000039,-0.00000061,0.00001420,0.000001
 71,-0.00000165,-0.00000009,0.00000006,-0.00000723,0.00000191,-0.000014
 95,0.00000494,0.00001616,-0.00000284,0.00000884,-0.00000796,-0.0000031
 7,-0.00001242,-0.00000393,0.00000233,0.00020322,-0.00023397,-0.0005376
 0,0.00017898,-0.00003287,0.00009280,-0.00010682,0.00025836,-0.00033280
 ,-0.00010429,-0.00011279,0.00006933,0.05658318,-0.06222436,-0.02703686
 ,-0.05850484,0.06233503,0.00078368,-0.00073703,-0.00036344,0.00001293,
 0.00005200,-0.00001858,-0.00024964,-0.00061796,-0.00022640,-0.00001540
 ,0.00005704,-0.00000124,0.00010902,0.00028515,0.00011801,-0.00004954,-
 0.00011824,0.00001558,-0.00000188,0.00000663,-0.00000108,-0.00000734,-
 0.00000898,-0.00001963,0.00007903,0.00004119,0.00000563,-0.00014878,0.
 00021134,0.00009091,0.00001531,0.00002426,0.00000277,0.00000124,0.0000
 0457,-0.00000047,0.00000190,0.00000649,-0.00000424,-0.00198075,0.00105
 060,-0.00577915,0.00184614,-0.00005807,-0.00079529,-0.00019592,-0.0000
 2527,0.00005274,0.00004093,0.00026432,-0.00003983,0.03127248,-0.004737
 16,-0.01906085,0.00025190,0.00015258,-0.00004022,0.00006234,-0.0001994
 3,0.00011839,-0.00077136,0.00007111,0.00015119,-0.00000172,-0.00023440
 ,0.00008590,0.00003396,0.00000750,0.00001225,-0.00000776,0.00001747,0.
 00000016,-0.00001609,0.00000620,-0.00000757,-0.00000217,0.00000309,-0.
 00000527,0.00000196,-0.00001806,-0.00003825,-0.00000268,-0.00000157,0.
 00000213,0.00000288,0.00000317,0.00001611,-0.00000343,0.00000137,0.000
 00491,0.00217579,0.00021984,0.00103370,-0.00020071,-0.00001552,-0.0000
 6863,-0.00084166,-0.00020785,-0.00031623,-0.00015031,0.00023836,0.0002
 9447,0.09279079,-0.02340846,-0.09263751,-0.10943586,0.02354070,0.10794
 972,0.00061892,0.00001856,-0.00048076,-0.00000751,0.00004610,-0.000020
 67,-0.00021260,-0.00019784,-0.00004726,-0.00000461,-0.00000650,-0.0000
 0234,0.00010342,0.00008193,-0.00000280,-0.00005720,-0.00007417,-0.0000
 1144,0.00000273,0.00000607,-0.00000112,-0.00001410,0.00000033,0.000014
 89,0.00006408,0.00002332,0.00000558,-0.00006805,0.00012660,0.00007944,
 -0.00002906,-0.00000571,0.00001208,-0.00000097,0.00000044,-0.00000193,
 0.00000862,0.00001132,-0.00000432,0.00080001,-0.00206410,0.00059954,0.
 00000543,0.00005901,-0.00010357,-0.00015255,0.00007240,0.00032547,-0.0
 0004319,0.00011353,0.00007987,-0.00095631,0.00121687,-0.00085706,-0.00
 000731,-0.00010487,-0.00017199,-0.00008573,0.00014047,-0.00003839,0.00
 033394,-0.00007799,0.00005140,-0.00003860,0.00005627,-0.00000931,0.000
 02729,-0.00000032,0.00003059,0.00000032,-0.00000372,0.00000184,-0.0000
 0342,0.00001720,-0.00000998,0.00000100,-0.00000273,-0.00000607,-0.0000
 1240,0.00001924,-0.00005266,0.00001075,0.00001282,0.00001563,-0.000000
 35,-0.00000495,-0.00000268,0.00000565,0.00000263,0.00000489,0.00010639
 ,0.00129588,-0.00017087,0.00004307,-0.00023532,-0.00029570,-0.00007652
 ,0.00013523,0.00012438,-0.00006673,-0.00023372,0.00008954,-0.06046920,
 0.04626228,-0.00209671,-0.00271858,0.02717189,-0.00218991,0.05714103,-
 0.00034418,0.00046337,0.00201303,0.00011021,0.00015190,0.00009153,0.00
 013796,-0.00020308,-0.00002094,-0.00012855,0.00006608,-0.00001756,-0.0
 0012437,-0.00010177,-0.00003161,0.00025844,-0.00000012,0.00000739,-0.0
 0001508,-0.00000937,-0.00000726,-0.00002932,0.00001235,0.00001668,-0.0
 0026161,0.00000513,-0.00002819,0.00005196,0.00020949,-0.00012265,0.000
 17030,0.00000524,-0.00009488,-0.00000452,0.00000874,0.00000753,-0.0000
 4554,-0.00003018,0.00000720,0.00081148,0.00061011,-0.00113783,-0.00021
 990,0.00035255,-0.00009735,-0.00099206,0.00014815,0.00062668,0.0000228
 9,-0.00026194,-0.00024847,0.00219865,-0.01136360,0.00637150,-0.0001271
 5,0.00015688,0.00012310,0.00012895,-0.00001586,-0.00002257,-0.00001291
 ,0.00008170,-0.00004975,0.00006642,-0.00006705,-0.00003132,-0.00014824
 ,0.00005009,-0.00009077,0.00000775,0.00001428,-0.00000270,0.00001807,-
 0.00006839,0.00001631,0.00000196,0.00001719,0.00000122,-0.00002992,-0.
 00008445,0.00018147,-0.00001282,-0.00005373,-0.00006068,0.00000638,0.0
 0001616,0.00000157,0.00000649,0.00001639,-0.00000295,-0.00085187,0.001
 71543,-0.00120354,0.00058278,0.00046766,0.00066470,0.00006179,-0.00018
 044,0.00004013,-0.00003491,0.00039640,-0.00005995,0.04618936,-0.297518
 83,0.01248794,-0.00017935,-0.00459729,-0.00014541,-0.05162555,0.323053
 99,0.00059073,-0.00135423,-0.00269476,-0.00001107,-0.00000439,-0.00001
 707,0.00022818,-0.00010524,0.00000157,0.00004523,-0.00005856,0.0000023
 6,0.00006959,0.00003434,0.00002741,-0.00003273,0.00002323,0.00001169,0
 .00000481,0.00000149,-0.00000218,0.00001101,0.00000121,0.00000126,0.00
 005907,-0.00000785,0.00000230,-0.00022953,-0.00007150,0.00006712,-0.00
 018871,-0.00000539,0.00010916,0.00001291,-0.00000499,-0.00001310,0.000
 04658,0.00001708,-0.00001324,-0.00289380,0.00217680,0.00078675,-0.0000
 9507,-0.00022393,0.00023837,0.00065074,-0.00056898,0.00032410,0.000090
 79,0.00074460,0.00076379,-0.00668101,0.03760176,-0.01469349,0.00016112
 ,-0.00017789,0.00003627,-0.00003217,-0.00009036,0.00004065,-0.00028989
 ,-0.00004384,0.00002170,-0.00000517,0.00000183,0.00003795,0.00015305,-
 0.00007706,0.00011887,-0.00001428,-0.00000007,0.00000175,-0.00002544,0
 .00005032,-0.00002804,-0.00000633,-0.00001567,-0.00002121,0.00005076,0
 .00022633,-0.00021225,0.00001563,0.00006068,0.00011225,-0.00001842,0.0
 0000284,0.00000213,0.00001711,0.00000691,0.00000676,0.00102579,0.00323
 183,0.00164380,0.00010657,-0.00084169,0.00008115,-0.00008628,-0.000248
 60,-0.00008739,0.00019989,-0.00037185,0.00023870,-0.00096103,0.0063638
 6,-0.05087978,0.00069669,-0.01268641,0.00169927,0.00304844,-0.01994799
 ,0.06035903,0.00008956,-0.00030298,0.00002528,0.00005612,0.00008140,0.
 00003487,0.00027097,-0.00041434,0.00017651,-0.00005764,0.00003467,-0.0
 0001347,0.00003647,0.00022449,-0.00011562,-0.00011656,-0.00021650,0.00
 002436,-0.00000112,0.00001103,-0.00000730,-0.00000155,0.00000597,0.000
 00266,0.00011076,0.00006171,0.00000549,-0.00008728,0.00006073,0.000069
 78,0.00002882,0.,-0.00001421,-0.00000964,0.00000773,-0.00000131,-0.000
 00229,0.00000317,-0.00000575,0.00037861,0.00058271,0.00070978,0.000065
 07,0.00002526,-0.00013119,0.00007876,0.00005838,0.00002172,0.00000190,
 0.00012695,0.00008043,0.00017028,0.00107293,0.00114294,-0.00005574,-0.
 00008306,0.00020063,0.00004874,0.00002704,-0.00006995,0.00014190,0.000
 03745,-0.00010499,-0.00000386,0.00008536,-0.00003981,-0.00000625,0.000
 00469,0.00002489,-0.00000354,-0.00000155,-0.00000075,-0.00000088,-0.00
 000580,-0.00001052,0.00000019,0.00000084,-0.00000765,-0.00001299,0.000
 01824,-0.00003372,0.00000565,-0.00000649,0.00001712,-0.00001786,0.0000
 1242,-0.00000343,0.00002447,0.00003200,-0.00000370,0.00052421,0.000612
 91,0.00004097,-0.00003720,-0.00012423,0.00000757,0.00045058,0.00003576
 ,0.00008889,0.00034249,-0.00029398,-0.00009490,-0.19520474,-0.10410904
 ,-0.09291266,-0.01704702,-0.01487373,-0.01320939,0.00575234,0.00435602
 ,0.00428621,0.20408827,0.00107924,-0.00102447,0.00118419,-0.00002876,-
 0.00005346,-0.00002798,-0.00013630,0.00027593,0.00016529,0.00003016,-0
 .00003714,-0.00000424,0.00002064,-0.00007723,0.00002751,-0.00000462,0.
 00007118,0.00002289,0.00000339,-0.00000411,0.00000129,0.00002789,-0.00
 001122,-0.00003502,0.00001315,-0.00002555,0.00000233,-0.00006615,0.000
 04684,0.00005835,-0.00003616,-0.00000526,0.00001728,0.00000501,-0.0000
 0081,-0.00000446,0.00000606,0.00000130,0.00000098,-0.00008263,0.000330
 39,-0.00034904,0.00014745,-0.00013623,0.00004595,-0.00010987,-0.000378
 31,0.00000500,-0.00003052,0.00017291,0.00000005,0.00955226,0.00520558,
 0.00623462,-0.00001621,-0.00006204,0.00000127,-0.00002184,0.00001425,-
 0.00000110,-0.00004972,0.00005059,-0.00000062,0.00000489,-0.00001216,0
 .00000802,0.00003087,0.00001095,0.00001210,-0.00000096,0.00000037,0.00
 000198,-0.00001013,0.00001306,-0.00000436,-0.00000151,0.00000303,-0.00
 000688,0.00002442,0.00000747,-0.00000574,-0.00000263,0.00001639,-0.000
 00691,0.00000462,-0.00000393,-0.00000137,-0.00003199,-0.00001380,-0.00
 000311,-0.00027167,0.00007812,0.00112858,0.00009669,0.00048183,0.00036
 010,-0.00010799,-0.00017574,0.00006718,0.00009155,0.00056925,0.0003588
 9,-0.10675331,-0.12479220,-0.06814233,0.00602576,0.00388587,0.00426839
 ,-0.02225293,-0.01346317,-0.01363861,0.11285185,0.12904153,-0.00034203
 ,-0.00059871,-0.00037344,0.00006094,0.00013090,-0.00002873,0.00069271,
 0.00023413,-0.00039767,-0.00005080,-0.00005085,-0.00002259,0.00002495,
 -0.00008238,0.00008425,0.00027544,0.00012263,0.00001304,-0.00000703,-0
 .00001417,0.00000277,-0.00001006,0.00000727,0.00000872,-0.00022079,-0.
 00003653,-0.00002585,-0.00009791,0.00005803,0.00006900,-0.00006947,0.0
 0003403,0.00003989,0.00001783,-0.00000517,-0.00000316,0.00002018,-0.00
 000651,-0.00000804,-0.00149338,-0.00054053,0.00084387,-0.00012225,-0.0
 0000124,0.00022947,0.00019663,-0.00014306,-0.00011041,0.00005474,0.000
 29906,-0.00001930,-0.02610291,-0.01698472,-0.02059415,0.00009215,-0.00
 002297,0.00006882,0.00003246,-0.00000576,-0.00000209,-0.00002115,0.000
 01027,-0.00001921,-0.00000506,-0.00001227,0.00001096,0.00003403,0.0000
 1884,0.00001138,-0.00000116,0.00000190,0.00000285,-0.00001472,0.000008
 86,-0.00001269,-0.00000378,0.00000076,-0.00001117,-0.00000078,-0.00001
 259,-0.00004630,0.00000489,0.00000295,0.00000676,0.00000330,-0.0000023
 3,0.00000491,-0.00000370,0.00000311,0.00001529,0.00160385,0.00307220,-
 0.00579578,0.00015683,-0.00003926,0.00005418,-0.00004746,0.00013544,0.
 00021215,-0.00137129,-0.00110475,-0.00094632,-0.08440028,-0.06133103,-
 0.10459386,0.00920091,0.00782857,0.00777004,0.00209396,0.00076636,0.00
 192639,0.09982022,0.06825954,0.12163603\\0.00000586,0.00000008,0.00000
 086,0.00000030,0.00000038,-0.00000319,0.00000066,-0.00000066,-0.000003
 20,-0.00000203,-0.00000065,-0.00000899,-0.00000225,0.00000065,-0.00000
 897,-0.00000188,0.00000015,-0.00001107,0.00000093,-0.00000048,-0.00000
 958,0.00000095,0.00000049,-0.00000959,0.00000225,-0.00000004,-0.000012
 60,-0.00000629,0.00000009,0.00000176,-0.00000235,0.00000005,-0.0000013
 3,-0.00000442,0.00000010,-0.00000208,-0.00000112,-0.00000012,-0.000003
 50,-0.00000251,-0.00000003,-0.00000126,-0.00000444,-0.00000007,-0.0000
 0208,-0.00000112,0.00000010,-0.00000352,-0.00000146,-0.00000037,0.0000
 0031,-0.00000137,0.00000037,0.00000018,-0.00000259,0.00000006,0.000006
 91,-0.00000074,-0.00000006,0.00000746,0.00000234,-0.00000032,0.0000081
 5,0.00000227,0.00000025,0.00000808,0.00000007,0.00000091,0.00000563,-0
 .00000123,0.00000008,0.00000636,-0.00000217,-0.00000038,0.00000312,-0.
 00000507,0.00000019,0.00000402,0.00000408,-0.00000076,0.00000100,0.000
 00399,-0.00000013,0.00000081,0.00000474,0.00000011,0.00000336,0.000005
 09,0.00000016,-0.00000071,0.00000001,-0.00000090,0.00000568,-0.0000021
 7,0.00000037,0.00000313,-0.00000124,-0.00000002,0.00000637,-0.00000504
 ,-0.00000021,0.00000401,0.00000410,0.00000074,0.00000102,0.00000474,-0
 .00000012,0.00000334,0.00000400,0.00000014,0.00000081,0.00000509,-0.00
 000015,-0.00000071\\\@
 The archive entry for this job was punched.


 IF AT FIRST YOU DON'T SUCCEED, TRY, TRY AGAIN.
 THEN GIVE UP;
 THERE'S NO USE BEING A DAMN FOOL ABOUT IT.

                                 -- W. C. FIELDS
 Job cpu time:       4 days  8 hours 51 minutes 14.9 seconds.
 Elapsed time:       0 days 13 hours 51 minutes 33.7 seconds.
 File lengths (MBytes):  RWF=   1858 Int=      0 D2E=      0 Chk=     68 Scr=      1
 Normal termination of Gaussian 16 at Tue Mar 12 14:09:37 2024.
