 Entering Gaussian System, Link 0=/cm/shared/apps//g16/g16
 Input=ZPtMeMe_sigma.gjf
 Output=ZPtMeMe_sigma.log
 Initial command:
 /cm/shared/apps//g16/l1.exe "/local/mvanvleet/pbs.15279.josephine/Gau-3177849.inp" -scrdir="/local/mvanvleet/pbs.15279.josephine/"
 Entering Link 1 = /cm/shared/apps//g16/l1.exe PID=   3177850.
  
 Copyright (c) 1988-2019, Gaussian, Inc.  All Rights Reserved.
  
 This is part of the Gaussian(R) 16 program.  It is based on
 the Gaussian(R) 09 system (copyright 2009, Gaussian, Inc.),
 the Gaussian(R) 03 system (copyright 2003, Gaussian, Inc.),
 the Gaussian(R) 98 system (copyright 1998, Gaussian, Inc.),
 the Gaussian(R) 94 system (copyright 1995, Gaussian, Inc.),
 the Gaussian 92(TM) system (copyright 1992, Gaussian, Inc.),
 the Gaussian 90(TM) system (copyright 1990, Gaussian, Inc.),
 the Gaussian 88(TM) system (copyright 1988, Gaussian, Inc.),
 the Gaussian 86(TM) system (copyright 1986, Carnegie Mellon
 University), and the Gaussian 82(TM) system (copyright 1983,
 Carnegie Mellon University). Gaussian is a federally registered
 trademark of Gaussian, Inc.
  
 This software contains proprietary and confidential information,
 including trade secrets, belonging to Gaussian, Inc.
  
 This software is provided under written license and may be
 used, copied, transmitted, or stored only in accord with that
 written license.
  
 The following legend is applicable only to US Government
 contracts under FAR:
  
                    RESTRICTED RIGHTS LEGEND
  
 Use, reproduction and disclosure by the US Government is
 subject to restrictions as set forth in subparagraphs (a)
 and (c) of the Commercial Computer Software - Restricted
 Rights clause in FAR 52.227-19.
  
 Gaussian, Inc.
 340 Quinnipiac St., Bldg. 40, Wallingford CT 06492
  
  
 ---------------------------------------------------------------
 Warning -- This program may not be used in any manner that
 competes with the business of Gaussian, Inc. or will provide
 assistance to any competitor of Gaussian, Inc.  The licensee
 of this program is prohibited from giving any competitor of
 Gaussian, Inc. access to this program.  By using this program,
 the user acknowledges that Gaussian, Inc. is engaged in the
 business of creating and licensing software in the field of
 computational chemistry and represents and warrants to the
 licensee that it is not a competitor of Gaussian, Inc. and that
 it will not use this program in any manner prohibited above.
 ---------------------------------------------------------------
  

 Cite this work as:
 Gaussian 16, Revision C.01,
 M. J. Frisch, G. W. Trucks, H. B. Schlegel, G. E. Scuseria, 
 M. A. Robb, J. R. Cheeseman, G. Scalmani, V. Barone, 
 G. A. Petersson, H. Nakatsuji, X. Li, M. Caricato, A. V. Marenich, 
 J. Bloino, B. G. Janesko, R. Gomperts, B. Mennucci, H. P. Hratchian, 
 J. V. Ortiz, A. F. Izmaylov, J. L. Sonnenberg, D. Williams-Young, 
 F. Ding, F. Lipparini, F. Egidi, J. Goings, B. Peng, A. Petrone, 
 T. Henderson, D. Ranasinghe, V. G. Zakrzewski, J. Gao, N. Rega, 
 G. Zheng, W. Liang, M. Hada, M. Ehara, K. Toyota, R. Fukuda, 
 J. Hasegawa, M. Ishida, T. Nakajima, Y. Honda, O. Kitao, H. Nakai, 
 T. Vreven, K. Throssell, J. A. Montgomery, Jr., J. E. Peralta, 
 F. Ogliaro, M. J. Bearpark, J. J. Heyd, E. N. Brothers, K. N. Kudin, 
 V. N. Staroverov, T. A. Keith, R. Kobayashi, J. Normand, 
 K. Raghavachari, A. P. Rendell, J. C. Burant, S. S. Iyengar, 
 J. Tomasi, M. Cossi, J. M. Millam, M. Klene, C. Adamo, R. Cammi, 
 J. W. Ochterski, R. L. Martin, K. Morokuma, O. Farkas, 
 J. B. Foresman, and D. J. Fox, Gaussian, Inc., Wallingford CT, 2019.
 
 ******************************************
 Gaussian 16:  ES64L-G16RevC.01  3-Jul-2019
                30-May-2024 
 ******************************************
 %nprocshared=48
 Will use up to   48 processors via shared memory.
 %chk=ZPtMeMe_sigma.chk
 %mem=16GB
 ----------------------------------------------------------
 # wb97xd def2TZVPP SCRF=(solvent=dichloromethane) opt freq
 ----------------------------------------------------------
 1/18=20,19=15,26=3,38=1/1,3;
 2/9=110,12=2,17=6,18=5,40=1/2;
 3/5=44,7=202,11=2,25=1,30=1,70=2201,71=1,72=9,74=-58/1,2,3;
 4//1;
 5/5=2,38=5,53=9/2;
 6/7=2,8=2,9=2,10=2,28=1/1;
 7//1,2,3,16;
 1/18=20,19=15,26=3/3(2);
 2/9=110/2;
 99//99;
 2/9=110/2;
 3/5=44,7=202,11=2,25=1,30=1,70=2205,71=1,72=9,74=-58/1,2,3;
 4/5=5,16=3,69=1/1;
 5/5=2,38=5,53=9/2;
 7//1,2,3,16;
 1/18=20,19=15,26=3/3(-5);
 2/9=110/2;
 6/7=2,8=2,9=2,10=2,19=2,28=1/1;
 99/9=1/99;
 -------------
 ZPtMeMe_sigma
 -------------
 Symbolic Z-matrix:
 Charge =  1 Multiplicity = 1
 Pt                    0.77069   0.04877  -0.08449 
 C                    -1.67798  -1.3748   -0.14231 
 C                    -1.90193   0.97817  -0.06698 
 C                    -2.99733  -1.55201   0.11018 
 C                    -3.22856   0.88821   0.19089 
 C                    -3.87118  -0.4092    0.31585 
 H                    -3.42076  -2.5458    0.15205 
 H                    -3.8309    1.77969   0.29272 
 O                    -5.07736  -0.53177   0.56977 
 N                    -1.15138  -0.13563  -0.21575 
 C                    -0.66768  -2.43413  -0.47724 
 H                    -0.58928  -2.51039  -1.56309 
 H                    -0.95131  -3.40933  -0.08696 
 C                    -1.11672   2.23091  -0.3427 
 H                    -1.10873   2.38693  -1.42154 
 H                    -1.56212   3.10932   0.12343 
 N                     0.68645  -2.04923   0.03453 
 N                     0.31416   2.09441   0.08896 
 C                     3.53315   0.31379   0.10416 
 H                     2.55652  -0.11619   0.499 
 H                     4.23891  -0.26879   0.69791 
 H                     3.59946   1.34043   0.45667 
 C                     1.72652  -2.77203  -0.7289 
 H                     2.70482  -2.54744  -0.30366 
 H                     1.55542  -3.84832  -0.65886 
 H                     1.69909  -2.46547  -1.76687 
 C                     0.78357  -2.43906   1.4678 
 H                     0.70473  -3.52248   1.55729 
 H                     1.73385  -2.11286   1.87903 
 H                    -0.02776  -1.97143   2.02581 
 C                     1.1572    3.00445  -0.71264 
 H                     0.80065   4.03017  -0.60972 
 H                     2.18328   2.9541   -0.35644 
 H                     1.11867   2.7074   -1.75678 
 C                     0.41518   2.46927   1.52511 
 H                     1.43257   2.31692   1.87535 
 H                     0.1493    3.52144   1.64459 
 H                    -0.26514   1.85636   2.11136 
 C                     3.7366    0.19526  -1.46046 
 H                     3.79331  -0.84462  -1.78494 
 H                     2.92026   0.67564  -2.02159 
 H                     4.64406   0.68397  -1.80781 
 

 GradGradGradGradGradGradGradGradGradGradGradGradGradGradGradGradGradGrad
 Berny optimization.
 Initialization pass.
                           ----------------------------
                           !    Initial Parameters    !
                           ! (Angstroms and Degrees)  !
 --------------------------                            --------------------------
 ! Name  Definition              Value          Derivative Info.                !
 --------------------------------------------------------------------------------
 ! R1    R(1,10)                 1.9354         estimate D2E/DX2                !
 ! R2    R(1,17)                 2.1031         estimate D2E/DX2                !
 ! R3    R(1,18)                 2.1031         estimate D2E/DX2                !
 ! R4    R(1,20)                 1.886          estimate D2E/DX2                !
 ! R5    R(2,4)                  1.3549         estimate D2E/DX2                !
 ! R6    R(2,10)                 1.3484         estimate D2E/DX2                !
 ! R7    R(2,11)                 1.5017         estimate D2E/DX2                !
 ! R8    R(3,5)                  1.3545         estimate D2E/DX2                !
 ! R9    R(3,10)                 1.3513         estimate D2E/DX2                !
 ! R10   R(3,14)                 1.504          estimate D2E/DX2                !
 ! R11   R(4,6)                  1.4533         estimate D2E/DX2                !
 ! R12   R(4,7)                  1.081          estimate D2E/DX2                !
 ! R13   R(5,6)                  1.4532         estimate D2E/DX2                !
 ! R14   R(5,8)                  1.0807         estimate D2E/DX2                !
 ! R15   R(6,9)                  1.2387         estimate D2E/DX2                !
 ! R16   R(11,12)                1.0913         estimate D2E/DX2                !
 ! R17   R(11,13)                1.088          estimate D2E/DX2                !
 ! R18   R(11,17)                1.4979         estimate D2E/DX2                !
 ! R19   R(14,15)                1.0901         estimate D2E/DX2                !
 ! R20   R(14,16)                1.0896         estimate D2E/DX2                !
 ! R21   R(14,18)                1.5008         estimate D2E/DX2                !
 ! R22   R(17,23)                1.4789         estimate D2E/DX2                !
 ! R23   R(17,27)                1.4885         estimate D2E/DX2                !
 ! R24   R(18,31)                1.477          estimate D2E/DX2                !
 ! R25   R(18,35)                1.4877         estimate D2E/DX2                !
 ! R26   R(19,20)                1.1378         estimate D2E/DX2                !
 ! R27   R(19,21)                1.0909         estimate D2E/DX2                !
 ! R28   R(19,22)                1.0875         estimate D2E/DX2                !
 ! R29   R(19,39)                1.5822         estimate D2E/DX2                !
 ! R30   R(23,24)                1.0901         estimate D2E/DX2                !
 ! R31   R(23,25)                1.092          estimate D2E/DX2                !
 ! R32   R(23,26)                1.0826         estimate D2E/DX2                !
 ! R33   R(27,28)                1.09           estimate D2E/DX2                !
 ! R34   R(27,29)                1.0856         estimate D2E/DX2                !
 ! R35   R(27,30)                1.0901         estimate D2E/DX2                !
 ! R36   R(31,32)                1.0908         estimate D2E/DX2                !
 ! R37   R(31,33)                1.0873         estimate D2E/DX2                !
 ! R38   R(31,34)                1.0863         estimate D2E/DX2                !
 ! R39   R(35,36)                1.0867         estimate D2E/DX2                !
 ! R40   R(35,37)                1.0918         estimate D2E/DX2                !
 ! R41   R(35,38)                1.0873         estimate D2E/DX2                !
 ! R42   R(39,40)                1.0908         estimate D2E/DX2                !
 ! R43   R(39,41)                1.1009         estimate D2E/DX2                !
 ! R44   R(39,42)                1.0876         estimate D2E/DX2                !
 ! A1    A(10,1,17)             82.4729         estimate D2E/DX2                !
 ! A2    A(10,1,18)             83.2627         estimate D2E/DX2                !
 ! A3    A(10,1,20)            162.3748         estimate D2E/DX2                !
 ! A4    A(17,1,18)            163.1291         estimate D2E/DX2                !
 ! A5    A(17,1,20)             86.1681         estimate D2E/DX2                !
 ! A6    A(18,1,20)            105.3733         estimate D2E/DX2                !
 ! A7    A(4,2,10)             120.7043         estimate D2E/DX2                !
 ! A8    A(4,2,11)             127.1862         estimate D2E/DX2                !
 ! A9    A(10,2,11)            111.9252         estimate D2E/DX2                !
 ! A10   A(5,3,10)             120.6791         estimate D2E/DX2                !
 ! A11   A(5,3,14)             126.9838         estimate D2E/DX2                !
 ! A12   A(10,3,14)            112.1109         estimate D2E/DX2                !
 ! A13   A(2,4,6)              120.6002         estimate D2E/DX2                !
 ! A14   A(2,4,7)              120.5871         estimate D2E/DX2                !
 ! A15   A(6,4,7)              118.8098         estimate D2E/DX2                !
 ! A16   A(3,5,6)              120.5833         estimate D2E/DX2                !
 ! A17   A(3,5,8)              120.6016         estimate D2E/DX2                !
 ! A18   A(6,5,8)              118.8089         estimate D2E/DX2                !
 ! A19   A(4,6,5)              115.0872         estimate D2E/DX2                !
 ! A20   A(4,6,9)              122.4604         estimate D2E/DX2                !
 ! A21   A(5,6,9)              122.4505         estimate D2E/DX2                !
 ! A22   A(1,10,2)             118.1452         estimate D2E/DX2                !
 ! A23   A(1,10,3)             117.75           estimate D2E/DX2                !
 ! A24   A(2,10,3)             122.3144         estimate D2E/DX2                !
 ! A25   A(2,11,12)            108.6352         estimate D2E/DX2                !
 ! A26   A(2,11,13)            112.1417         estimate D2E/DX2                !
 ! A27   A(2,11,17)            110.5317         estimate D2E/DX2                !
 ! A28   A(12,11,13)           108.2403         estimate D2E/DX2                !
 ! A29   A(12,11,17)           107.0343         estimate D2E/DX2                !
 ! A30   A(13,11,17)           110.0855         estimate D2E/DX2                !
 ! A31   A(3,14,15)            107.727          estimate D2E/DX2                !
 ! A32   A(3,14,16)            112.313          estimate D2E/DX2                !
 ! A33   A(3,14,18)            111.671          estimate D2E/DX2                !
 ! A34   A(15,14,16)           108.1191         estimate D2E/DX2                !
 ! A35   A(15,14,18)           106.8985         estimate D2E/DX2                !
 ! A36   A(16,14,18)           109.877          estimate D2E/DX2                !
 ! A37   A(1,17,11)            105.856          estimate D2E/DX2                !
 ! A38   A(1,17,23)            115.4797         estimate D2E/DX2                !
 ! A39   A(1,17,27)            108.2485         estimate D2E/DX2                !
 ! A40   A(11,17,23)           109.5011         estimate D2E/DX2                !
 ! A41   A(11,17,27)           108.7034         estimate D2E/DX2                !
 ! A42   A(23,17,27)           108.8554         estimate D2E/DX2                !
 ! A43   A(1,18,14)            105.7659         estimate D2E/DX2                !
 ! A44   A(1,18,31)            115.5083         estimate D2E/DX2                !
 ! A45   A(1,18,35)            108.0567         estimate D2E/DX2                !
 ! A46   A(14,18,31)           109.3939         estimate D2E/DX2                !
 ! A47   A(14,18,35)           108.6312         estimate D2E/DX2                !
 ! A48   A(31,18,35)           109.2637         estimate D2E/DX2                !
 ! A49   A(20,19,21)            99.4756         estimate D2E/DX2                !
 ! A50   A(20,19,22)           107.2534         estimate D2E/DX2                !
 ! A51   A(20,19,39)           115.1645         estimate D2E/DX2                !
 ! A52   A(21,19,22)           106.7556         estimate D2E/DX2                !
 ! A53   A(21,19,39)           114.5207         estimate D2E/DX2                !
 ! A54   A(22,19,39)           112.5455         estimate D2E/DX2                !
 ! A55   A(1,20,19)            132.2497         estimate D2E/DX2                !
 ! A56   A(17,23,24)           109.2138         estimate D2E/DX2                !
 ! A57   A(17,23,25)           109.7796         estimate D2E/DX2                !
 ! A58   A(17,23,26)           109.7982         estimate D2E/DX2                !
 ! A59   A(24,23,25)           108.5809         estimate D2E/DX2                !
 ! A60   A(24,23,26)           109.7786         estimate D2E/DX2                !
 ! A61   A(25,23,26)           109.6693         estimate D2E/DX2                !
 ! A62   A(17,27,28)           109.5516         estimate D2E/DX2                !
 ! A63   A(17,27,29)           110.0701         estimate D2E/DX2                !
 ! A64   A(17,27,30)           109.3895         estimate D2E/DX2                !
 ! A65   A(28,27,29)           109.3223         estimate D2E/DX2                !
 ! A66   A(28,27,30)           109.3015         estimate D2E/DX2                !
 ! A67   A(29,27,30)           109.1893         estimate D2E/DX2                !
 ! A68   A(18,31,32)           109.9747         estimate D2E/DX2                !
 ! A69   A(18,31,33)           109.4098         estimate D2E/DX2                !
 ! A70   A(18,31,34)           109.4478         estimate D2E/DX2                !
 ! A71   A(32,31,33)           108.7296         estimate D2E/DX2                !
 ! A72   A(32,31,34)           109.6485         estimate D2E/DX2                !
 ! A73   A(33,31,34)           109.6152         estimate D2E/DX2                !
 ! A74   A(18,35,36)           109.8381         estimate D2E/DX2                !
 ! A75   A(18,35,37)           109.386          estimate D2E/DX2                !
 ! A76   A(18,35,38)           109.6323         estimate D2E/DX2                !
 ! A77   A(36,35,37)           109.1363         estimate D2E/DX2                !
 ! A78   A(36,35,38)           109.4502         estimate D2E/DX2                !
 ! A79   A(37,35,38)           109.3825         estimate D2E/DX2                !
 ! A80   A(19,39,40)           111.8548         estimate D2E/DX2                !
 ! A81   A(19,39,41)           112.0849         estimate D2E/DX2                !
 ! A82   A(19,39,42)           112.9187         estimate D2E/DX2                !
 ! A83   A(40,39,41)           107.6319         estimate D2E/DX2                !
 ! A84   A(40,39,42)           106.8567         estimate D2E/DX2                !
 ! A85   A(41,39,42)           105.06           estimate D2E/DX2                !
 ! D1    D(17,1,10,2)            1.844          estimate D2E/DX2                !
 ! D2    D(17,1,10,3)          166.9712         estimate D2E/DX2                !
 ! D3    D(18,1,10,2)         -169.1237         estimate D2E/DX2                !
 ! D4    D(18,1,10,3)           -3.9965         estimate D2E/DX2                !
 ! D5    D(20,1,10,2)          -48.4732         estimate D2E/DX2                !
 ! D6    D(20,1,10,3)          116.654          estimate D2E/DX2                !
 ! D7    D(10,1,17,11)          17.4699         estimate D2E/DX2                !
 ! D8    D(10,1,17,23)         138.7867         estimate D2E/DX2                !
 ! D9    D(10,1,17,27)         -98.9314         estimate D2E/DX2                !
 ! D10   D(18,1,17,11)          49.9636         estimate D2E/DX2                !
 ! D11   D(18,1,17,23)         171.2804         estimate D2E/DX2                !
 ! D12   D(18,1,17,27)         -66.4377         estimate D2E/DX2                !
 ! D13   D(20,1,17,11)        -176.036          estimate D2E/DX2                !
 ! D14   D(20,1,17,23)         -54.7192         estimate D2E/DX2                !
 ! D15   D(20,1,17,27)          67.5627         estimate D2E/DX2                !
 ! D16   D(10,1,18,14)         -14.3686         estimate D2E/DX2                !
 ! D17   D(10,1,18,31)        -135.5012         estimate D2E/DX2                !
 ! D18   D(10,1,18,35)         101.8121         estimate D2E/DX2                !
 ! D19   D(17,1,18,14)         -46.7994         estimate D2E/DX2                !
 ! D20   D(17,1,18,31)        -167.932          estimate D2E/DX2                !
 ! D21   D(17,1,18,35)          69.3813         estimate D2E/DX2                !
 ! D22   D(20,1,18,14)        -178.6952         estimate D2E/DX2                !
 ! D23   D(20,1,18,31)          60.1722         estimate D2E/DX2                !
 ! D24   D(20,1,18,35)         -62.5145         estimate D2E/DX2                !
 ! D25   D(10,1,20,19)         180.0            estimate D2E/DX2                !
 ! D26   D(17,1,20,19)         130.1223         estimate D2E/DX2                !
 ! D27   D(18,1,20,19)         -62.3818         estimate D2E/DX2                !
 ! D28   D(10,2,4,6)            -0.4025         estimate D2E/DX2                !
 ! D29   D(10,2,4,7)           178.9583         estimate D2E/DX2                !
 ! D30   D(11,2,4,6)          -175.0544         estimate D2E/DX2                !
 ! D31   D(11,2,4,7)             4.3064         estimate D2E/DX2                !
 ! D32   D(4,2,10,1)           163.2617         estimate D2E/DX2                !
 ! D33   D(4,2,10,3)            -1.1465         estimate D2E/DX2                !
 ! D34   D(11,2,10,1)          -21.3294         estimate D2E/DX2                !
 ! D35   D(11,2,10,3)          174.2623         estimate D2E/DX2                !
 ! D36   D(4,2,11,12)           94.0332         estimate D2E/DX2                !
 ! D37   D(4,2,11,13)          -25.5599         estimate D2E/DX2                !
 ! D38   D(4,2,11,17)         -148.8107         estimate D2E/DX2                !
 ! D39   D(10,2,11,12)         -81.0109         estimate D2E/DX2                !
 ! D40   D(10,2,11,13)         159.396          estimate D2E/DX2                !
 ! D41   D(10,2,11,17)          36.1452         estimate D2E/DX2                !
 ! D42   D(10,3,5,6)             0.1417         estimate D2E/DX2                !
 ! D43   D(10,3,5,8)          -178.939          estimate D2E/DX2                !
 ! D44   D(14,3,5,6)           174.2299         estimate D2E/DX2                !
 ! D45   D(14,3,5,8)            -4.8507         estimate D2E/DX2                !
 ! D46   D(5,3,10,1)          -163.1861         estimate D2E/DX2                !
 ! D47   D(5,3,10,2)             1.2806         estimate D2E/DX2                !
 ! D48   D(14,3,10,1)           21.9088         estimate D2E/DX2                !
 ! D49   D(14,3,10,2)         -173.6245         estimate D2E/DX2                !
 ! D50   D(5,3,14,15)          -91.652          estimate D2E/DX2                !
 ! D51   D(5,3,14,16)           27.302          estimate D2E/DX2                !
 ! D52   D(5,3,14,18)          151.2574         estimate D2E/DX2                !
 ! D53   D(10,3,14,15)          82.8614         estimate D2E/DX2                !
 ! D54   D(10,3,14,16)        -158.1846         estimate D2E/DX2                !
 ! D55   D(10,3,14,18)         -34.2291         estimate D2E/DX2                !
 ! D56   D(2,4,6,5)              1.6626         estimate D2E/DX2                !
 ! D57   D(2,4,6,9)           -178.8229         estimate D2E/DX2                !
 ! D58   D(7,4,6,5)           -177.7094         estimate D2E/DX2                !
 ! D59   D(7,4,6,9)              1.8051         estimate D2E/DX2                !
 ! D60   D(3,5,6,4)             -1.5328         estimate D2E/DX2                !
 ! D61   D(3,5,6,9)            178.9527         estimate D2E/DX2                !
 ! D62   D(8,5,6,4)            177.5641         estimate D2E/DX2                !
 ! D63   D(8,5,6,9)             -1.9504         estimate D2E/DX2                !
 ! D64   D(2,11,17,1)          -32.4741         estimate D2E/DX2                !
 ! D65   D(2,11,17,23)        -157.5743         estimate D2E/DX2                !
 ! D66   D(2,11,17,27)          83.619          estimate D2E/DX2                !
 ! D67   D(12,11,17,1)          85.6653         estimate D2E/DX2                !
 ! D68   D(12,11,17,23)        -39.4349         estimate D2E/DX2                !
 ! D69   D(12,11,17,27)       -158.2416         estimate D2E/DX2                !
 ! D70   D(13,11,17,1)        -156.9091         estimate D2E/DX2                !
 ! D71   D(13,11,17,23)         77.9907         estimate D2E/DX2                !
 ! D72   D(13,11,17,27)        -40.816          estimate D2E/DX2                !
 ! D73   D(3,14,18,1)           29.0199         estimate D2E/DX2                !
 ! D74   D(3,14,18,31)         154.0345         estimate D2E/DX2                !
 ! D75   D(3,14,18,35)         -86.77           estimate D2E/DX2                !
 ! D76   D(15,14,18,1)         -88.5701         estimate D2E/DX2                !
 ! D77   D(15,14,18,31)         36.4444         estimate D2E/DX2                !
 ! D78   D(15,14,18,35)        155.64           estimate D2E/DX2                !
 ! D79   D(16,14,18,1)         154.3359         estimate D2E/DX2                !
 ! D80   D(16,14,18,31)        -80.6496         estimate D2E/DX2                !
 ! D81   D(16,14,18,35)         38.546          estimate D2E/DX2                !
 ! D82   D(1,17,23,24)          64.9469         estimate D2E/DX2                !
 ! D83   D(1,17,23,25)        -176.1108         estimate D2E/DX2                !
 ! D84   D(1,17,23,26)         -55.472          estimate D2E/DX2                !
 ! D85   D(11,17,23,24)       -175.7231         estimate D2E/DX2                !
 ! D86   D(11,17,23,25)        -56.7809         estimate D2E/DX2                !
 ! D87   D(11,17,23,26)         63.858          estimate D2E/DX2                !
 ! D88   D(27,17,23,24)        -57.0105         estimate D2E/DX2                !
 ! D89   D(27,17,23,25)         61.9317         estimate D2E/DX2                !
 ! D90   D(27,17,23,26)       -177.4294         estimate D2E/DX2                !
 ! D91   D(1,17,27,28)         177.9123         estimate D2E/DX2                !
 ! D92   D(1,17,27,29)         -61.8506         estimate D2E/DX2                !
 ! D93   D(1,17,27,30)          58.1209         estimate D2E/DX2                !
 ! D94   D(11,17,27,28)         63.3705         estimate D2E/DX2                !
 ! D95   D(11,17,27,29)       -176.3924         estimate D2E/DX2                !
 ! D96   D(11,17,27,30)        -56.4208         estimate D2E/DX2                !
 ! D97   D(23,17,27,28)        -55.8412         estimate D2E/DX2                !
 ! D98   D(23,17,27,29)         64.3959         estimate D2E/DX2                !
 ! D99   D(23,17,27,30)       -175.6325         estimate D2E/DX2                !
 ! D100  D(1,18,31,32)         176.1031         estimate D2E/DX2                !
 ! D101  D(1,18,31,33)         -64.5359         estimate D2E/DX2                !
 ! D102  D(1,18,31,34)          55.5885         estimate D2E/DX2                !
 ! D103  D(14,18,31,32)         56.9505         estimate D2E/DX2                !
 ! D104  D(14,18,31,33)        176.3115         estimate D2E/DX2                !
 ! D105  D(14,18,31,34)        -63.5642         estimate D2E/DX2                !
 ! D106  D(35,18,31,32)        -61.8534         estimate D2E/DX2                !
 ! D107  D(35,18,31,33)         57.5076         estimate D2E/DX2                !
 ! D108  D(35,18,31,34)        177.632          estimate D2E/DX2                !
 ! D109  D(1,18,35,36)          62.1209         estimate D2E/DX2                !
 ! D110  D(1,18,35,37)        -178.1174         estimate D2E/DX2                !
 ! D111  D(1,18,35,38)         -58.1798         estimate D2E/DX2                !
 ! D112  D(14,18,35,36)        176.4201         estimate D2E/DX2                !
 ! D113  D(14,18,35,37)        -63.8182         estimate D2E/DX2                !
 ! D114  D(14,18,35,38)         56.1193         estimate D2E/DX2                !
 ! D115  D(31,18,35,36)        -64.3028         estimate D2E/DX2                !
 ! D116  D(31,18,35,37)         55.4589         estimate D2E/DX2                !
 ! D117  D(31,18,35,38)        175.3965         estimate D2E/DX2                !
 ! D118  D(21,19,20,1)        -169.1301         estimate D2E/DX2                !
 ! D119  D(22,19,20,1)          79.8995         estimate D2E/DX2                !
 ! D120  D(39,19,20,1)         -46.2216         estimate D2E/DX2                !
 ! D121  D(20,19,39,40)        -63.8142         estimate D2E/DX2                !
 ! D122  D(20,19,39,41)         57.1789         estimate D2E/DX2                !
 ! D123  D(20,19,39,42)        175.6027         estimate D2E/DX2                !
 ! D124  D(21,19,39,40)         50.6567         estimate D2E/DX2                !
 ! D125  D(21,19,39,41)        171.6498         estimate D2E/DX2                !
 ! D126  D(21,19,39,42)        -69.9264         estimate D2E/DX2                !
 ! D127  D(22,19,39,40)        172.8287         estimate D2E/DX2                !
 ! D128  D(22,19,39,41)        -66.1781         estimate D2E/DX2                !
 ! D129  D(22,19,39,42)         52.2456         estimate D2E/DX2                !
 --------------------------------------------------------------------------------
 Trust Radius=3.00D-01 FncErr=1.00D-07 GrdErr=1.00D-06 EigMax=2.50D+02 EigMin=1.00D-04
 Number of steps in this run=    252 maximum allowed number of steps=    252.
 GradGradGradGradGradGradGradGradGradGradGradGradGradGradGradGradGradGrad

                          Input orientation:                          
 ---------------------------------------------------------------------
 Center     Atomic      Atomic             Coordinates (Angstroms)
 Number     Number       Type             X           Y           Z
 ---------------------------------------------------------------------
      1         78           0        0.770694    0.048769   -0.084488
      2          6           0       -1.677975   -1.374801   -0.142310
      3          6           0       -1.901925    0.978172   -0.066981
      4          6           0       -2.997325   -1.552007    0.110178
      5          6           0       -3.228559    0.888210    0.190886
      6          6           0       -3.871178   -0.409196    0.315849
      7          1           0       -3.420756   -2.545797    0.152049
      8          1           0       -3.830904    1.779690    0.292724
      9          8           0       -5.077358   -0.531774    0.569768
     10          7           0       -1.151384   -0.135627   -0.215747
     11          6           0       -0.667684   -2.434134   -0.477241
     12          1           0       -0.589276   -2.510392   -1.563086
     13          1           0       -0.951310   -3.409327   -0.086961
     14          6           0       -1.116725    2.230912   -0.342699
     15          1           0       -1.108730    2.386934   -1.421540
     16          1           0       -1.562116    3.109316    0.123429
     17          7           0        0.686446   -2.049231    0.034531
     18          7           0        0.314160    2.094410    0.088962
     19          6           0        3.533153    0.313788    0.104159
     20          1           0        2.556522   -0.116185    0.498999
     21          1           0        4.238913   -0.268794    0.697905
     22          1           0        3.599455    1.340428    0.456666
     23          6           0        1.726519   -2.772032   -0.728897
     24          1           0        2.704823   -2.547442   -0.303664
     25          1           0        1.555418   -3.848315   -0.658863
     26          1           0        1.699087   -2.465466   -1.766869
     27          6           0        0.783570   -2.439056    1.467797
     28          1           0        0.704729   -3.522484    1.557289
     29          1           0        1.733854   -2.112860    1.879030
     30          1           0       -0.027757   -1.971428    2.025810
     31          6           0        1.157204    3.004446   -0.712638
     32          1           0        0.800648    4.030168   -0.609719
     33          1           0        2.183283    2.954099   -0.356444
     34          1           0        1.118673    2.707395   -1.756780
     35          6           0        0.415177    2.469267    1.525113
     36          1           0        1.432571    2.316917    1.875348
     37          1           0        0.149304    3.521442    1.644592
     38          1           0       -0.265138    1.856360    2.111361
     39          6           0        3.736603    0.195258   -1.460459
     40          1           0        3.793310   -0.844623   -1.784938
     41          1           0        2.920255    0.675638   -2.021592
     42          1           0        4.644059    0.683965   -1.807806
 ---------------------------------------------------------------------
                    Distance matrix (angstroms):
                    1          2          3          4          5
     1  Pt   0.000000
     2  C    2.832997   0.000000
     3  C    2.829662   2.364807   0.000000
     4  C    4.098579   1.354930   2.762805   0.000000
     5  C    4.095670   2.763431   1.354454   2.452477   0.000000
     6  C    4.681557   2.439763   2.439120   1.453250   1.453216
     7  H    4.935177   2.120180   3.843589   1.081048   3.439601
     8  H    4.930830   3.843849   2.119618   3.439241   1.080707
     9  O    5.913104   3.574011   3.573340   2.361914   2.361771
    10  N    1.935359   1.348423   1.351292   2.349438   2.351223
    11  C    2.896203   1.501683   3.651780   2.559382   4.247640
    12  H    3.253471   2.119773   4.016398   3.084966   4.646798
    13  H    3.863125   2.161111   4.489345   2.770321   4.871538
    14  C    2.896683   3.654630   1.503967   4.248792   2.558790
    15  H    3.284350   4.013866   2.109170   4.629061   3.056103
    16  H    3.853853   4.493478   2.166449   4.877287   2.777570
    17  N    2.103061   2.465079   3.984362   3.717946   4.896965
    18  N    2.103130   4.007183   2.486230   4.925722   3.743817
    19  C    2.781547   5.483424   5.478208   6.791787   6.786621
    20  H    1.885961   4.463895   4.625549   5.749607   5.879703
    21  H    3.569528   6.077728   6.312675   7.372598   7.573564
    22  H    3.156441   5.965108   5.538106   7.211362   6.848132
    23  C    3.047258   3.726516   5.260016   4.950476   6.228657
    24  H    3.244874   4.539828   5.805868   5.803158   6.874104
    25  H    4.016586   4.103648   5.966450   5.156736   6.785512
    26  H    3.164443   3.902985   5.264556   5.139455   6.273886
    27  C    2.932410   3.127985   4.609216   4.114019   5.366412
    28  H    3.931111   3.630215   5.448743   4.436453   6.065644
    29  H    3.075015   4.033748   5.153671   5.082071   6.040016
    30  H    3.028544   2.789252   4.073379   3.558637   4.667934
    31  C    3.046307   5.247982   3.725712   6.220804   4.952749
    32  H    4.016006   5.964540   4.112559   6.789958   5.171787
    33  H    3.241961   5.804700   4.547197   6.881964   5.818548
    34  H    3.160054   5.205005   3.869063   6.210433   5.099143
    35  C    2.928484   4.683849   3.182309   5.460573   4.190073
    36  H    3.069777   5.232134   4.084574   6.140715   5.157979
    37  H    3.928779   5.523148   3.688529   6.164056   4.522956
    38  H    3.026894   4.185157   2.862771   4.804846   3.661612
    39  C    3.272823   5.789668   5.860694   7.132014   7.191704
    40  H    3.581325   5.737096   6.221709   7.085519   7.497549
    41  H    2.960735   5.373985   5.212049   6.672676   6.538208
    42  H    4.286753   6.854233   6.779892   8.189565   8.124937
                    6          7          8          9         10
     6  C    0.000000
     7  H    2.189697   0.000000
     8  H    2.189379   4.347166   0.000000
     9  O    1.238697   2.641043   2.640694   0.000000
    10  N    2.784729   3.330802   3.332688   4.023337   0.000000
    11  C    3.871917   2.826284   5.324953   4.915326   2.363362
    12  H    4.326234   3.310622   5.688320   5.348540   2.787615
    13  H    4.205790   2.626970   5.946606   5.073054   3.282336
    14  C    3.871804   5.326376   2.823850   4.914432   2.370195
    15  H    4.297439   5.670404   3.273786   5.313584   2.796260
    16  H    4.212923   5.952786   2.635140   5.080717   3.288373
    17  N    4.851885   4.138780   5.927373   5.984195   2.664984
    18  N    4.882271   5.956937   4.161985   6.016351   2.685839
    19  C    7.442556   7.519067   7.510909   8.664448   4.716906
    20  H    6.436981   6.461520   6.666041   7.645512   3.776216
    21  H    8.120299   8.009571   8.335611   9.320863   5.468802
    22  H    7.674071   8.029875   7.445137   8.877219   5.020095
    23  C    6.165120   5.227015   7.255814   7.279975   3.936531
    24  H    6.942599   6.142507   7.861010   8.086293   4.549166
    25  H    6.498119   5.207345   7.848084   7.516828   4.615970
    26  H    6.292361   5.468226   7.269393   7.424234   3.994911
    27  C    5.207110   4.406693   6.361760   6.228536   3.447340
    28  H    5.672095   4.466346   7.091131   6.584229   4.249660
    29  H    6.063200   5.453430   6.973869   7.113832   4.077026
    30  H    4.487362   3.918332   5.615906   5.448957   3.107617
    31  C    6.164038   7.246420   5.233737   7.281427   3.928936
    32  H    6.510805   7.851360   5.227842   7.533489   4.617303
    33  H    6.958465   7.868461   6.162070   8.107163   4.548209
    34  H    6.237591   7.200422   5.436857   7.368571   3.951040
    35  C    5.302896   6.461467   4.474763   6.331419   3.502882
    36  H    6.163885   7.083116   5.522452   7.224871   4.130917
    37  H    5.777521   7.196138   4.550088   6.700881   4.304277
    38  H    4.621702   5.759845   4.003499   5.589021   3.188867
    39  C    7.835749   7.832072   7.927877   9.073936   5.054820
    40  H    7.959100   7.660852   8.326604   9.183206   5.235937
    41  H    7.263887   7.437122   7.221713   8.493221   4.527413
    42  H    8.843878   8.905820   8.799877  10.081509   6.065768
                   11         12         13         14         15
    11  C    0.000000
    12  H    1.091340   0.000000
    13  H    1.088009   1.765814   0.000000
    14  C    4.688539   4.924176   5.648456   0.000000
    15  H    4.932435   4.926832   5.950002   1.090094   0.000000
    16  H    5.647181   5.947425   6.550577   1.089606   1.764745
    17  N    1.497908   2.095833   2.132338   4.659759   5.002235
    18  N    4.668224   4.974903   5.650087   1.500798   2.095663
    19  C    5.053329   5.267838   5.831682   5.049397   5.307803
    20  H    4.089185   4.458752   4.846960   4.439602   4.836129
    21  H    5.490388   5.783446   6.116974   6.001187   6.335789
    22  H    5.773039   6.037688   6.600391   4.865624   5.175890
    23  C    2.430990   2.475325   2.826481   5.767377   5.927337
    24  H    3.378871   3.526841   3.762594   6.118694   6.335685
    25  H    2.641037   2.684654   2.608346   6.648106   6.823320
    26  H    2.695501   2.297858   3.276823   5.658005   5.616838
    27  C    2.426795   3.328070   2.523590   5.357016   5.934581
    28  H    2.684648   3.526403   2.336413   6.326865   6.861726
    29  H    3.379736   4.171706   3.571562   5.650685   6.262762
    30  H    2.624665   3.672324   2.717408   4.945235   5.661099
    31  C    5.741409   5.846956   6.780397   2.430219   2.453226
    32  H    6.630290   6.754237   7.660856   2.642904   2.646695
    33  H    6.097185   6.245297   7.098696   3.378349   3.506202
    34  H    5.591387   5.493624   6.669889   2.687688   2.275171
    35  C    5.406048   5.944990   6.246914   2.427397   3.318409
    36  H    5.702476   6.262077   6.505645   3.380243   4.163242
    37  H    6.374836   6.871515   7.228083   2.686563   3.502988
    38  H    5.027051   5.716218   5.747252   2.624481   3.670769
    39  C    5.222850   5.103362   6.070919   5.380341   5.318102
    40  H    4.912951   4.693726   5.654401   5.970545   5.882603
    41  H    4.992896   4.762124   5.951366   4.640557   4.418293
    42  H    6.301393   6.136090   7.143144   6.142167   6.011979
                   16         17         18         19         20
    16  H    0.000000
    17  N    5.628014   0.000000
    18  N    2.133456   4.160687   0.000000
    19  C    5.811808   3.700331   3.678690   0.000000
    20  H    5.244815   2.729392   3.175382   1.137798   0.000000
    21  H    6.737476   4.028653   4.621605   1.090886   1.700968
    22  H    5.466427   4.489277   3.390702   1.087496   1.791988
    23  C    6.792042   1.478856   5.132827   3.671538   3.041407
    24  H    7.098457   2.106285   5.236050   3.006507   2.564619
    25  H    7.664178   2.114855   6.116857   4.670839   4.033813
    26  H    6.729552   2.108017   5.114157   3.819528   3.374681
    27  C    6.172034   1.488505   4.761706   4.122847   3.078581
    28  H    7.153692   2.118868   5.818765   4.982826   4.018954
    29  H    6.420021   2.122095   4.787588   3.503750   2.562807
    30  H    5.638020   2.116916   4.516561   4.647046   3.528679
    31  C    2.846877   5.130256   1.476974   3.681295   3.628291
    32  H    2.639721   6.114507   2.114707   4.667728   4.637304
    33  H    3.779204   5.237050   2.105011   3.000924   3.209008
    34  H    3.298993   5.101089   2.104698   3.875843   3.889544
    35  C    2.506804   4.765737   1.487700   4.048083   3.510389
    36  H    3.558829   4.796724   2.119322   3.400306   3.012904
    37  H    2.326530   5.823505   2.117447   4.910439   4.509924
    38  H    2.684013   4.524641   2.117157   4.564581   3.801633
    39  C    6.251149   4.071386   4.209584   1.582236   2.308476
    40  H    6.925033   3.796597   4.924825   2.231207   2.697524
    41  H    5.533132   4.079517   3.641302   2.241740   2.666958
    42  H    6.937478   5.150463   4.933063   2.242042   3.212382
                   21         22         23         24         25
    21  H    0.000000
    22  H    1.748342   0.000000
    23  C    3.822838   4.671807   0.000000
    24  H    2.923835   4.061281   1.090111   0.000000
    25  H    4.674926   5.687314   1.092046   1.771883   0.000000
    26  H    4.165477   4.800035   1.082645   1.777412   1.777805
    27  C    4.152369   4.820383   2.413605   2.615537   2.665416
    28  H    4.880112   5.765303   2.614169   2.900729   2.396073
    29  H    3.327305   4.174780   2.689953   2.428126   3.079699
    30  H    4.781921   5.156285   3.362568   3.636652   3.638216
    31  C    4.711758   3.178178   5.804488   5.778049   6.864532
    32  H    5.657970   4.025568   6.865957   6.854524   7.914707
    33  H    3.965388   2.295784   5.756382   5.526458   6.838019
    34  H    4.961761   3.594749   5.608042   5.678092   6.661344
    35  C    4.775166   3.543372   5.854177   5.809843   6.780984
    36  H    3.993473   2.767955   5.724151   5.479846   6.666889
    37  H    5.655706   4.251062   6.908609   6.867149   7.848336
    38  H    5.176931   4.235479   5.784097   5.834937   6.597870
    39  C    2.264110   2.237318   3.657927   3.150420   4.663755
    40  H    2.587402   3.136370   3.016911   2.505707   3.911313
    41  H    3.166461   2.654246   3.870723   3.658679   4.917922
    42  H    2.711177   2.578754   4.649731   4.057717   5.603689
                   26         27         28         29         30
    26  H    0.000000
    27  C    3.361835   0.000000
    28  H    3.627129   1.089973   0.000000
    29  H    3.663075   1.085613   1.774727   0.000000
    30  H    4.196484   1.090094   1.778151   1.773364   0.000000
    31  C    5.596872   5.875850   6.925180   5.765075   5.801944
    32  H    6.658787   6.794647   7.857969   6.693395   6.606922
    33  H    5.620981   5.862864   6.913366   5.556384   5.901241
    34  H    5.205331   6.082446   7.068649   6.068972   6.124841
    35  C    6.069362   4.922462   5.998830   4.781219   4.490730
    36  H    6.017305   4.817321   5.893176   4.440012   4.532670
    37  H    7.062787   5.996756   7.066329   5.857569   5.508929
    38  H    6.130010   4.468172   5.493596   4.450242   3.836096
    39  C    3.365236   4.922875   5.667510   4.526654   5.569471
    40  H    2.648250   4.709675   5.280223   4.390267   5.512898
    41  H    3.379744   5.142235   5.944844   4.939445   5.663850
    42  H    4.312012   5.948631   6.673560   5.466652   6.601029
                   31         32         33         34         35
    31  C    0.000000
    32  H    1.090793   0.000000
    33  H    1.087312   1.770241   0.000000
    34  H    1.086258   1.779499   1.776288   0.000000
    35  C    2.417550   2.672547   2.627074   3.364882   0.000000
    36  H    2.691876   3.083847   2.439357   3.666519   1.086722
    37  H    2.615278   2.401035   2.909140   3.629281   1.091804
    38  H    3.363945   3.642200   3.645526   4.195439   1.087277
    39  C    3.886396   4.904093   3.353037   3.640357   5.011649
    40  H    4.786879   5.839585   4.366128   4.446494   5.774953
    41  H    3.200790   4.211768   2.916716   2.728344   4.698046
    42  H    4.329224   5.234911   3.649024   4.065122   5.672662
                   36         37         38         39         40
    36  H    0.000000
    37  H    1.775078   0.000000
    38  H    1.774833   1.778239   0.000000
    39  C    4.575763   5.794269   5.615255   0.000000
    40  H    5.382018   6.641007   6.240790   1.090805   0.000000
    41  H    4.482537   5.405338   5.349966   1.100936   1.769018
    42  H    5.152263   6.338229   6.390195   1.087640   1.749537
                   41         42
    41  H    0.000000
    42  H    1.737030   0.000000
 Stoichiometry    C13H24N3OPt(1+)
 Framework group  C1[X(C13H24N3OPt)]
 Deg. of freedom   120
 Full point group                 C1      NOp   1
 Largest Abelian subgroup         C1      NOp   1
 Largest concise Abelian subgroup C1      NOp   1
                         Standard orientation:                         
 ---------------------------------------------------------------------
 Center     Atomic      Atomic             Coordinates (Angstroms)
 Number     Number       Type             X           Y           Z
 ---------------------------------------------------------------------
      1         78           0        0.691764    0.012072    0.010735
      2          6           0       -1.855364   -1.190275   -0.293200
      3          6           0       -1.873625    1.174271   -0.263238
      4          6           0       -3.204449   -1.245463   -0.180245
      5          6           0       -3.222648    1.206714   -0.146493
      6          6           0       -3.988784   -0.026275   -0.078579
      7          1           0       -3.717514   -2.196986   -0.174482
      8          1           0       -3.749787    2.149680   -0.117055
      9          8           0       -5.221022   -0.037036    0.047289
     10          7           0       -1.214772   -0.004073   -0.321641
     11          6           0       -0.914866   -2.340773   -0.509701
     12          1           0       -0.730419   -2.443685   -1.580407
     13          1           0       -1.324255   -3.279707   -0.142866
     14          6           0       -0.954507    2.347390   -0.465554
     15          1           0       -0.819661    2.482163   -1.538846
     16          1           0       -1.365493    3.270179   -0.057151
     17          7           0        0.407345   -2.067712    0.139086
     18          7           0        0.405257    2.092913    0.116407
     19          6           0        3.431886    0.035275    0.488432
     20          1           0        2.384633   -0.299318    0.781502
     21          1           0        4.016411   -0.596364    1.158802
     22          1           0        3.552913    1.058362    0.836701
     23          6           0        1.452425   -2.893591   -0.503368
     24          1           0        2.397054   -2.748560    0.021021
     25          1           0        1.178918   -3.949058   -0.442138
     26          1           0        1.561433   -2.605003   -1.541132
     27          6           0        0.318511   -2.438086    1.578037
     28          1           0        0.133703   -3.508466    1.668448
     29          1           0        1.245983   -2.189645    2.084621
     30          1           0       -0.501441   -1.890349    2.042762
     31          6           0        1.405909    2.909913   -0.599596
     32          1           0        1.134159    3.964863   -0.544268
     33          1           0        2.380377    2.775633   -0.136316
     34          1           0        1.450331    2.598217   -1.639225
     35          6           0        0.388689    2.483805    1.551740
     36          1           0        1.346013    2.248598    2.009095
     37          1           0        0.207399    3.557389    1.632898
     38          1           0       -0.401552    1.944362    2.068161
     39          6           0        3.786489   -0.129623   -1.044714
     40          1           0        3.783172   -1.176255   -1.351970
     41          1           0        3.079837    0.410609   -1.693444
     42          1           0        4.765537    0.270455   -1.298415
 ---------------------------------------------------------------------
 Rotational constants (GHZ):           0.5294228           0.2913085           0.2087935
 Standard basis: def2TZVPP (5D, 7F)
 There are  1043 symmetry adapted cartesian basis functions of A   symmetry.
 There are   919 symmetry adapted basis functions of A   symmetry.
   919 basis functions,  1375 primitive gaussians,  1043 cartesian basis functions
    74 alpha electrons       74 beta electrons
       nuclear repulsion energy      1685.1511893582 Hartrees.
 NAtoms=   42 NActive=   42 NUniq=   42 SFac= 1.00D+00 NAtFMM=   60 NAOKFM=F Big=F
 Integral buffers will be    131072 words long.
 Raffenetti 2 integral format.
 Two-electron integral symmetry is turned on.
 Nuclear repulsion after empirical dispersion term =     1685.1034295207 Hartrees.
 ------------------------------------------------------------------------------
 Polarizable Continuum Model (PCM)
 =================================
 Model                : PCM.
 Atomic radii         : UFF (Universal Force Field).
 Polarization charges : Total charges.
 Charge compensation  : None.
 Solution method      : On-the-fly selection.
 Cavity type          : Scaled VdW (van der Waals Surface) (Alpha=1.100).
 Cavity algorithm     : GePol (No added spheres)
                        Default sphere list used, NSphG=   42.
                        Lebedev-Laikov grids with approx.  5.0 points / Ang**2.
                        Smoothing algorithm: York/Karplus (Gamma=1.0000).
                        Polarization charges: spherical gaussians, with
                                              point-specific exponents (IZeta= 3).
                        Self-potential: point-specific (ISelfS= 7).
                        Self-field    : sphere-specific E.n sum rule (ISelfD= 2).
 1st derivatives      : Analytical E(r).r(x)/FMM algorithm (CHGder, D1EAlg=3).
                        Cavity 1st derivative terms included.
 Solvent              : Dichloromethane, Eps=   8.930000 Eps(inf)=   2.028346
 ------------------------------------------------------------------------------
 One-electron integrals computed using PRISM.
   1 Symmetry operations used in ECPInt.
 ECPInt:  NShTT=   60378 NPrTT=  155307 LenC2=   54137 LenP2D=  105317.
 LDataN:  DoStor=T MaxTD1= 9 Len=  602
 Number of processors reduced to  38 by ecpmxn.
 NBasis=   919 RedAO= T EigKep=  1.83D-05  NBF=   919
 NBsUse=   919 1.00D-06 EigRej= -1.00D+00 NBFU=   919
 Defaulting to unpruned grid for atomic number  78.
 ExpMin= 4.92D-02 ExpMax= 2.70D+04 ExpMxC= 9.22D+02 IAcc=3 IRadAn=         5 AccDes= 0.00D+00
 Harris functional with IExCor= 4639 and IRadAn=       5 diagonalized for initial guess.
 HarFok:  IExCor= 4639 AccDes= 0.00D+00 IRadAn=         5 IDoV= 1 UseB2=F ITyADJ=14
 ICtDFT=  3500011 ScaDFX=  1.000000  1.000000  1.000000  1.000000
 Defaulting to unpruned grid for atomic number  78.
 FoFCou: FMM=F IPFlag=           0 FMFlag=      100000 FMFlg1=           0
         NFxFlg=           0 DoJE=T BraDBF=F KetDBF=T FulRan=T
         wScrn=  0.000000 ICntrl=       500 IOpCl=  0 I1Cent=   200000004 NGrid=           0
         NMat0=    1 NMatS0=      1 NMatT0=    0 NMatD0=    1 NMtDS0=    0 NMtDT0=    0
 Petite list used in FoFCou.
 Requested convergence on RMS density matrix=1.00D-08 within 128 cycles.
 Requested convergence on MAX density matrix=1.00D-06.
 Requested convergence on             energy=1.00D-06.
 No special actions if energy rises.
 Defaulting to unpruned grid for atomic number  78.
 Defaulting to unpruned grid for atomic number  78.
 Defaulting to unpruned grid for atomic number  78.
 Defaulting to unpruned grid for atomic number  78.
 Defaulting to unpruned grid for atomic number  78.
 Defaulting to unpruned grid for atomic number  78.
 Defaulting to unpruned grid for atomic number  78.
 Defaulting to unpruned grid for atomic number  78.
 Defaulting to unpruned grid for atomic number  78.
 Defaulting to unpruned grid for atomic number  78.
 Defaulting to unpruned grid for atomic number  78.
 Defaulting to unpruned grid for atomic number  78.
 Defaulting to unpruned grid for atomic number  78.
 Defaulting to unpruned grid for atomic number  78.
 Defaulting to unpruned grid for atomic number  78.
 Defaulting to unpruned grid for atomic number  78.
 Defaulting to unpruned grid for atomic number  78.
 Defaulting to unpruned grid for atomic number  78.
 Defaulting to unpruned grid for atomic number  78.
 Defaulting to unpruned grid for atomic number  78.
 Defaulting to unpruned grid for atomic number  78.
 Defaulting to unpruned grid for atomic number  78.
 Defaulting to unpruned grid for atomic number  78.
 Defaulting to unpruned grid for atomic number  78.
 Defaulting to unpruned grid for atomic number  78.
 Defaulting to unpruned grid for atomic number  78.
 Defaulting to unpruned grid for atomic number  78.
 Defaulting to unpruned grid for atomic number  78.
 Defaulting to unpruned grid for atomic number  78.
 Defaulting to unpruned grid for atomic number  78.
 Defaulting to unpruned grid for atomic number  78.
 Defaulting to unpruned grid for atomic number  78.
 Defaulting to unpruned grid for atomic number  78.
 Defaulting to unpruned grid for atomic number  78.
 Defaulting to unpruned grid for atomic number  78.
 Defaulting to unpruned grid for atomic number  78.
 Defaulting to unpruned grid for atomic number  78.
 Defaulting to unpruned grid for atomic number  78.
 Defaulting to unpruned grid for atomic number  78.
 Defaulting to unpruned grid for atomic number  78.
 Defaulting to unpruned grid for atomic number  78.
 Defaulting to unpruned grid for atomic number  78.
 Defaulting to unpruned grid for atomic number  78.
 Defaulting to unpruned grid for atomic number  78.
 Defaulting to unpruned grid for atomic number  78.
 Defaulting to unpruned grid for atomic number  78.
 Defaulting to unpruned grid for atomic number  78.
 Defaulting to unpruned grid for atomic number  78.
 Inv3:  Mode=1 IEnd=    22869363.
 Iteration    1 A*A^-1 deviation from unit magnitude is 3.33D-15 for   1505.
 Iteration    1 A*A^-1 deviation from orthogonality  is 1.95D-15 for   1897    347.
 Iteration    1 A^-1*A deviation from unit magnitude is 3.33D-15 for    105.
 Iteration    1 A^-1*A deviation from orthogonality  is 2.66D-15 for   2644    789.
 Error on total polarization charges =  0.02088
 SCF Done:  E(RwB97XD) =  -868.657595082     A.U. after   19 cycles
            NFock= 19  Conv=0.34D-08     -V/T= 2.1056

 **********************************************************************

            Population analysis using the SCF Density.

 **********************************************************************

 Orbital symmetries:
       Occupied  (A) (A) (A) (A) (A) (A) (A) (A) (A) (A) (A) (A)
                 (A) (A) (A) (A) (A) (A) (A) (A) (A) (A) (A) (A)
                 (A) (A) (A) (A) (A) (A) (A) (A) (A) (A) (A) (A)
                 (A) (A) (A) (A) (A) (A) (A) (A) (A) (A) (A) (A)
                 (A) (A) (A) (A) (A) (A) (A) (A) (A) (A) (A) (A)
                 (A) (A) (A) (A) (A) (A) (A) (A) (A) (A) (A) (A)
                 (A) (A)
       Virtual   (A) (A) (A) (A) (A) (A) (A) (A) (A) (A) (A) (A)
                 (A) (A) (A) (A) (A) (A) (A) (A) (A) (A) (A) (A)
                 (A) (A) (A) (A) (A) (A) (A) (A) (A) (A) (A) (A)
                 (A) (A) (A) (A) (A) (A) (A) (A) (A) (A) (A) (A)
                 (A) (A) (A) (A) (A) (A) (A) (A) (A) (A) (A) (A)
                 (A) (A) (A) (A) (A) (A) (A) (A) (A) (A) (A) (A)
                 (A) (A) (A) (A) (A) (A) (A) (A) (A) (A) (A) (A)
                 (A) (A) (A) (A) (A) (A) (A) (A) (A) (A) (A) (A)
                 (A) (A) (A) (A) (A) (A) (A) (A) (A) (A) (A) (A)
                 (A) (A) (A) (A) (A) (A) (A) (A) (A) (A) (A) (A)
                 (A) (A) (A) (A) (A) (A) (A) (A) (A) (A) (A) (A)
                 (A) (A) (A) (A) (A) (A) (A) (A) (A) (A) (A) (A)
                 (A) (A) (A) (A) (A) (A) (A) (A) (A) (A) (A) (A)
                 (A) (A) (A) (A) (A) (A) (A) (A) (A) (A) (A) (A)
                 (A) (A) (A) (A) (A) (A) (A) (A) (A) (A) (A) (A)
                 (A) (A) (A) (A) (A) (A) (A) (A) (A) (A) (A) (A)
                 (A) (A) (A) (A) (A) (A) (A) (A) (A) (A) (A) (A)
                 (A) (A) (A) (A) (A) (A) (A) (A) (A) (A) (A) (A)
                 (A) (A) (A) (A) (A) (A) (A) (A) (A) (A) (A) (A)
                 (A) (A) (A) (A) (A) (A) (A) (A) (A) (A) (A) (A)
                 (A) (A) (A) (A) (A) (A) (A) (A) (A) (A) (A) (A)
                 (A) (A) (A) (A) (A) (A) (A) (A) (A) (A) (A) (A)
                 (A) (A) (A) (A) (A) (A) (A) (A) (A) (A) (A) (A)
                 (A) (A) (A) (A) (A) (A) (A) (A) (A) (A) (A) (A)
                 (A) (A) (A) (A) (A) (A) (A) (A) (A) (A) (A) (A)
                 (A) (A) (A) (A) (A) (A) (A) (A) (A) (A) (A) (A)
                 (A) (A) (A) (A) (A) (A) (A) (A) (A) (A) (A) (A)
                 (A) (A) (A) (A) (A) (A) (A) (A) (A) (A) (A) (A)
                 (A) (A) (A) (A) (A) (A) (A) (A) (A) (A) (A) (A)
                 (A) (A) (A) (A) (A) (A) (A) (A) (A) (A) (A) (A)
                 (A) (A) (A) (A) (A) (A) (A) (A) (A) (A) (A) (A)
                 (A) (A) (A) (A) (A) (A) (A) (A) (A) (A) (A) (A)
                 (A) (A) (A) (A) (A) (A) (A) (A) (A) (A) (A) (A)
                 (A) (A) (A) (A) (A) (A) (A) (A) (A) (A) (A) (A)
                 (A) (A) (A) (A) (A) (A) (A) (A) (A) (A) (A) (A)
                 (A) (A) (A) (A) (A) (A) (A) (A) (A) (A) (A) (A)
                 (A) (A) (A) (A) (A) (A) (A) (A) (A) (A) (A) (A)
                 (A) (A) (A) (A) (A) (A) (A) (A) (A) (A) (A) (A)
                 (A) (A) (A) (A) (A) (A) (A) (A) (A) (A) (A) (A)
                 (A) (A) (A) (A) (A) (A) (A) (A) (A) (A) (A) (A)
                 (A) (A) (A) (A) (A) (A) (A) (A) (A) (A) (A) (A)
                 (A) (A) (A) (A) (A) (A) (A) (A) (A) (A) (A) (A)
                 (A) (A) (A) (A) (A) (A) (A) (A) (A) (A) (A) (A)
                 (A) (A) (A) (A) (A) (A) (A) (A) (A) (A) (A) (A)
                 (A) (A) (A) (A) (A) (A) (A) (A) (A) (A) (A) (A)
                 (A) (A) (A) (A) (A) (A) (A) (A) (A) (A) (A) (A)
                 (A) (A) (A) (A) (A) (A) (A) (A) (A) (A) (A) (A)
                 (A) (A) (A) (A) (A) (A) (A) (A) (A) (A) (A) (A)
                 (A) (A) (A) (A) (A) (A) (A) (A) (A) (A) (A) (A)
                 (A) (A) (A) (A) (A) (A) (A) (A) (A) (A) (A) (A)
                 (A) (A) (A) (A) (A) (A) (A) (A) (A) (A) (A) (A)
                 (A) (A) (A) (A) (A) (A) (A) (A) (A) (A) (A) (A)
                 (A) (A) (A) (A) (A) (A) (A) (A) (A) (A) (A) (A)
                 (A) (A) (A) (A) (A) (A) (A) (A) (A) (A) (A) (A)
                 (A) (A) (A) (A) (A) (A) (A) (A) (A) (A) (A) (A)
                 (A) (A) (A) (A) (A) (A) (A) (A) (A) (A) (A) (A)
                 (A) (A) (A) (A) (A) (A) (A) (A) (A) (A) (A) (A)
                 (A) (A) (A) (A) (A) (A) (A) (A) (A) (A) (A) (A)
                 (A) (A) (A) (A) (A) (A) (A) (A) (A) (A) (A) (A)
                 (A) (A) (A) (A) (A) (A) (A) (A) (A) (A) (A) (A)
                 (A) (A) (A) (A) (A) (A) (A) (A) (A) (A) (A) (A)
                 (A) (A) (A) (A) (A) (A) (A) (A) (A) (A) (A) (A)
                 (A) (A) (A) (A) (A) (A) (A) (A) (A) (A) (A) (A)
                 (A) (A) (A) (A) (A) (A) (A) (A) (A) (A) (A) (A)
                 (A) (A) (A) (A) (A) (A) (A) (A) (A) (A) (A) (A)
                 (A) (A) (A) (A) (A) (A) (A) (A) (A) (A) (A) (A)
                 (A) (A) (A) (A) (A) (A) (A) (A) (A) (A) (A) (A)
                 (A) (A) (A) (A) (A) (A) (A) (A) (A) (A) (A) (A)
                 (A) (A) (A) (A) (A) (A) (A) (A) (A) (A) (A) (A)
                 (A) (A) (A) (A) (A) (A) (A) (A) (A) (A) (A) (A)
                 (A) (A) (A) (A) (A)
 The electronic state is 1-A.
 Alpha  occ. eigenvalues --  -19.20586 -14.55232 -14.55156 -14.51053 -10.36652
 Alpha  occ. eigenvalues --  -10.36621 -10.36615 -10.36405 -10.36395 -10.34583
 Alpha  occ. eigenvalues --  -10.34550 -10.34534 -10.34506 -10.34363 -10.30865
 Alpha  occ. eigenvalues --  -10.29800 -10.29782  -4.08492  -2.33488  -2.33145
 Alpha  occ. eigenvalues --   -2.29490  -1.12603  -1.11279  -1.10241  -1.08667
 Alpha  occ. eigenvalues --   -0.94241  -0.89512  -0.88962  -0.87088  -0.85694
 Alpha  occ. eigenvalues --   -0.85636  -0.83503  -0.76746  -0.76516  -0.75824
 Alpha  occ. eigenvalues --   -0.74366  -0.69830  -0.66115  -0.63803  -0.63057
 Alpha  occ. eigenvalues --   -0.62086  -0.61751  -0.60934  -0.60065  -0.59312
 Alpha  occ. eigenvalues --   -0.57741  -0.56379  -0.55723  -0.54935  -0.53788
 Alpha  occ. eigenvalues --   -0.53072  -0.53045  -0.51791  -0.51368  -0.50934
 Alpha  occ. eigenvalues --   -0.50556  -0.50324  -0.49873  -0.49787  -0.49210
 Alpha  occ. eigenvalues --   -0.48813  -0.48019  -0.47638  -0.47458  -0.47063
 Alpha  occ. eigenvalues --   -0.45948  -0.43151  -0.40111  -0.39147  -0.38297
 Alpha  occ. eigenvalues --   -0.36662  -0.35730  -0.33196  -0.30333
 Alpha virt. eigenvalues --   -0.02821   0.02595   0.03136   0.05150   0.06681
 Alpha virt. eigenvalues --    0.09476   0.09604   0.10513   0.12103   0.12391
 Alpha virt. eigenvalues --    0.12803   0.13937   0.14083   0.14387   0.14535
 Alpha virt. eigenvalues --    0.14652   0.15239   0.15545   0.16452   0.16739
 Alpha virt. eigenvalues --    0.17124   0.17956   0.18432   0.18514   0.18973
 Alpha virt. eigenvalues --    0.19291   0.19660   0.19887   0.20175   0.20535
 Alpha virt. eigenvalues --    0.21049   0.21325   0.21591   0.22078   0.22270
 Alpha virt. eigenvalues --    0.22756   0.23393   0.23963   0.25325   0.25573
 Alpha virt. eigenvalues --    0.26207   0.27382   0.28244   0.28399   0.28831
 Alpha virt. eigenvalues --    0.29332   0.29940   0.30503   0.30799   0.31433
 Alpha virt. eigenvalues --    0.31653   0.32174   0.33004   0.33152   0.33901
 Alpha virt. eigenvalues --    0.34838   0.35241   0.35510   0.37164   0.37726
 Alpha virt. eigenvalues --    0.38075   0.38117   0.38329   0.38952   0.39184
 Alpha virt. eigenvalues --    0.39427   0.40315   0.40848   0.41622   0.42183
 Alpha virt. eigenvalues --    0.42525   0.43110   0.43267   0.44264   0.44432
 Alpha virt. eigenvalues --    0.44558   0.44916   0.45924   0.46270   0.46538
 Alpha virt. eigenvalues --    0.46845   0.47150   0.47681   0.47854   0.48145
 Alpha virt. eigenvalues --    0.48444   0.48711   0.49282   0.49502   0.49831
 Alpha virt. eigenvalues --    0.50161   0.50430   0.50652   0.51097   0.51286
 Alpha virt. eigenvalues --    0.51692   0.52272   0.52582   0.53211   0.53750
 Alpha virt. eigenvalues --    0.53778   0.54806   0.55050   0.55258   0.55661
 Alpha virt. eigenvalues --    0.56258   0.56879   0.57132   0.57616   0.58178
 Alpha virt. eigenvalues --    0.58830   0.59044   0.59853   0.60275   0.61229
 Alpha virt. eigenvalues --    0.62067   0.62364   0.63144   0.63906   0.64193
 Alpha virt. eigenvalues --    0.64845   0.65272   0.66026   0.66537   0.67500
 Alpha virt. eigenvalues --    0.67777   0.68459   0.69374   0.70070   0.71214
 Alpha virt. eigenvalues --    0.71517   0.71763   0.72658   0.73523   0.73906
 Alpha virt. eigenvalues --    0.75006   0.75773   0.76480   0.77048   0.78354
 Alpha virt. eigenvalues --    0.79053   0.79505   0.80021   0.80661   0.82120
 Alpha virt. eigenvalues --    0.82631   0.83107   0.83955   0.84379   0.85819
 Alpha virt. eigenvalues --    0.85999   0.86794   0.87964   0.88913   0.89076
 Alpha virt. eigenvalues --    0.89692   0.90140   0.90529   0.91723   0.92400
 Alpha virt. eigenvalues --    0.92975   0.93168   0.94186   0.94605   0.95594
 Alpha virt. eigenvalues --    0.95823   0.96133   0.97212   0.98008   0.98234
 Alpha virt. eigenvalues --    0.99088   0.99685   1.00195   1.00658   1.00895
 Alpha virt. eigenvalues --    1.01735   1.02228   1.03144   1.03551   1.03629
 Alpha virt. eigenvalues --    1.03900   1.04743   1.05174   1.05780   1.05958
 Alpha virt. eigenvalues --    1.06410   1.06711   1.07758   1.08083   1.08748
 Alpha virt. eigenvalues --    1.09073   1.09686   1.10558   1.11293   1.12337
 Alpha virt. eigenvalues --    1.13166   1.13655   1.14064   1.14352   1.15547
 Alpha virt. eigenvalues --    1.15707   1.16382   1.17315   1.17758   1.18637
 Alpha virt. eigenvalues --    1.18881   1.19052   1.19505   1.20173   1.20952
 Alpha virt. eigenvalues --    1.21683   1.23183   1.23281   1.23980   1.24100
 Alpha virt. eigenvalues --    1.24592   1.25241   1.25340   1.26330   1.27739
 Alpha virt. eigenvalues --    1.28651   1.28877   1.29181   1.29731   1.29926
 Alpha virt. eigenvalues --    1.30656   1.30985   1.31654   1.32203   1.32359
 Alpha virt. eigenvalues --    1.33603   1.34555   1.34975   1.35042   1.35959
 Alpha virt. eigenvalues --    1.36433   1.37041   1.37115   1.37869   1.39557
 Alpha virt. eigenvalues --    1.39795   1.40324   1.40900   1.41744   1.42272
 Alpha virt. eigenvalues --    1.43141   1.43376   1.44998   1.45386   1.45731
 Alpha virt. eigenvalues --    1.46462   1.46740   1.47442   1.48051   1.48441
 Alpha virt. eigenvalues --    1.49435   1.50396   1.50578   1.50848   1.51287
 Alpha virt. eigenvalues --    1.51975   1.52424   1.52691   1.53903   1.54219
 Alpha virt. eigenvalues --    1.54749   1.55264   1.55897   1.56454   1.56574
 Alpha virt. eigenvalues --    1.57807   1.58252   1.58709   1.59205   1.60091
 Alpha virt. eigenvalues --    1.60297   1.61012   1.61677   1.62295   1.62789
 Alpha virt. eigenvalues --    1.63615   1.64248   1.64847   1.64919   1.65698
 Alpha virt. eigenvalues --    1.66414   1.66838   1.67326   1.68606   1.69295
 Alpha virt. eigenvalues --    1.69869   1.70941   1.71619   1.72223   1.72603
 Alpha virt. eigenvalues --    1.73212   1.74415   1.75003   1.75503   1.76317
 Alpha virt. eigenvalues --    1.78170   1.79257   1.80381   1.80537   1.81294
 Alpha virt. eigenvalues --    1.82812   1.83293   1.83435   1.84314   1.84964
 Alpha virt. eigenvalues --    1.86400   1.87453   1.88406   1.89076   1.89395
 Alpha virt. eigenvalues --    1.90497   1.91055   1.92867   1.94393   1.95171
 Alpha virt. eigenvalues --    1.95753   1.96249   1.97645   1.98969   1.99066
 Alpha virt. eigenvalues --    2.01017   2.03583   2.04923   2.05218   2.06963
 Alpha virt. eigenvalues --    2.07825   2.08864   2.11660   2.11775   2.13626
 Alpha virt. eigenvalues --    2.14173   2.15684   2.18577   2.18889   2.20068
 Alpha virt. eigenvalues --    2.20370   2.21383   2.22145   2.22942   2.24013
 Alpha virt. eigenvalues --    2.25422   2.26862   2.26945   2.28237   2.28804
 Alpha virt. eigenvalues --    2.29953   2.31938   2.32860   2.35077   2.36145
 Alpha virt. eigenvalues --    2.37622   2.38438   2.40436   2.42015   2.42550
 Alpha virt. eigenvalues --    2.43765   2.47647   2.48411   2.52317   2.52704
 Alpha virt. eigenvalues --    2.53482   2.57392   2.57732   2.58237   2.58617
 Alpha virt. eigenvalues --    2.60096   2.61741   2.62119   2.62308   2.63531
 Alpha virt. eigenvalues --    2.64804   2.65054   2.65763   2.66286   2.67339
 Alpha virt. eigenvalues --    2.67491   2.69057   2.69884   2.70759   2.71174
 Alpha virt. eigenvalues --    2.71906   2.72084   2.73836   2.74339   2.74817
 Alpha virt. eigenvalues --    2.76304   2.76906   2.78048   2.78608   2.80010
 Alpha virt. eigenvalues --    2.80877   2.82207   2.82791   2.83077   2.83432
 Alpha virt. eigenvalues --    2.84108   2.84886   2.86005   2.86503   2.87302
 Alpha virt. eigenvalues --    2.87512   2.88118   2.88370   2.88688   2.89290
 Alpha virt. eigenvalues --    2.89797   2.90484   2.91299   2.92379   2.92735
 Alpha virt. eigenvalues --    2.93269   2.93743   2.94256   2.94554   2.95341
 Alpha virt. eigenvalues --    2.96030   2.96207   2.97076   2.97736   2.98968
 Alpha virt. eigenvalues --    2.99427   2.99936   3.00408   3.00681   3.01511
 Alpha virt. eigenvalues --    3.01864   3.02582   3.03213   3.03505   3.04117
 Alpha virt. eigenvalues --    3.05184   3.05704   3.06010   3.06418   3.07396
 Alpha virt. eigenvalues --    3.08450   3.08881   3.08986   3.09712   3.11002
 Alpha virt. eigenvalues --    3.11730   3.12041   3.12799   3.13404   3.14324
 Alpha virt. eigenvalues --    3.14732   3.15253   3.15773   3.16679   3.16778
 Alpha virt. eigenvalues --    3.17898   3.18708   3.19348   3.19448   3.20479
 Alpha virt. eigenvalues --    3.20908   3.22049   3.22192   3.22814   3.23346
 Alpha virt. eigenvalues --    3.23854   3.24145   3.25247   3.25565   3.26512
 Alpha virt. eigenvalues --    3.26907   3.27232   3.27955   3.28493   3.28851
 Alpha virt. eigenvalues --    3.29220   3.30646   3.31313   3.31713   3.32389
 Alpha virt. eigenvalues --    3.34238   3.34770   3.35131   3.35939   3.37040
 Alpha virt. eigenvalues --    3.37229   3.37556   3.38441   3.38611   3.40113
 Alpha virt. eigenvalues --    3.41180   3.42237   3.43225   3.43560   3.44269
 Alpha virt. eigenvalues --    3.44521   3.44867   3.45622   3.45767   3.46198
 Alpha virt. eigenvalues --    3.47016   3.48328   3.48443   3.48641   3.49615
 Alpha virt. eigenvalues --    3.50266   3.50563   3.50968   3.51968   3.52478
 Alpha virt. eigenvalues --    3.53949   3.54343   3.54834   3.54947   3.55340
 Alpha virt. eigenvalues --    3.55914   3.56184   3.56489   3.57262   3.58642
 Alpha virt. eigenvalues --    3.59569   3.60247   3.60418   3.61542   3.61886
 Alpha virt. eigenvalues --    3.62204   3.62968   3.63583   3.63912   3.64616
 Alpha virt. eigenvalues --    3.64756   3.65006   3.66092   3.67212   3.67593
 Alpha virt. eigenvalues --    3.67756   3.69193   3.69689   3.70299   3.70917
 Alpha virt. eigenvalues --    3.71192   3.72350   3.72774   3.73738   3.74627
 Alpha virt. eigenvalues --    3.74854   3.75144   3.75613   3.76083   3.76306
 Alpha virt. eigenvalues --    3.76773   3.77547   3.77925   3.78980   3.79551
 Alpha virt. eigenvalues --    3.80025   3.80190   3.81769   3.82349   3.82675
 Alpha virt. eigenvalues --    3.83373   3.83599   3.84460   3.84987   3.86241
 Alpha virt. eigenvalues --    3.86520   3.86598   3.87305   3.88203   3.88580
 Alpha virt. eigenvalues --    3.89490   3.90267   3.90758   3.92707   3.93072
 Alpha virt. eigenvalues --    3.93661   3.94440   3.95920   3.96479   3.97096
 Alpha virt. eigenvalues --    3.98109   3.99382   4.00216   4.00311   4.01970
 Alpha virt. eigenvalues --    4.03008   4.03242   4.03419   4.03956   4.04584
 Alpha virt. eigenvalues --    4.05867   4.06170   4.07246   4.08445   4.08703
 Alpha virt. eigenvalues --    4.09229   4.10277   4.11003   4.11641   4.13071
 Alpha virt. eigenvalues --    4.14163   4.14879   4.15450   4.15578   4.16175
 Alpha virt. eigenvalues --    4.16418   4.17240   4.18105   4.18234   4.19140
 Alpha virt. eigenvalues --    4.19881   4.20037   4.20453   4.21193   4.21418
 Alpha virt. eigenvalues --    4.22379   4.22770   4.23647   4.23843   4.24530
 Alpha virt. eigenvalues --    4.24729   4.25410   4.26760   4.26941   4.27439
 Alpha virt. eigenvalues --    4.27877   4.28380   4.28824   4.29141   4.29669
 Alpha virt. eigenvalues --    4.30849   4.31045   4.31784   4.32069   4.32379
 Alpha virt. eigenvalues --    4.32784   4.33490   4.33759   4.34134   4.34828
 Alpha virt. eigenvalues --    4.35359   4.36092   4.36424   4.37306   4.38384
 Alpha virt. eigenvalues --    4.38969   4.39486   4.40125   4.41298   4.42704
 Alpha virt. eigenvalues --    4.43756   4.44974   4.45555   4.46209   4.46795
 Alpha virt. eigenvalues --    4.48029   4.48541   4.49012   4.50630   4.52024
 Alpha virt. eigenvalues --    4.52365   4.52620   4.53018   4.56212   4.56844
 Alpha virt. eigenvalues --    4.57241   4.57492   4.59365   4.59480   4.62761
 Alpha virt. eigenvalues --    4.63496   4.64009   4.66901   4.67571   4.68666
 Alpha virt. eigenvalues --    4.70447   4.71940   4.73204   4.74361   4.74796
 Alpha virt. eigenvalues --    4.75501   4.76300   4.77191   4.78170   4.79223
 Alpha virt. eigenvalues --    4.79755   4.81016   4.83516   4.84081   4.85508
 Alpha virt. eigenvalues --    4.87086   4.87555   4.88195   4.89360   4.89674
 Alpha virt. eigenvalues --    4.90614   4.91626   4.92206   4.94176   4.94850
 Alpha virt. eigenvalues --    4.95599   4.96491   4.98774   5.00188   5.02244
 Alpha virt. eigenvalues --    5.05258   5.05824   5.06330   5.06608   5.07457
 Alpha virt. eigenvalues --    5.08680   5.09231   5.10223   5.10981   5.11355
 Alpha virt. eigenvalues --    5.12773   5.14011   5.14766   5.15007   5.17625
 Alpha virt. eigenvalues --    5.18160   5.18764   5.19660   5.20122   5.21149
 Alpha virt. eigenvalues --    5.21276   5.22341   5.23013   5.24559   5.25097
 Alpha virt. eigenvalues --    5.25522   5.26183   5.26983   5.27320   5.28554
 Alpha virt. eigenvalues --    5.29310   5.29383   5.31068   5.31435   5.31599
 Alpha virt. eigenvalues --    5.32061   5.33288   5.33510   5.34518   5.35482
 Alpha virt. eigenvalues --    5.35845   5.36529   5.36809   5.38085   5.39542
 Alpha virt. eigenvalues --    5.40187   5.40412   5.41036   5.42120   5.42726
 Alpha virt. eigenvalues --    5.44110   5.44678   5.44830   5.46715   5.47160
 Alpha virt. eigenvalues --    5.48941   5.49689   5.50725   5.52278   5.53635
 Alpha virt. eigenvalues --    5.54036   5.54875   5.55380   5.56031   5.56949
 Alpha virt. eigenvalues --    5.57814   5.58045   5.58878   5.59951   5.62028
 Alpha virt. eigenvalues --    5.62487   5.63885   5.64662   5.66386   5.67393
 Alpha virt. eigenvalues --    5.67944   5.68981   5.70418   5.71107   5.71548
 Alpha virt. eigenvalues --    5.73096   5.73526   5.74998   5.75785   5.76171
 Alpha virt. eigenvalues --    5.77635   5.77723   5.77927   5.78444   5.79351
 Alpha virt. eigenvalues --    5.79592   5.79903   5.81224   5.82265   5.83689
 Alpha virt. eigenvalues --    5.86666   5.89975   5.90816   5.96181   6.00484
 Alpha virt. eigenvalues --    6.05022   6.09053   6.12117   6.15655   6.17192
 Alpha virt. eigenvalues --    6.22391   6.23955   6.27511   6.28807   6.34058
 Alpha virt. eigenvalues --    6.36028   6.50353   6.58543   6.77951   6.92859
 Alpha virt. eigenvalues --    6.99120   7.20100   7.26299  22.95079  23.17471
 Alpha virt. eigenvalues --   23.36421  23.46440  23.49286  23.54219  23.58145
 Alpha virt. eigenvalues --   23.63909  23.77047  23.82225  23.84771  23.87501
 Alpha virt. eigenvalues --   23.90317  30.69931  32.84195  32.88081  33.07420
 Alpha virt. eigenvalues --   37.09496  37.79349  44.10897  53.18533 285.15627
          Condensed to atoms (all electrons):
               1          2          3          4          5          6
     1  Pt  17.161261  -0.077991  -0.082321   0.012539   0.012637  -0.006015
     2  C   -0.077991   5.544251  -0.147802  -0.018786   0.096049   0.047631
     3  C   -0.082321  -0.147802   5.531155   0.097782  -0.019811   0.046564
     4  C    0.012539  -0.018786   0.097782   5.985249  -0.252248   0.244928
     5  C    0.012637   0.096049  -0.019811  -0.252248   5.992217   0.244468
     6  C   -0.006015   0.047631   0.046564   0.244928   0.244468   4.552835
     7  H    0.000051  -0.012443  -0.005781   0.393065   0.021509  -0.032615
     8  H    0.000003  -0.005649  -0.011477   0.021228   0.391660  -0.031783
     9  O    0.000128   0.029467   0.029625  -0.140248  -0.140747   0.654426
    10  N    0.308052   0.341271   0.336062  -0.069395  -0.069877  -0.005936
    11  C   -0.046975   0.197336   0.003067  -0.025142   0.000171  -0.001747
    12  H   -0.005918  -0.034780   0.000656  -0.001604  -0.000046  -0.000267
    13  H    0.010136  -0.044788   0.000054  -0.004540  -0.000321   0.001397
    14  C   -0.043423   0.001741   0.205738   0.001492  -0.017711  -0.002874
    15  H   -0.006442   0.000597  -0.037377   0.000004  -0.001422  -0.000314
    16  H    0.011206   0.000151  -0.043037  -0.000339  -0.005540   0.001385
    17  N    0.209136  -0.029392   0.002517  -0.000222   0.000256  -0.000108
    18  N    0.206340   0.002154  -0.019088   0.000344   0.000073  -0.000085
    19  C    0.023304   0.000546   0.000356   0.000042   0.000032  -0.000004
    20  H    0.105136  -0.000497  -0.000376  -0.000092  -0.000046   0.000009
    21  H   -0.006244  -0.000017  -0.000005  -0.000001  -0.000000   0.000000
    22  H   -0.003890   0.000006  -0.000009  -0.000000   0.000000  -0.000000
    23  C   -0.037524   0.014759  -0.000169   0.000864   0.000023  -0.000107
    24  H   -0.011136  -0.000826  -0.000024   0.000033   0.000000  -0.000001
    25  H    0.009330   0.001628   0.000005  -0.000028  -0.000002   0.000002
    26  H   -0.006701  -0.001020   0.000015  -0.000173   0.000003   0.000004
    27  C   -0.037605   0.003814  -0.000862   0.004799  -0.000088  -0.000197
    28  H    0.009322  -0.003919   0.000006  -0.000137   0.000003   0.000008
    29  H   -0.011260  -0.000826   0.000095  -0.000187   0.000001   0.000009
    30  H   -0.008328   0.013196  -0.000782   0.005065   0.000238  -0.000454
    31  C   -0.035284  -0.000262   0.013225   0.000018   0.000709  -0.000106
    32  H    0.009617   0.000007   0.001723  -0.000004  -0.000036   0.000003
    33  H   -0.012551  -0.000027  -0.000599   0.000002   0.000057  -0.000001
    34  H   -0.006088   0.000060  -0.001151   0.000007  -0.000199   0.000002
    35  C   -0.032643  -0.000781   0.001103   0.000009   0.004229  -0.000238
    36  H   -0.009457   0.000084  -0.000684  -0.000003  -0.000169   0.000010
    37  H    0.009954  -0.000003  -0.003124   0.000004  -0.000067   0.000001
    38  H   -0.009599  -0.000754   0.010181   0.000211   0.004552  -0.000390
    39  C    0.001794  -0.000299  -0.000139  -0.000014  -0.000008   0.000001
    40  H   -0.005800   0.000031   0.000010   0.000001   0.000001  -0.000000
    41  H    0.002302  -0.000046  -0.000100   0.000001   0.000000  -0.000000
    42  H    0.000519   0.000002  -0.000001   0.000000   0.000000  -0.000000
               7          8          9         10         11         12
     1  Pt   0.000051   0.000003   0.000128   0.308052  -0.046975  -0.005918
     2  C   -0.012443  -0.005649   0.029467   0.341271   0.197336  -0.034780
     3  C   -0.005781  -0.011477   0.029625   0.336062   0.003067   0.000656
     4  C    0.393065   0.021228  -0.140248  -0.069395  -0.025142  -0.001604
     5  C    0.021509   0.391660  -0.140747  -0.069877   0.000171  -0.000046
     6  C   -0.032615  -0.031783   0.654426  -0.005936  -0.001747  -0.000267
     7  H    0.516042  -0.000126   0.007902   0.003514  -0.003981   0.000075
     8  H   -0.000126   0.515671   0.007842   0.003444   0.000150   0.000002
     9  O    0.007902   0.007842   8.070187   0.001313  -0.000785  -0.000004
    10  N    0.003514   0.003444   0.001313   6.461650  -0.021648  -0.005284
    11  C   -0.003981   0.000150  -0.000785  -0.021648   4.937533   0.437942
    12  H    0.000075   0.000002  -0.000004  -0.005284   0.437942   0.520343
    13  H    0.000010  -0.000006   0.000012   0.003795   0.440553  -0.014066
    14  C    0.000154  -0.003825  -0.000767  -0.020305  -0.001858  -0.000105
    15  H    0.000003  -0.000013  -0.000004  -0.004970  -0.000120  -0.000038
    16  H   -0.000006   0.000146   0.000012   0.004134   0.000090  -0.000000
    17  N    0.000260  -0.000005   0.000006  -0.007496   0.239623  -0.033701
    18  N   -0.000005   0.000241   0.000005  -0.016351   0.000680   0.000081
    19  C    0.000000   0.000000   0.000000  -0.002152  -0.000794   0.000030
    20  H    0.000000   0.000000  -0.000000  -0.001302   0.001118  -0.000054
    21  H   -0.000000  -0.000000   0.000000   0.000053   0.000022  -0.000001
    22  H    0.000000  -0.000000   0.000000   0.000049  -0.000001   0.000001
    23  C   -0.000008   0.000001  -0.000001  -0.003566  -0.049376  -0.002698
[...]
 4,0.00000375,-0.00000584,0.00147250,0.00047226,0.00079821,0.00012209,0
 .00004211,0.00018974,-0.00022865,0.00016295,-0.00009529,-0.00000300,-0
 .00033202,-0.00002449,0.02159284,0.01746983,-0.02383659,0.00002032,0.0
 0003347,0.00002357,-0.00001359,0.00000113,0.00003205,-0.00000595,-0.00
 001295,0.00000325,0.00001958,-0.00002162,-0.00006376,-0.00003528,-0.00
 004033,0.00002202,0.00000050,-0.00000054,0.00000079,0.00001578,-0.0000
 1012,-0.00001606,0.00000475,-0.00000038,-0.00001057,-0.00000454,0.0000
 2130,-0.00006624,-0.00000365,-0.00000323,0.00000929,-0.00000059,-0.000
 00060,0.00000574,0.00000134,-0.00001367,0.00000961,-0.00209900,-0.0034
 8285,-0.00524650,-0.00013962,0.00001790,0.00007483,0.00004486,-0.00013
 607,0.00018845,0.00107383,0.00120048,-0.00103880,0.09089909,0.07917774
 ,-0.13201074,-0.00590112,-0.00606839,0.00711291,-0.00216173,-0.0012700
 2,0.00269529,-0.10426352,-0.08764810,0.15141512,-0.00458216,-0.0059719
 1,0.00466978,0.00042348,0.00074849,-0.00026445,0.00039782,-0.00079408,
 -0.00040709,-0.00042428,0.00012807,0.00013725,-0.00041334,-0.00012538,
 0.00014521,0.00063552,0.00005200,-0.00017965,-0.00001907,-0.00001462,0
 .00005103,-0.00003214,0.00000584,0.00007262,-0.00060518,-0.00004737,0.
 00012167,-0.00116795,0.00060953,-0.00166570,0.00012155,0.00000372,0.00
 004889,0.00002120,0.00000066,-0.00000194,-0.00003268,-0.00003782,0.000
 00437,0.00011399,0.00000391,-0.00002605,0.00000184,-0.00000303,-0.0000
 0880,-0.00002389,0.00003190,0.00001207,-0.00009517,0.00018752,-0.00001
 096,0.00068983,-0.00015381,-0.00027296,-0.08837350,0.00038714,0.033660
 12,-0.01205108,-0.00109248,0.02195882,0.00930366,0.00046108,-0.0218440
 8,-0.00141129,-0.00051259,0.00484002,0.00029079,0.00026250,0.00016876,
 0.00002160,0.00009840,-0.00001243,-0.00000171,-0.00006288,0.00003063,0
 .00001460,-0.00000197,-0.00000447,0.00001647,-0.00001977,-0.00012698,-
 0.00002923,-0.00005949,0.00000169,-0.00004498,0.00005741,-0.00007601,0
 .00002166,0.00001448,-0.00000130,-0.00060416,-0.00032364,0.00063316,0.
 00019391,0.00001171,-0.00002626,-0.00026033,0.00034655,0.00028196,-0.0
 0015972,0.00010771,0.00007505,-0.00005272,0.00016863,-0.00009215,-0.00
 005112,-0.00003266,-0.00001400,-0.00003547,0.00006476,0.00005574,0.000
 02541,-0.00000981,-0.00003480,0.57946354,-0.00076385,-0.00215513,0.002
 79074,0.00022249,0.00039206,-0.00011831,0.00017515,-0.00044853,-0.0002
 1236,-0.00020030,0.00005146,0.00006824,-0.00020877,-0.00005075,0.00007
 163,0.00030792,0.00003403,-0.00009359,-0.00001042,-0.00000706,0.000022
 51,-0.00001819,0.00000178,0.00003875,-0.00029236,-0.00002589,0.0000611
 6,-0.00063081,0.00045438,-0.00078379,0.00004256,-0.00001340,-0.0000064
 7,-0.00000261,0.00000004,-0.00000400,-0.00001266,-0.00001678,0.0000028
 3,0.00003439,-0.00001003,0.00000410,0.00001919,-0.00000389,0.00000811,
 -0.00001489,0.00002178,0.00001224,-0.00003259,0.00007938,0.00003247,0.
 00016037,0.00010817,-0.00004082,0.00065556,-0.08211625,0.00529367,-0.0
 0605987,-0.00101357,0.01568319,-0.00633649,-0.00049354,0.01526932,0.00
 853216,0.00597352,-0.02880772,0.00019584,0.00016404,0.00021601,-0.0000
 7405,-0.00002519,0.00015126,0.00007065,0.00000450,-0.00004078,-0.00010
 781,-0.00003279,-0.00007953,0.00006666,-0.00003157,-0.00001051,-0.0000
 2472,-0.00003404,-0.00000445,0.00000442,0.00008037,-0.00003984,0.00000
 500,0.00000434,-0.00002500,-0.00018446,0.00000912,-0.00003907,0.000071
 30,0.00005846,-0.00001076,0.00028477,-0.00015257,-0.00016452,0.0000855
 3,-0.00011266,-0.00007123,-0.00017276,0.00007602,-0.00024643,-0.000119
 97,0.00010307,0.00019720,0.00006967,0.00002643,0.00006926,0.00009645,-
 0.00001252,0.00001892,-0.00260541,0.58347992,0.00201276,-0.00044200,-0
 .00149561,-0.00000333,0.00030224,-0.00004742,0.00005239,-0.00032588,-0
 .00003553,-0.00017342,0.00000062,0.00001762,-0.00016641,0.00000112,0.0
 0001280,0.00028542,0.00000913,-0.00004901,-0.00002613,-0.00000424,0.00
 001100,-0.00002927,-0.00000236,0.00001105,-0.00026092,-0.00001607,0.00
 004752,-0.00006868,-0.00000823,0.00021359,0.00005381,0.00001886,0.0000
 6630,0.00000336,-0.00000137,-0.00000272,-0.00001774,-0.00002270,-0.000
 00545,0.00001242,0.00000551,0.00003615,-0.00001315,0.00000427,-0.00000
 644,-0.00001857,0.00002296,-0.00001150,0.00011900,0.00003415,-0.000104
 35,-0.00001771,-0.00016571,0.00000470,0.03204776,0.00804969,-0.2057607
 8,0.00064922,0.00058667,-0.00329281,0.00691158,-0.00007043,-0.01715247
 ,0.00313302,0.00215752,-0.01180389,0.00006313,-0.00023381,0.00008904,-
 0.00011225,0.00003383,-0.00000397,-0.00005387,-0.00001197,0.00000008,-
 0.00007331,-0.00003684,-0.00006757,0.00004082,0.00001053,-0.00007497,-
 0.00001949,-0.00002661,0.00000548,0.00000229,0.00005426,-0.00003480,-0
 .00000794,0.00000880,0.00000177,0.00037398,0.00008131,0.00010348,0.000
 01928,-0.00001877,-0.00018009,-0.00002255,-0.00001315,0.00001402,-0.00
 033039,0.00009150,-0.00020428,0.00003960,0.00002383,-0.00005435,-0.000
 01228,-0.00003925,-0.00002115,-0.00002333,0.00004150,0.00000847,-0.000
 00933,-0.00000912,-0.00002248,0.03382627,0.00722586,0.50373648,0.00008
 407,0.00056431,-0.00013320,-0.00004851,-0.00003842,0.00002365,-0.00002
 741,0.00009826,0.00000819,0.00004806,-0.00003471,-0.00000983,0.0000288
 4,-0.00001209,-0.00000558,-0.00006592,0.00001748,0.00001676,0.00000096
 ,0.00000137,-0.00000002,0.00000602,-0.00000094,-0.00000165,0.00006017,
 -0.00000260,-0.00001415,0.00010641,-0.00011405,0.00000455,-0.00003354,
 -0.00001888,-0.00003042,-0.00001158,-0.00000568,-0.00000401,0.00000447
 ,0.00000449,-0.00000417,0.00000638,-0.00001221,0.00002334,0.00000456,0
 .00000490,0.00000153,0.00000160,-0.00000453,-0.00000258,0.00001729,0.0
 0002369,-0.00002583,-0.00001829,-0.00003375,-0.00001729,-0.00272323,0.
 00916152,0.00487963,0.00040649,0.00040625,-0.00025673,0.00014727,-0.00
 051738,-0.00032355,0.00029660,-0.00018525,0.00205125,-0.00007498,0.000
 08455,0.00013107,-0.00040713,-0.00004082,0.00003491,0.00010726,0.00002
 785,-0.00009318,-0.00037156,-0.00010399,-0.00011008,0.00003978,-0.0000
 2661,0.00002948,-0.00000081,0.00000604,0.00000329,0.00000058,-0.000000
 42,0.00000706,0.00000178,0.00000082,-0.00001903,0.00006793,0.00008735,
 -0.00007369,-0.00009456,0.00000010,0.00006395,-0.00003867,-0.00013271,
 -0.00006056,0.00010847,-0.00002477,0.00009711,0.00001735,-0.00002919,0
 .00003914,0.00000250,-0.00001093,-0.00002997,-0.00001695,-0.00000906,-
 0.00001701,-0.00001223,0.00000193,0.00001330,-0.05132504,0.02796079,0.
 01099080,0.05125210,-0.00010247,0.00005120,-0.00000316,-0.00001354,-0.
 00004463,0.00001711,-0.00000666,0.00004358,0.00001649,0.00003792,-0.00
 001053,-0.00000660,0.00004085,0.00002027,-0.00000522,-0.00006776,-0.00
 001172,0.00001046,0.00000358,0.00000231,-0.00000234,0.00000480,-0.0000
 0076,-0.00000320,0.00006590,0.00000781,-0.00001063,0.00005826,-0.00005
 556,-0.00000867,-0.00002018,-0.00002816,-0.00004095,-0.00000353,0.0000
 0272,-0.00000174,0.00000416,0.00000608,0.00000191,-0.00003402,0.000020
 50,-0.00003919,-0.00000701,-0.00000342,-0.00000220,0.00000443,-0.00000
 412,0.00000076,0.00003678,0.00004650,-0.00000751,-0.00000016,0.0000038
 8,0.00003589,-0.00120443,0.00493169,0.00290555,0.00035634,0.00056897,-
 0.00034513,0.00001099,0.00036687,-0.00057741,-0.00037291,0.00120559,0.
 00135791,-0.00030040,-0.00006805,0.00002331,0.00030539,0.00001185,0.00
 011542,0.00007873,0.00000187,-0.00001717,0.00001444,-0.00002326,-0.000
 20845,0.00000728,-0.00001174,0.00003179,-0.00000016,0.00000785,-0.0000
 0019,-0.00000183,-0.00000850,0.00000716,0.00000305,-0.00000085,-0.0000
 0625,-0.00006794,-0.00010109,0.00000188,0.00007880,-0.00000869,-0.0000
 4178,0.00000484,0.00011553,0.00012936,-0.00011466,0.00003405,-0.000077
 72,-0.00000145,0.00002702,0.00002969,0.00001656,-0.00000512,0.00000180
 ,0.00000338,-0.00000397,0.00000179,-0.00000188,0.00000374,-0.00001363,
 0.02882731,-0.27679100,-0.09836013,-0.03085833,0.29582231,-0.00029840,
 0.00014965,0.00003300,-0.00001506,-0.00006486,-0.00000025,-0.00000066,
 0.00005493,0.00001656,0.00001553,0.00001641,-0.00000259,0.00002633,0.0
 0000440,-0.00000199,-0.00003980,-0.00001738,0.00000828,0.00000410,0.00
 000076,-0.00000183,0.00000483,0.00000075,-0.00000338,0.00003503,0.0000
 0784,-0.00000641,0.00001434,-0.00008598,-0.00002235,-0.00000041,0.0000
 2846,0.00003050,0.00000527,-0.00000133,0.00000309,0.00000330,0.0000026
 0,-0.00000055,-0.00002392,-0.00000429,0.00000153,0.00001126,0.00000253
 ,0.00000469,0.00000329,0.00000007,0.00000056,-0.00005055,-0.00002487,-
 0.00002382,-0.00005832,0.00000398,0.00001583,0.00404297,-0.03139004,-0
 .01433276,0.00027889,0.00000176,0.00115152,-0.00054045,0.00002836,0.00
 103308,0.00191458,0.00144863,-0.00562382,0.00021068,0.00000433,0.00001
 430,-0.00012167,0.00010901,-0.00000538,-0.00011091,-0.00001353,0.00001
 414,0.00009555,-0.00006455,0.00004146,-0.00002026,0.00002441,-0.000005
 05,0.00000454,0.00000729,-0.00000629,0.00000295,-0.00001591,-0.0000064
 1,-0.00000920,-0.00000403,0.00001024,-0.00006482,0.00006131,-0.0000426
 5,-0.00001619,0.00000916,0.00005010,-0.00004611,0.00006869,-0.00014684
 ,0.00012083,-0.00002163,0.00007250,-0.00007944,0.00000047,-0.00007330,
 -0.00003867,0.00005085,0.00007529,0.00003359,-0.00000633,0.00001274,0.
 00003092,-0.00000501,0.00001519,0.01139805,-0.09535644,-0.08897709,-0.
 01512570,0.10607158,0.09901146,-0.00085781,-0.00019472,0.00113670,-0.0
 0000397,-0.00016897,0.00002750,-0.00006170,0.00013173,0.00002448,0.000
 08847,0.00000274,-0.00001384,0.00009964,0.00003666,-0.00001422,-0.0001
 7092,-0.00002503,0.00003111,0.00001423,0.00000408,-0.00000410,0.000014
 28,-0.00000072,-0.00000308,0.00015887,0.00001535,-0.00002868,0.0001808
 1,0.00007773,-0.00010763,-0.00004374,-0.00000391,-0.00004106,-0.000002
 17,-0.00000244,0.00000007,0.00000997,0.00001452,-0.00000214,-0.0000818
 6,-0.00000641,-0.00004752,-0.00001142,0.00001134,-0.00000245,0.0000219
 0,-0.00001367,-0.00000057,-0.00002490,-0.00000932,0.00001719,-0.000258
 03,0.00015950,0.00013104,0.00931970,-0.00709378,0.00825420,0.00085189,
 0.00004693,-0.00079712,0.00043368,0.00005810,0.00267863,0.00013810,0.0
 0007777,-0.00084481,0.00002875,0.00001346,-0.00001340,0.00000987,-0.00
 001094,0.00001480,0.00000197,0.00001893,-0.00000109,-0.00000500,-0.000
 00504,-0.00001850,-0.00000007,0.00000606,0.00004902,0.00000361,0.00001
 969,-0.00000755,0.00000926,-0.00000439,0.00000613,-0.00000441,-0.00000
 714,0.00000034,-0.00026160,-0.00024133,0.00018460,0.00002256,-0.000030
 61,-0.00014027,-0.00021446,0.00024655,0.00017425,-0.00037000,0.0008964
 8,-0.00011888,0.00007485,0.00005630,0.00008283,-0.00000667,0.00000603,
 0.00001019,0.00000003,-0.00002967,-0.00000816,0.00000789,-0.00000130,-
 0.00001905,-0.17348962,0.09361019,-0.10110424,-0.00233234,0.00047218,-
 0.00088486,0.18405827,0.00001133,0.00017851,0.00005864,-0.00004235,-0.
 00006821,0.00000766,-0.00005629,0.00011986,0.00000769,0.00003698,-0.00
 001430,-0.00000943,0.00002451,-0.00001767,-0.00000082,-0.00004765,0.00
 001487,0.00001692,0.00000302,0.00000009,0.00000194,0.00000489,-0.00000
 012,-0.00000085,0.00004061,-0.00000314,-0.00001179,0.00010134,-0.00003
 964,-0.00001589,-0.00000867,0.00000550,0.00000179,-0.00000071,-0.00000
 582,-0.00000076,0.00000278,0.00000317,-0.00000513,0.00001707,-0.000041
 68,0.00004309,0.00001501,0.00000744,0.00000450,0.00000088,-0.00000235,
 -0.00000468,0.00000263,-0.00003781,-0.00005010,-0.00015274,-0.00007872
 ,0.00014547,-0.00025173,-0.00078915,0.00057889,0.00028491,-0.00027918,
 0.00008198,-0.00022763,0.00099523,-0.00007554,-0.00060025,0.00039623,-
 0.00002020,0.00007840,-0.00000942,0.00006670,-0.00000417,0.00004912,-0
 .00006062,-0.00002349,0.00000180,-0.00001547,0.00000234,0.00000192,-0.
 00000018,0.00001736,0.00001789,0.00000504,-0.00000231,0.00000840,-0.00
 000558,0.00000311,0.00000077,-0.00000598,-0.00000705,-0.00000076,0.000
 00273,0.00028144,0.00051247,-0.00024276,-0.00010616,-0.00000423,0.0000
 8705,0.00021583,-0.00067096,-0.00049247,0.00055069,0.00032009,0.000048
 95,-0.00002559,-0.00008174,-0.00000469,0.00001334,0.00000394,-0.000031
 65,0.00000070,-0.00000029,-0.00001998,-0.00002110,0.00000082,0.0000266
 5,0.09396196,-0.11733842,0.07413347,0.01985931,-0.01338324,0.01665370,
 -0.10332753,0.12155194,-0.00055374,0.00079565,-0.00067955,0.00003482,0
 .00004189,0.00001036,0.00008326,0.00004871,-0.00002022,-0.00002640,0.0
 0000862,0.00000041,-0.00003990,-0.00007917,0.00000334,0.00005484,0.000
 03016,-0.00000467,-0.00000119,-0.00000270,-0.00000445,0.00000380,0.000
 00294,-0.00000537,-0.00005842,-0.00001345,0.00001093,0.00004055,-0.000
 19549,0.00007681,0.00002499,0.00000415,0.00001803,0.00000166,0.0000010
 7,-0.00000049,-0.00000606,-0.00000535,0.00000056,0.00007474,-0.0000344
 0,0.00009251,0.00001831,-0.00000354,0.00000746,-0.00001419,0.00000167,
 0.00000037,0.00002528,-0.00002706,0.00003086,0.00000856,0.00003376,-0.
 00011718,-0.02273056,0.01562700,-0.01796008,0.00063484,0.00025745,0.00
 087964,0.00297963,0.00026526,-0.00550767,-0.00033142,-0.00043389,0.001
 34384,-0.00005987,-0.00001233,0.00001230,0.00000638,-0.00004495,-0.000
 00774,0.00002090,-0.00001273,-0.00000595,0.00000490,0.00000413,-0.0000
 0423,-0.00003382,-0.00002937,-0.00003576,0.00000603,-0.00001254,0.0000
 1341,-0.00001146,-0.00002218,0.00000618,0.00000988,0.00000393,-0.00000
 282,0.00008199,0.00052416,0.00014732,-0.00025611,0.00003063,0.00015098
 ,0.00012066,-0.00055094,-0.00051899,0.00026182,-0.00022084,0.00070328,
 -0.00006501,-0.00004054,-0.00006520,-0.00001339,0.00001838,-0.00000214
 ,0.00000107,0.00000503,0.00000105,0.00000230,0.00000223,0.00003486,-0.
 09761042,0.07301208,-0.12706967,0.00975440,-0.00593376,0.00754205,0.10
 597630,-0.08126368,0.14016327,-0.00031051,-0.00012717,0.00033009,0.000
 09171,0.00015024,-0.00003148,0.00012151,-0.00015215,-0.00006641,-0.000
 09766,0.00003286,0.00001724,-0.00009284,-0.00004551,0.00001429,0.00015
 532,0.00001203,-0.00003205,-0.00000575,-0.00000356,0.00000272,-0.00000
 688,0.00000189,0.00000600,-0.00014707,-0.00001108,0.00002825,-0.000031
 94,0.00003245,-0.00001285,0.00004463,0.00000968,0.00002855,0.00000259,
 0.00000368,-0.00000078,-0.00001044,-0.00001033,0.00000220,0.00006107,0
 .00000056,0.00002458,0.00000143,-0.00000640,-0.00000098,-0.00001189,0.
 00000745,0.00000392,0.00001080,0.00002620,0.00000786,0.00008884,0.0000
 6404,-0.00005253,-0.00776383,-0.00416477,0.00086963,0.00124284,0.00072
 748,0.00098712,0.00068349,0.00004965,0.00006269,0.00004261,0.00030615,
 0.00000442,-0.00000348,-0.00000475,0.00000593,-0.00002061,0.00001765,-
 0.00000374,-0.00000769,-0.00001502,0.00000035,-0.00000054,0.00000401,0
 .00000811,0.00000083,-0.00000660,-0.00003494,-0.00000040,-0.00001849,0
 .00000470,0.00000082,0.00001613,-0.00000609,0.00000469,0.00000520,-0.0
 0000376,-0.00007317,-0.00001995,-0.00001020,-0.00002960,0.00001859,0.0
 0003578,-0.00007773,-0.00003524,-0.00000574,0.00011163,-0.00005460,0.0
 0004102,-0.00001454,0.00001033,-0.00003078,-0.00000341,-0.00001897,-0.
 00000560,-0.00001242,0.00001660,0.00000855,0.00000836,0.00000051,0.000
 00134,-0.25647107,-0.11479806,0.01192739,0.00478581,0.00274337,-0.0007
 1145,-0.01734793,-0.01062500,0.00158006,0.27508240,0.00042208,0.000253
 03,-0.00005806,-0.00001014,0.00002499,-0.00001808,-0.00000148,-0.00001
 284,0.00000191,-0.00001424,0.00000044,0.00000097,-0.00000951,0.0000014
 8,-0.00000170,0.00002305,-0.00000283,-0.00000687,-0.00000183,-0.000000
 30,0.00000313,-0.00000204,-0.00000035,0.00000091,-0.00002080,-0.000000
 59,0.00000461,-0.00000080,-0.00004799,0.00003021,0.00001378,0.00000359
 ,0.00001716,0.00000374,0.00000051,0.00000088,-0.00000192,-0.00000204,0
 .00000011,-0.00000398,-0.00000671,0.00000840,-0.00000038,0.00000110,-0
 .00000138,0.00000095,0.00000199,-0.00000183,-0.00000848,-0.00002640,-0
 .00002146,-0.00007727,-0.00005598,0.00002063,-0.00079085,-0.00135483,0
 .00022747,-0.00003399,0.00087912,0.00023744,-0.00002579,-0.00007262,0.
 00002831,0.00014113,0.00021870,0.00028766,0.00007827,0.00006497,-0.000
 04704,0.00001620,0.00010949,-0.00007366,-0.00003814,-0.00001112,0.0000
 1881,0.00006081,0.00001817,0.00004742,-0.00000489,0.00001939,-0.000010
 29,-0.00000161,0.00000198,-0.00000182,0.00000169,0.00000595,-0.0000044
 8,-0.00000253,-0.00000169,0.00000787,0.00004607,0.00001892,0.00004104,
 0.00000046,0.00000014,-0.00001973,-0.00000096,-0.00001003,0.00000871,-
 0.00006686,0.00003497,-0.00001459,0.00001109,-0.00001457,-0.00000485,0
 .00001544,-0.00000585,-0.00001249,0.00000211,0.00000165,-0.00000452,-0
 .00000765,0.00000028,-0.00000480,-0.11467256,-0.11023728,0.00691099,-0
 .02609368,-0.01273779,0.00226423,0.01519459,0.00867676,-0.00177996,0.1
 2586092,0.11426420,-0.00130465,0.00137750,-0.00182349,-0.00010854,-0.0
 0029980,0.00009737,-0.00004370,0.00034540,0.00014389,0.00015890,-0.000
 02083,-0.00004679,0.00016210,0.00001380,-0.00004795,-0.00025251,-0.000
 02627,0.00006453,0.00001318,0.00000549,-0.00002194,0.00002177,0.000000
 49,-0.00003086,0.00023726,0.00002089,-0.00004431,0.00039788,-0.0004202
 9,0.00043650,-0.00003918,0.00000448,-0.00003081,-0.00000090,0.00000915
 ,0.00000254,0.00001453,0.00001679,0.00000570,-0.00004147,0.00001011,-0
 .00001863,0.00000034,-0.00001050,0.00000456,0.00000976,-0.00001647,0.0
 0000088,0.00002548,-0.00007249,0.00004193,-0.00014312,0.00003921,0.000
 00442,0.02801863,0.01578602,-0.00267994,0.00420277,0.00044817,-0.00491
 994,-0.00039888,0.00035527,0.00143611,-0.00020489,-0.00056358,0.001266
 21,0.00000870,-0.00001714,-0.00009831,0.00002527,-0.00003887,-0.000020
 32,0.00000694,0.00001763,0.00002510,0.00003384,0.00001042,0.00002127,-
 0.00004925,-0.00000288,0.00004462,0.00001871,0.00002146,0.00000268,0.0
 0000417,-0.00004921,0.00003499,0.00000248,-0.00000590,0.00000528,0.000
 04893,0.00000903,-0.00009624,-0.00002379,-0.00002635,0.00004053,0.0000
 0070,0.00000893,-0.00002400,0.00007190,-0.00004329,0.00001784,0.000002
 07,-0.00003769,0.00004332,0.00000794,0.00002818,0.00000954,0.00002225,
 -0.00002543,-0.00001282,-0.00000820,0.00000519,0.00000618,0.01048735,0
 .00590610,-0.04790116,-0.01181521,-0.00504685,0.00012463,-0.01457614,-
 0.00963459,0.00076237,-0.01499340,-0.00808128,0.05317450\\0.00001951,-
 0.00000780,0.00000703,-0.00000090,0.00001002,-0.00001160,0.00000429,-0
 .00000412,-0.00001551,-0.00000283,0.00000742,-0.00002029,0.00000298,0.
 00000786,-0.00001601,-0.00000604,0.00001008,-0.00003955,-0.00000577,0.
 00000712,-0.00002566,0.00000170,0.00000652,-0.00002140,-0.00000300,0.0
 0000767,-0.00002867,-0.00000256,0.00001598,-0.00000062,-0.00000907,-0.
 00001077,-0.00001257,0.00000807,0.00000282,-0.00000930,-0.00000146,0.0
 0000059,-0.00001289,0.00000538,-0.00000238,-0.00000540,0.00001401,0.00
 000243,-0.00000458,0.00000203,0.00000366,-0.00000847,-0.00000926,0.000
 00819,-0.00000225,-0.00001408,0.00001324,0.00001702,0.00000952,-0.0000
 0286,0.00001639,-0.00001698,-0.00000375,0.00000557,-0.00000365,-0.0000
 1307,0.00002377,-0.00000841,-0.00000716,0.00002185,0.00001337,0.000007
 21,0.00000088,-0.00000425,-0.00000537,0.00001064,-0.00000324,-0.000001
 03,-0.00000176,-0.00000032,-0.00000431,0.00000302,-0.00002110,-0.00000
 471,0.00000229,-0.00001572,-0.00000265,-0.00000478,-0.00001538,-0.0000
 0480,0.00000759,-0.00001587,-0.00000333,-0.00000368,0.00001503,0.00000
 447,0.00000681,0.00001331,0.00000068,0.00000946,0.00000735,-0.00000144
 ,0.00001305,0.00001818,-0.00000141,0.00000982,-0.00000304,0.00000402,-
 0.00000473,0.00000085,-0.00001307,0.00000933,-0.00000317,-0.00000403,0
 .00000180,-0.00000973,-0.00000297,-0.00000101,0.00000359,-0.00001252,0
 .00003053,0.00000953,-0.00000308,0.00001790,0.00001767,0.00000050,0.00
 001132,0.00000943,-0.00000386,0.00002464\\\@
 The archive entry for this job was punched.


 EVERYTHING'S GOT A MORAL, IF ONLY YOU CAN FIND IT.

                                    -- LEWIS CARROL, ALICE IN WONDERLAND
 Job cpu time:       3 days 13 hours 16 minutes 59.3 seconds.
 Elapsed time:       0 days  1 hours 47 minutes 24.6 seconds.
 File lengths (MBytes):  RWF=   2329 Int=      0 D2E=      0 Chk=     82 Scr=      1
 Normal termination of Gaussian 16 at Thu May 30 22:06:49 2024.
