 Entering Gaussian System, Link 0=/cm/shared/apps//g16/g16
 Input=ZPtMeH_sigma.gjf
 Output=ZPtMeH_sigma.log
 Initial command:
 /cm/shared/apps//g16/l1.exe "/local/mvanvleet/pbs.14012.josephine/Gau-3181945.inp" -scrdir="/local/mvanvleet/pbs.14012.josephine/"
 Entering Link 1 = /cm/shared/apps//g16/l1.exe PID=   3181947.
  
 Copyright (c) 1988-2019, Gaussian, Inc.  All Rights Reserved.
  
 This is part of the Gaussian(R) 16 program.  It is based on
 the Gaussian(R) 09 system (copyright 2009, Gaussian, Inc.),
 the Gaussian(R) 03 system (copyright 2003, Gaussian, Inc.),
 the Gaussian(R) 98 system (copyright 1998, Gaussian, Inc.),
 the Gaussian(R) 94 system (copyright 1995, Gaussian, Inc.),
 the Gaussian 92(TM) system (copyright 1992, Gaussian, Inc.),
 the Gaussian 90(TM) system (copyright 1990, Gaussian, Inc.),
 the Gaussian 88(TM) system (copyright 1988, Gaussian, Inc.),
 the Gaussian 86(TM) system (copyright 1986, Carnegie Mellon
 University), and the Gaussian 82(TM) system (copyright 1983,
 Carnegie Mellon University). Gaussian is a federally registered
 trademark of Gaussian, Inc.
  
 This software contains proprietary and confidential information,
 including trade secrets, belonging to Gaussian, Inc.
  
 This software is provided under written license and may be
 used, copied, transmitted, or stored only in accord with that
 written license.
  
 The following legend is applicable only to US Government
 contracts under FAR:
  
                    RESTRICTED RIGHTS LEGEND
  
 Use, reproduction and disclosure by the US Government is
 subject to restrictions as set forth in subparagraphs (a)
 and (c) of the Commercial Computer Software - Restricted
 Rights clause in FAR 52.227-19.
  
 Gaussian, Inc.
 340 Quinnipiac St., Bldg. 40, Wallingford CT 06492
  
  
 ---------------------------------------------------------------
 Warning -- This program may not be used in any manner that
 competes with the business of Gaussian, Inc. or will provide
 assistance to any competitor of Gaussian, Inc.  The licensee
 of this program is prohibited from giving any competitor of
 Gaussian, Inc. access to this program.  By using this program,
 the user acknowledges that Gaussian, Inc. is engaged in the
 business of creating and licensing software in the field of
 computational chemistry and represents and warrants to the
 licensee that it is not a competitor of Gaussian, Inc. and that
 it will not use this program in any manner prohibited above.
 ---------------------------------------------------------------
  

 Cite this work as:
 Gaussian 16, Revision C.01,
 M. J. Frisch, G. W. Trucks, H. B. Schlegel, G. E. Scuseria, 
 M. A. Robb, J. R. Cheeseman, G. Scalmani, V. Barone, 
 G. A. Petersson, H. Nakatsuji, X. Li, M. Caricato, A. V. Marenich, 
 J. Bloino, B. G. Janesko, R. Gomperts, B. Mennucci, H. P. Hratchian, 
 J. V. Ortiz, A. F. Izmaylov, J. L. Sonnenberg, D. Williams-Young, 
 F. Ding, F. Lipparini, F. Egidi, J. Goings, B. Peng, A. Petrone, 
 T. Henderson, D. Ranasinghe, V. G. Zakrzewski, J. Gao, N. Rega, 
 G. Zheng, W. Liang, M. Hada, M. Ehara, K. Toyota, R. Fukuda, 
 J. Hasegawa, M. Ishida, T. Nakajima, Y. Honda, O. Kitao, H. Nakai, 
 T. Vreven, K. Throssell, J. A. Montgomery, Jr., J. E. Peralta, 
 F. Ogliaro, M. J. Bearpark, J. J. Heyd, E. N. Brothers, K. N. Kudin, 
 V. N. Staroverov, T. A. Keith, R. Kobayashi, J. Normand, 
 K. Raghavachari, A. P. Rendell, J. C. Burant, S. S. Iyengar, 
 J. Tomasi, M. Cossi, J. M. Millam, M. Klene, C. Adamo, R. Cammi, 
 J. W. Ochterski, R. L. Martin, K. Morokuma, O. Farkas, 
 J. B. Foresman, and D. J. Fox, Gaussian, Inc., Wallingford CT, 2019.
 
 ******************************************
 Gaussian 16:  ES64L-G16RevC.01  3-Jul-2019
                 5-Mar-2024 
 ******************************************
 %nprocshared=8
 Will use up to    8 processors via shared memory.
 %chk=ZPtMeH_sigma.chk
 %mem=1GB
 ----------------------------------------------------------
 # wb97xd def2TZVPP SCRF=(solvent=dichloromethane) opt freq
 ----------------------------------------------------------
 1/18=20,19=15,26=3,38=1/1,3;
 2/9=110,12=2,17=6,18=5,40=1/2;
 3/5=44,7=202,11=2,25=1,30=1,70=2201,71=1,72=9,74=-58/1,2,3;
 4//1;
 5/5=2,38=5,53=9/2;
 6/7=2,8=2,9=2,10=2,28=1/1;
 7//1,2,3,16;
 1/18=20,19=15,26=3/3(2);
 2/9=110/2;
 99//99;
 2/9=110/2;
 3/5=44,7=202,11=2,25=1,30=1,70=2205,71=1,72=9,74=-58/1,2,3;
 4/5=5,16=3,69=1/1;
 5/5=2,38=5,53=9/2;
 7//1,2,3,16;
 1/18=20,19=15,26=3/3(-5);
 2/9=110/2;
 6/7=2,8=2,9=2,10=2,19=2,28=1/1;
 99/9=1/99;
 ------------
 ZPtMeH_sigma
 ------------
 Symbolic Z-matrix:
 Charge =  1 Multiplicity = 1
 Pt                    0.826    -0.00001  -0.09574 
 C                    -1.68366  -1.19894  -0.36765 
 C                    -1.68365   1.19896  -0.36764 
 C                    -2.98173  -1.24382   0.03587 
 C                    -2.98172   1.24385   0.03587 
 C                    -3.74748   0.00002   0.26527 
 H                    -3.49865  -2.19758   0.17539 
 H                    -3.49862   2.19761   0.1754 
 O                    -4.91921   0.00002   0.62782 
 N                    -1.04301   0.00001  -0.62855 
 C                    -0.75785  -2.34315  -0.68376 
 H                    -0.57955  -2.37451  -1.77385 
 H                    -1.13989  -3.32402  -0.34971 
 C                    -0.75783   2.34316  -0.68375 
 H                    -0.57953   2.37452  -1.77384 
 H                    -1.13986   3.32404  -0.34969 
 N                     0.58633  -2.07739  -0.03585 
 N                     0.58635   2.07738  -0.03585 
 C                     3.1669    0.        0.89809 
 H                     2.44082  -0.00001   1.72634 
 H                     3.78538  -0.9055    0.95482 
 H                     3.78533   0.90552   0.9548 
 C                     1.63712  -2.86373  -0.73261 
 H                     2.59403  -2.73172  -0.20485 
 H                     1.36502  -3.93578  -0.72346 
 H                     1.72733  -2.5102   -1.77012 
 C                     0.51848  -2.49946   1.39386 
 H                     0.3493   -3.59134   1.44446 
 H                     1.47019  -2.25513   1.89052 
 H                    -0.31277  -1.97203   1.88726 
 C                     1.63716   2.8637   -0.73262 
 H                     1.36506   3.93576  -0.72347 
 H                     2.59406   2.73169  -0.20487 
 H                     1.72735   2.51018  -1.77013 
 C                     0.51853   2.49945   1.39386 
 H                     1.47023   2.25507   1.89051 
 H                     0.3494    3.59134   1.44447 
 H                    -0.31273   1.97205   1.88726 
 H                     2.7502   -0.00003  -0.16904 
 

 GradGradGradGradGradGradGradGradGradGradGradGradGradGradGradGradGradGrad
 Berny optimization.
 Initialization pass.
                           ----------------------------
                           !    Initial Parameters    !
                           ! (Angstroms and Degrees)  !
 --------------------------                            --------------------------
 ! Name  Definition              Value          Derivative Info.                !
 --------------------------------------------------------------------------------
 ! R1    R(1,10)                 1.9435         estimate D2E/DX2                !
 ! R2    R(1,17)                 2.092          estimate D2E/DX2                !
 ! R3    R(1,18)                 2.092          estimate D2E/DX2                !
 ! R4    R(1,39)                 1.9256         estimate D2E/DX2                !
 ! R5    R(2,4)                  1.3601         estimate D2E/DX2                !
 ! R6    R(2,10)                 1.3842         estimate D2E/DX2                !
 ! R7    R(2,11)                 1.5054         estimate D2E/DX2                !
 ! R8    R(3,5)                  1.3601         estimate D2E/DX2                !
 ! R9    R(3,10)                 1.3842         estimate D2E/DX2                !
 ! R10   R(3,14)                 1.5054         estimate D2E/DX2                !
 ! R11   R(4,6)                  1.4786         estimate D2E/DX2                !
 ! R12   R(4,7)                  1.0938         estimate D2E/DX2                !
 ! R13   R(5,6)                  1.4786         estimate D2E/DX2                !
 ! R14   R(5,8)                  1.0938         estimate D2E/DX2                !
 ! R15   R(6,9)                  1.2265         estimate D2E/DX2                !
 ! R16   R(11,12)                1.105          estimate D2E/DX2                !
 ! R17   R(11,13)                1.1044         estimate D2E/DX2                !
 ! R18   R(11,17)                1.5157         estimate D2E/DX2                !
 ! R19   R(14,15)                1.105          estimate D2E/DX2                !
 ! R20   R(14,16)                1.1044         estimate D2E/DX2                !
 ! R21   R(14,18)                1.5157         estimate D2E/DX2                !
 ! R22   R(17,23)                1.4859         estimate D2E/DX2                !
 ! R23   R(17,27)                1.4923         estimate D2E/DX2                !
 ! R24   R(18,31)                1.4859         estimate D2E/DX2                !
 ! R25   R(18,35)                1.4923         estimate D2E/DX2                !
 ! R26   R(19,20)                1.1014         estimate D2E/DX2                !
 ! R27   R(19,21)                1.098          estimate D2E/DX2                !
 ! R28   R(19,22)                1.098          estimate D2E/DX2                !
 ! R29   R(19,39)                1.1456         estimate D2E/DX2                !
 ! R30   R(23,24)                1.1007         estimate D2E/DX2                !
 ! R31   R(23,25)                1.1061         estimate D2E/DX2                !
 ! R32   R(23,26)                1.0998         estimate D2E/DX2                !
 ! R33   R(27,28)                1.1061         estimate D2E/DX2                !
 ! R34   R(27,29)                1.101          estimate D2E/DX2                !
 ! R35   R(27,30)                1.1012         estimate D2E/DX2                !
 ! R36   R(31,32)                1.1061         estimate D2E/DX2                !
 ! R37   R(31,33)                1.1007         estimate D2E/DX2                !
 ! R38   R(31,34)                1.0998         estimate D2E/DX2                !
 ! R39   R(35,36)                1.101          estimate D2E/DX2                !
 ! R40   R(35,37)                1.1061         estimate D2E/DX2                !
 ! R41   R(35,38)                1.1012         estimate D2E/DX2                !
 ! A1    A(10,1,17)             84.1274         estimate D2E/DX2                !
 ! A2    A(10,1,18)             84.1268         estimate D2E/DX2                !
 ! A3    A(10,1,39)            161.9069         estimate D2E/DX2                !
 ! A4    A(17,1,39)             96.636          estimate D2E/DX2                !
 ! A5    A(18,1,39)             96.6366         estimate D2E/DX2                !
 ! A6    A(4,2,10)             121.7513         estimate D2E/DX2                !
 ! A7    A(4,2,11)             128.621          estimate D2E/DX2                !
 ! A8    A(10,2,11)            109.5198         estimate D2E/DX2                !
 ! A9    A(5,3,10)             121.7515         estimate D2E/DX2                !
 ! A10   A(5,3,14)             128.6211         estimate D2E/DX2                !
 ! A11   A(10,3,14)            109.5195         estimate D2E/DX2                !
 ! A12   A(2,4,6)              120.8346         estimate D2E/DX2                !
 ! A13   A(2,4,7)              121.1764         estimate D2E/DX2                !
 ! A14   A(6,4,7)              117.9702         estimate D2E/DX2                !
 ! A15   A(3,5,6)              120.8346         estimate D2E/DX2                !
 ! A16   A(3,5,8)              121.1761         estimate D2E/DX2                !
 ! A17   A(6,5,8)              117.9704         estimate D2E/DX2                !
 ! A18   A(4,6,5)              114.5446         estimate D2E/DX2                !
 ! A19   A(4,6,9)              122.726          estimate D2E/DX2                !
 ! A20   A(5,6,9)              122.7265         estimate D2E/DX2                !
 ! A21   A(1,10,2)             113.1673         estimate D2E/DX2                !
 ! A22   A(1,10,3)             113.1679         estimate D2E/DX2                !
 ! A23   A(2,10,3)             120.0343         estimate D2E/DX2                !
 ! A24   A(2,11,12)            109.1442         estimate D2E/DX2                !
 ! A25   A(2,11,13)            113.5034         estimate D2E/DX2                !
 ! A26   A(2,11,17)            108.8065         estimate D2E/DX2                !
 ! A27   A(12,11,13)           109.2083         estimate D2E/DX2                !
 ! A28   A(12,11,17)           106.4739         estimate D2E/DX2                !
 ! A29   A(13,11,17)           109.4646         estimate D2E/DX2                !
 ! A30   A(3,14,15)            109.1443         estimate D2E/DX2                !
 ! A31   A(3,14,16)            113.5034         estimate D2E/DX2                !
 ! A32   A(3,14,18)            108.8065         estimate D2E/DX2                !
 ! A33   A(15,14,16)           109.2086         estimate D2E/DX2                !
 ! A34   A(15,14,18)           106.4735         estimate D2E/DX2                !
 ! A35   A(16,14,18)           109.4646         estimate D2E/DX2                !
 ! A36   A(1,17,11)            105.2767         estimate D2E/DX2                !
 ! A37   A(1,17,23)            115.5343         estimate D2E/DX2                !
 ! A38   A(1,17,27)            108.2702         estimate D2E/DX2                !
 ! A39   A(11,17,23)           109.5067         estimate D2E/DX2                !
 ! A40   A(11,17,27)           108.6413         estimate D2E/DX2                !
 ! A41   A(23,17,27)           109.3739         estimate D2E/DX2                !
 ! A42   A(1,18,14)            105.2769         estimate D2E/DX2                !
 ! A43   A(1,18,31)            115.5337         estimate D2E/DX2                !
 ! A44   A(1,18,35)            108.2701         estimate D2E/DX2                !
 ! A45   A(14,18,31)           109.5071         estimate D2E/DX2                !
 ! A46   A(14,18,35)           108.6418         estimate D2E/DX2                !
 ! A47   A(31,18,35)           109.3736         estimate D2E/DX2                !
 ! A48   A(20,19,21)           109.4174         estimate D2E/DX2                !
 ! A49   A(20,19,22)           109.4176         estimate D2E/DX2                !
 ! A50   A(20,19,39)           117.4308         estimate D2E/DX2                !
 ! A51   A(21,19,22)           111.1109         estimate D2E/DX2                !
 ! A52   A(21,19,39)           104.6543         estimate D2E/DX2                !
 ! A53   A(22,19,39)           104.655          estimate D2E/DX2                !
 ! A54   A(17,23,24)           109.0548         estimate D2E/DX2                !
 ! A55   A(17,23,25)           109.5767         estimate D2E/DX2                !
 ! A56   A(17,23,26)           109.2838         estimate D2E/DX2                !
 ! A57   A(24,23,25)           109.0341         estimate D2E/DX2                !
 ! A58   A(24,23,26)           110.0261         estimate D2E/DX2                !
 ! A59   A(25,23,26)           109.8491         estimate D2E/DX2                !
 ! A60   A(17,27,28)           109.2687         estimate D2E/DX2                !
 ! A61   A(17,27,29)           109.2769         estimate D2E/DX2                !
 ! A62   A(17,27,30)           109.1557         estimate D2E/DX2                !
 ! A63   A(28,27,29)           109.3089         estimate D2E/DX2                !
 ! A64   A(28,27,30)           109.6859         estimate D2E/DX2                !
 ! A65   A(29,27,30)           110.1277         estimate D2E/DX2                !
 ! A66   A(18,31,32)           109.5757         estimate D2E/DX2                !
 ! A67   A(18,31,33)           109.0554         estimate D2E/DX2                !
 ! A68   A(18,31,34)           109.284          estimate D2E/DX2                !
 ! A69   A(32,31,33)           109.0341         estimate D2E/DX2                !
 ! A70   A(32,31,34)           109.8483         estimate D2E/DX2                !
 ! A71   A(33,31,34)           110.027          estimate D2E/DX2                !
 ! A72   A(18,35,36)           109.2767         estimate D2E/DX2                !
 ! A73   A(18,35,37)           109.269          estimate D2E/DX2                !
 ! A74   A(18,35,38)           109.1554         estimate D2E/DX2                !
 ! A75   A(36,35,37)           109.309          estimate D2E/DX2                !
 ! A76   A(36,35,38)           110.1272         estimate D2E/DX2                !
 ! A77   A(37,35,38)           109.6863         estimate D2E/DX2                !
 ! A78   A(1,39,19)            109.1484         estimate D2E/DX2                !
 ! A79   L(17,1,18,10,-1)      168.2543         estimate D2E/DX2                !
 ! A80   L(17,1,18,10,-2)      173.2066         estimate D2E/DX2                !
 ! D1    D(17,1,10,2)           16.1867         estimate D2E/DX2                !
 ! D2    D(17,1,10,3)          157.0192         estimate D2E/DX2                !
 ! D3    D(18,1,10,2)         -157.0199         estimate D2E/DX2                !
 ! D4    D(18,1,10,3)          -16.1874         estimate D2E/DX2                !
 ! D5    D(39,1,10,2)          109.5834         estimate D2E/DX2                !
 ! D6    D(39,1,10,3)         -109.5841         estimate D2E/DX2                !
 ! D7    D(10,1,17,11)          10.6366         estimate D2E/DX2                !
 ! D8    D(10,1,17,23)         131.5736         estimate D2E/DX2                !
 ! D9    D(10,1,17,27)        -105.4107         estimate D2E/DX2                !
 ! D10   D(39,1,17,11)        -151.1771         estimate D2E/DX2                !
 ! D11   D(39,1,17,23)         -30.2401         estimate D2E/DX2                !
 ! D12   D(39,1,17,27)          92.7756         estimate D2E/DX2                !
 ! D13   D(10,1,18,14)         -10.6362         estimate D2E/DX2                !
 ! D14   D(10,1,18,31)        -131.5735         estimate D2E/DX2                !
 ! D15   D(10,1,18,35)         105.4118         estimate D2E/DX2                !
 ! D16   D(39,1,18,14)         151.1775         estimate D2E/DX2                !
 ! D17   D(39,1,18,31)          30.2402         estimate D2E/DX2                !
 ! D18   D(39,1,18,35)         -92.7745         estimate D2E/DX2                !
 ! D19   D(10,1,39,19)         179.9981         estimate D2E/DX2                !
 ! D20   D(17,1,39,19)         -88.6031         estimate D2E/DX2                !
 ! D21   D(18,1,39,19)          88.5995         estimate D2E/DX2                !
 ! D22   D(10,2,4,6)            -2.499          estimate D2E/DX2                !
 ! D23   D(10,2,4,7)           175.8907         estimate D2E/DX2                !
 ! D24   D(11,2,4,6)          -178.3104         estimate D2E/DX2                !
 ! D25   D(11,2,4,7)             0.0792         estimate D2E/DX2                !
 ! D26   D(4,2,10,1)           143.6282         estimate D2E/DX2                !
 ! D27   D(4,2,10,3)             5.7506         estimate D2E/DX2                !
 ! D28   D(11,2,10,1)          -39.8428         estimate D2E/DX2                !
 ! D29   D(11,2,10,3)         -177.7205         estimate D2E/DX2                !
 ! D30   D(4,2,11,12)          109.0616         estimate D2E/DX2                !
 ! D31   D(4,2,11,13)          -12.9937         estimate D2E/DX2                !
 ! D32   D(4,2,11,17)         -135.1321         estimate D2E/DX2                !
 ! D33   D(10,2,11,12)         -67.1601         estimate D2E/DX2                !
 ! D34   D(10,2,11,13)         170.7845         estimate D2E/DX2                !
 ! D35   D(10,2,11,17)          48.6462         estimate D2E/DX2                !
 ! D36   D(10,3,5,6)             2.5            estimate D2E/DX2                !
 ! D37   D(10,3,5,8)          -175.891          estimate D2E/DX2                !
 ! D38   D(14,3,5,6)           178.3104         estimate D2E/DX2                !
 ! D39   D(14,3,5,8)            -0.0806         estimate D2E/DX2                !
 ! D40   D(5,3,10,1)          -143.6285         estimate D2E/DX2                !
 ! D41   D(5,3,10,2)            -5.7511         estimate D2E/DX2                !
 ! D42   D(14,3,10,1)           39.8434         estimate D2E/DX2                !
 ! D43   D(14,3,10,2)          177.7208         estimate D2E/DX2                !
 ! D44   D(5,3,14,15)         -109.061          estimate D2E/DX2                !
 ! D45   D(5,3,14,16)           12.9947         estimate D2E/DX2                !
 ! D46   D(5,3,14,18)          135.1331         estimate D2E/DX2                !
 ! D47   D(10,3,14,15)          67.1598         estimate D2E/DX2                !
 ! D48   D(10,3,14,16)        -170.7845         estimate D2E/DX2                !
 ! D49   D(10,3,14,18)         -48.6461         estimate D2E/DX2                !
 ! D50   D(2,4,6,5)             -0.6887         estimate D2E/DX2                !
 ! D51   D(2,4,6,9)            179.9247         estimate D2E/DX2                !
 ! D52   D(7,4,6,5)           -179.1287         estimate D2E/DX2                !
 ! D53   D(7,4,6,9)              1.4846         estimate D2E/DX2                !
 ! D54   D(3,5,6,4)              0.6882         estimate D2E/DX2                !
 ! D55   D(3,5,6,9)           -179.9252         estimate D2E/DX2                !
 ! D56   D(8,5,6,4)            179.1295         estimate D2E/DX2                !
 ! D57   D(8,5,6,9)             -1.4839         estimate D2E/DX2                !
 ! D58   D(2,11,17,1)          -33.3012         estimate D2E/DX2                !
 ! D59   D(2,11,17,23)        -158.1077         estimate D2E/DX2                !
 ! D60   D(2,11,17,27)          82.4913         estimate D2E/DX2                !
 ! D61   D(12,11,17,1)          84.2138         estimate D2E/DX2                !
 ! D62   D(12,11,17,23)        -40.5927         estimate D2E/DX2                !
 ! D63   D(12,11,17,27)       -159.9937         estimate D2E/DX2                !
 ! D64   D(13,11,17,1)        -157.8559         estimate D2E/DX2                !
 ! D65   D(13,11,17,23)         77.3376         estimate D2E/DX2                !
 ! D66   D(13,11,17,27)        -42.0634         estimate D2E/DX2                !
 ! D67   D(3,14,18,1)           33.301          estimate D2E/DX2                !
 ! D68   D(3,14,18,31)         158.1071         estimate D2E/DX2                !
 ! D69   D(3,14,18,35)         -82.4918         estimate D2E/DX2                !
 ! D70   D(15,14,18,1)         -84.2139         estimate D2E/DX2                !
 ! D71   D(15,14,18,31)         40.5923         estimate D2E/DX2                !
 ! D72   D(15,14,18,35)        159.9934         estimate D2E/DX2                !
 ! D73   D(16,14,18,1)         157.8556         estimate D2E/DX2                !
 ! D74   D(16,14,18,31)        -77.3382         estimate D2E/DX2                !
 ! D75   D(16,14,18,35)         42.0629         estimate D2E/DX2                !
 ! D76   D(1,17,23,24)          66.0894         estimate D2E/DX2                !
 ! D77   D(1,17,23,25)        -174.6332         estimate D2E/DX2                !
 ! D78   D(1,17,23,26)         -54.2208         estimate D2E/DX2                !
 ! D79   D(11,17,23,24)       -175.2898         estimate D2E/DX2                !
 ! D80   D(11,17,23,25)        -56.0124         estimate D2E/DX2                !
 ! D81   D(11,17,23,26)         64.4            estimate D2E/DX2                !
 ! D82   D(27,17,23,24)        -56.3408         estimate D2E/DX2                !
 ! D83   D(27,17,23,25)         62.9366         estimate D2E/DX2                !
 ! D84   D(27,17,23,26)       -176.651          estimate D2E/DX2                !
 ! D85   D(1,17,27,28)         177.6581         estimate D2E/DX2                !
 ! D86   D(1,17,27,29)         -62.7808         estimate D2E/DX2                !
 ! D87   D(1,17,27,30)          57.7107         estimate D2E/DX2                !
 ! D88   D(11,17,27,28)         63.8171         estimate D2E/DX2                !
 ! D89   D(11,17,27,29)       -176.6218         estimate D2E/DX2                !
 ! D90   D(11,17,27,30)        -56.1303         estimate D2E/DX2                !
 ! D91   D(23,17,27,28)        -55.667          estimate D2E/DX2                !
 ! D92   D(23,17,27,29)         63.8941         estimate D2E/DX2                !
 ! D93   D(23,17,27,30)       -175.6144         estimate D2E/DX2                !
 ! D94   D(1,18,31,32)         174.633          estimate D2E/DX2                !
 ! D95   D(1,18,31,33)         -66.0898         estimate D2E/DX2                !
 ! D96   D(1,18,31,34)          54.2219         estimate D2E/DX2                !
 ! D97   D(14,18,31,32)         56.012          estimate D2E/DX2                !
 ! D98   D(14,18,31,33)        175.2891         estimate D2E/DX2                !
 ! D99   D(14,18,31,34)        -64.3991         estimate D2E/DX2                !
 ! D100  D(35,18,31,32)        -62.9376         estimate D2E/DX2                !
 ! D101  D(35,18,31,33)         56.3395         estimate D2E/DX2                !
 ! D102  D(35,18,31,34)        176.6513         estimate D2E/DX2                !
 ! D103  D(1,18,35,36)          62.7783         estimate D2E/DX2                !
 ! D104  D(1,18,35,37)        -177.6603         estimate D2E/DX2                !
 ! D105  D(1,18,35,38)         -57.7123         estimate D2E/DX2                !
 ! D106  D(14,18,35,36)        176.6199         estimate D2E/DX2                !
 ! D107  D(14,18,35,37)        -63.8187         estimate D2E/DX2                !
 ! D108  D(14,18,35,38)         56.1292         estimate D2E/DX2                !
 ! D109  D(31,18,35,36)        -63.8955         estimate D2E/DX2                !
 ! D110  D(31,18,35,37)         55.6659         estimate D2E/DX2                !
 ! D111  D(31,18,35,38)        175.6139         estimate D2E/DX2                !
 ! D112  D(20,19,39,1)           0.0025         estimate D2E/DX2                !
 ! D113  D(21,19,39,1)         121.528          estimate D2E/DX2                !
 ! D114  D(22,19,39,1)        -121.5238         estimate D2E/DX2                !
 --------------------------------------------------------------------------------
 Trust Radius=3.00D-01 FncErr=1.00D-07 GrdErr=1.00D-06 EigMax=2.50D+02 EigMin=1.00D-04
 Number of steps in this run=    234 maximum allowed number of steps=    234.
 GradGradGradGradGradGradGradGradGradGradGradGradGradGradGradGradGradGrad

                          Input orientation:                          
 ---------------------------------------------------------------------
 Center     Atomic      Atomic             Coordinates (Angstroms)
 Number     Number       Type             X           Y           Z
 ---------------------------------------------------------------------
      1         78           0        0.826000   -0.000010   -0.095740
      2          6           0       -1.683660   -1.198940   -0.367650
      3          6           0       -1.683650    1.198960   -0.367640
      4          6           0       -2.981730   -1.243820    0.035870
      5          6           0       -2.981720    1.243850    0.035870
      6          6           0       -3.747480    0.000020    0.265270
      7          1           0       -3.498650   -2.197580    0.175390
      8          1           0       -3.498620    2.197610    0.175400
      9          8           0       -4.919210    0.000020    0.627820
     10          7           0       -1.043010    0.000010   -0.628550
     11          6           0       -0.757850   -2.343150   -0.683760
     12          1           0       -0.579550   -2.374510   -1.773850
     13          1           0       -1.139890   -3.324020   -0.349710
     14          6           0       -0.757830    2.343160   -0.683750
     15          1           0       -0.579530    2.374520   -1.773840
     16          1           0       -1.139860    3.324040   -0.349690
     17          7           0        0.586330   -2.077390   -0.035850
     18          7           0        0.586350    2.077380   -0.035850
     19          6           0        3.166900    0.000000    0.898090
     20          1           0        2.440820   -0.000010    1.726340
     21          1           0        3.785380   -0.905500    0.954820
     22          1           0        3.785330    0.905520    0.954800
     23          6           0        1.637120   -2.863730   -0.732610
     24          1           0        2.594030   -2.731720   -0.204850
     25          1           0        1.365020   -3.935780   -0.723460
     26          1           0        1.727330   -2.510200   -1.770120
     27          6           0        0.518480   -2.499460    1.393860
     28          1           0        0.349300   -3.591340    1.444460
     29          1           0        1.470190   -2.255130    1.890520
     30          1           0       -0.312770   -1.972030    1.887260
     31          6           0        1.637160    2.863700   -0.732620
     32          1           0        1.365060    3.935760   -0.723470
     33          1           0        2.594060    2.731690   -0.204870
     34          1           0        1.727350    2.510180   -1.770130
     35          6           0        0.518530    2.499450    1.393860
     36          1           0        1.470230    2.255070    1.890510
     37          1           0        0.349400    3.591340    1.444470
     38          1           0       -0.312730    1.972050    1.887260
     39          1           0        2.750200   -0.000030   -0.169040
 ---------------------------------------------------------------------
                    Distance matrix (angstroms):
                    1          2          3          4          5
     1  Pt   0.000000
     2  C    2.794595   0.000000
     3  C    2.794602   2.397900   0.000000
     4  C    4.007891   1.360084   2.795533   0.000000
     5  C    4.007897   2.795534   1.360081   2.487670   0.000000
     6  C    4.587706   2.469301   2.469297   1.478559   1.478555
     7  H    4.858541   2.141580   3.889163   1.093769   3.482833
     8  H    4.858538   3.889156   2.141567   3.482827   1.093761
     9  O    5.790594   3.591274   3.591274   2.377261   2.377264
    10  N    1.943472   1.384190   1.384187   2.397332   2.397329
    11  C    2.888711   1.505412   3.674722   2.583028   4.281359
    12  H    3.229532   2.139725   3.995767   3.213101   4.705107
    13  H    3.870177   2.193621   4.555584   2.805045   4.940288
    14  C    2.888723   3.674718   1.505411   4.281356   2.583026
    15  H    3.229540   3.995759   2.139724   4.705104   3.213095
    16  H    3.870194   4.555589   2.193626   4.940292   2.805048
    17  N    2.092017   2.456546   3.999670   3.664838   4.875116
    18  N    2.092025   3.999664   2.456544   4.875111   3.664838
    19  C    2.543130   5.154366   5.154359   6.332153   6.332149
    20  H    2.434670   4.778448   4.778445   5.814534   5.814535
    21  H    3.268259   5.634309   6.007324   6.837595   7.159456
    22  H    3.268219   6.007285   5.634243   7.159413   6.837534
    23  C    3.043750   3.732600   5.259864   4.954639   6.228680
    24  H    3.255776   4.546928   5.811651   5.775889   6.852160
    25  H    4.021798   4.112340   5.982186   5.168894   6.804359
    26  H    3.149127   3.914228   5.230641   5.200054   6.287260
    27  C    2.925872   3.105429   4.650868   3.958818   5.301689
    28  H    3.936637   3.624948   5.510315   4.311698   6.038119
    29  H    3.073398   4.020154   5.193913   4.927684   5.958363
    30  H    3.019594   2.749841   4.125417   3.328856   4.570867
    31  C    3.043753   5.259857   3.732606   6.228679   4.954649
    32  H    4.021805   5.982177   4.112338   6.804354   5.168895
    33  H    3.255784   5.811647   4.546928   6.852158   5.775894
    34  H    3.149138   5.230632   3.914230   6.287256   5.200055
    35  C    2.925875   4.650876   3.105439   5.301700   3.958841
    36  H    3.073371   5.193890   4.020145   5.958344   4.927689
    37  H    3.936647   5.510344   3.624985   6.038158   4.311754
    38  H    3.019605   4.125439   2.749848   4.570889   3.328878
    39  H    1.925596   4.597385   4.597395   5.868903   5.868912
                    6          7          8          9         10
     6  C    0.000000
     7  H    2.213468   0.000000
     8  H    2.213461   4.395190   0.000000
     9  O    1.226537   2.655585   2.655591   0.000000
    10  N    2.848346   3.392033   3.392020   4.074726   0.000000
    11  C    3.915226   2.875989   5.372939   4.952535   2.361094
    12  H    4.453334   3.514539   5.764098   5.499005   2.676724
    13  H    4.269305   2.666148   6.027250   5.127189   3.337111
    14  C    3.915220   5.372945   2.875979   4.952535   2.361086
    15  H    4.453328   5.764101   3.514530   5.499004   2.676715
    16  H    4.269305   6.027262   2.666142   5.127194   3.337112
    17  N    4.815414   4.092204   5.916677   5.921745   2.705852
    18  N    4.815411   5.916682   4.092195   5.921746   2.705841
    19  C    6.943278   7.055580   7.055560   8.090625   4.478166
    20  H    6.358442   6.520128   6.520115   7.441558   4.205066
    21  H    7.618361   7.438688   7.955718   8.757670   5.161430
    22  H    7.618307   7.955694   7.438608   8.757617   5.161377
    23  C    6.179866   5.257790   7.267563   7.282671   3.923638
    24  H    6.920850   6.127858   7.846226   8.037694   4.568362
    25  H    6.527309   5.242572   7.879176   7.537110   4.614982
    26  H    6.357481   5.585124   7.297882   7.498521   3.908851
    27  C    5.071443   4.208697   6.299540   6.033464   3.574317
    28  H    5.574223   4.284837   7.066042   6.428216   4.374208
    29  H    5.911956   5.256839   6.888948   6.892354   4.212783
    30  H    4.279844   3.623700   5.519602   5.166668   3.278947
    31  C    6.179870   7.267571   5.257795   7.282681   3.923629
    32  H    6.527306   7.879180   5.242568   7.537114   4.614969
    33  H    6.920851   7.846236   6.127854   8.037700   4.568354
    34  H    6.357477   7.297885   5.585119   7.498522   3.908843
    35  C    5.071460   6.299563   4.208711   6.033489   3.574318
    36  H    5.911950   6.888940   5.256841   6.892357   4.212759
    37  H    5.574273   7.066091   4.284890   6.428277   4.374228
    38  H    4.279867   5.519638   3.623705   5.166696   3.278956
    39  H    6.512179   6.632947   6.632949   7.710696   3.820941
                   11         12         13         14         15
    11  C    0.000000
    12  H    1.105021   0.000000
    13  H    1.104378   1.801034   0.000000
    14  C    4.686310   4.845257   5.689858   0.000000
    15  H    4.845254   4.749030   5.900467   1.105021   0.000000
    16  H    5.689866   5.900479   6.648060   1.104386   1.801044
    17  N    1.515663   2.113812   2.152308   4.665598   4.919283
    18  N    4.665592   4.919278   5.679220   1.515663   2.113806
    19  C    4.836968   5.178170   5.581626   4.836954   5.178155
    20  H    4.640084   5.197328   5.308532   4.640080   5.197323
    21  H    5.039119   5.353153   5.639975   5.820607   6.103815
    22  H    5.820586   6.103794   6.621824   5.039043   5.353078
    23  C    2.451381   2.497427   2.840821   5.731481   5.782470
    24  H    3.408143   3.558226   3.783380   6.100715   6.213445
    25  H    2.654171   2.705963   2.605478   6.628209   6.686139
    26  H    2.717389   2.310870   3.301639   5.559795   5.402046
    27  C    2.443349   3.354947   2.543644   5.421845   5.915710
    28  H    2.704271   3.563840   2.346954   6.401039   6.841905
    29  H    3.405705   4.200392   3.601899   5.721469   6.250004
    30  H    2.635521   3.692816   2.741540   5.042721   5.689228
    31  C    5.731470   5.782457   6.793122   2.451393   2.497429
    32  H    6.628200   6.686128   7.688880   2.654169   2.705952
    33  H    6.100708   6.213435   7.115826   3.408144   3.558217
    34  H    5.559787   5.402036   6.654063   2.717395   2.310868
    35  C    5.421847   5.915712   6.301047   2.443355   3.354947
    36  H    5.721436   6.249971   6.554201   3.405705   4.200386
    37  H    6.401057   6.841922   7.297895   2.704299   3.563858
    38  H    5.042740   5.689245   5.808320   2.635513   3.692806
    39  H    4.249890   4.393268   5.119995   4.249911   4.393287
                   16         17         18         19         20
    16  H    0.000000
    17  N    5.679232   0.000000
    18  N    2.152314   4.154770   0.000000
    19  C    5.581611   3.441967   3.441946   0.000000
    20  H    5.308529   3.295444   3.295440   1.101449   0.000000
    21  H    6.621838   3.548052   4.484729   1.098028   1.795271
    22  H    5.639896   4.484723   3.547974   1.098016   1.795262
    23  C    6.793139   1.485922   5.099427   3.633230   3.859179
    24  H    7.115837   2.118388   5.214095   3.001158   3.348911
    25  H    7.688896   2.129032   6.102231   4.622398   4.759112
    26  H    6.654078   2.120589   5.035416   3.936091   4.362952
    27  C    6.301048   1.492252   4.795429   3.675217   3.170676
    28  H    7.297880   2.130621   5.863608   4.597294   4.165521
    29  H    6.554238   2.126899   4.823144   2.991547   2.460619
    30  H    5.808303   2.125520   4.572143   4.120129   3.390725
    31  C    2.840843   5.099422   1.485930   3.633194   3.859169
    32  H    2.605482   6.102230   2.129034   4.622369   4.759109
    33  H    3.783386   5.214096   2.118393   3.001133   3.348916
    34  H    3.301653   5.035420   2.120595   3.936077   4.362957
    35  C    2.543653   4.795428   1.492251   3.675174   3.170653
    36  H    3.601911   4.823106   2.126895   2.991476   2.460565
    37  H    2.346988   5.863615   2.130626   4.597234   4.165487
    38  H    2.741526   4.572158   2.125510   4.120105   3.390716
    39  H    5.120024   3.002582   3.002602   1.145603   1.920464
                   21         22         23         24         25
    21  H    0.000000
    22  H    1.811020   0.000000
    23  C    3.361117   4.655041   0.000000
    24  H    2.469662   3.999187   1.100742   0.000000
    25  H    4.225797   5.666802   1.106080   1.796993   0.000000
    26  H    3.773053   4.829875   1.099795   1.802862   1.805282
    27  C    3.661434   4.739090   2.430210   2.630157   2.694938
    28  H    4.388636   5.680477   2.632020   2.915130   2.418719
    29  H    2.838510   4.028046   2.697975   2.425022   3.109427
    30  H    4.336100   5.093545   3.385398   3.661084   3.672486
    31  C    4.655016   3.361025   5.727430   5.701129   6.804930
    32  H    5.666781   4.225713   6.804937   6.799605   7.871540
    33  H    3.999159   2.469586   5.701137   5.463410   6.799605
    34  H    4.829877   3.772991   5.473892   5.538840   6.540428
    35  C    4.739066   3.661334   5.876803   5.850531   6.827282
    36  H    4.027982   2.838402   5.754192   5.524630   6.720903
    37  H    5.680430   4.388510   6.932952   6.909393   7.898667
    38  H    5.093549   4.336019   5.835272   5.911990   6.673317
    39  H    1.776101   1.776100   3.123673   2.736385   4.209066
                   26         27         28         29         30
    26  H    0.000000
    27  C    3.387064   0.000000
    28  H    3.660786   1.106067   0.000000
    29  H    3.678514   1.100963   1.800228   0.000000
    30  H    4.222329   1.101182   1.804598   1.805298   0.000000
    31  C    5.473878   5.876806   6.932950   5.754230   5.835262
    32  H    6.540422   6.827286   7.898666   6.720946   6.673306
    33  H    5.538830   5.850547   6.909410   5.524683   5.911992
    34  H    5.020380   6.047205   7.032863   6.014538   6.134232
    35  C    6.047194   4.998910   6.093351   4.874255   4.574783
    36  H    6.014492   4.874222   5.969586   4.510200   4.587753
    37  H    7.032856   6.093357   7.182680   5.969618   5.620108
    38  H    6.134235   4.574796   5.620112   4.587795   3.944080
    39  H    3.148122   3.697348   4.611422   3.311448   4.183173
                   31         32         33         34         35
    31  C    0.000000
    32  H    1.106090   0.000000
    33  H    1.100729   1.796990   0.000000
    34  H    1.099790   1.805278   1.802857   0.000000
    35  C    2.430212   2.694937   2.630152   3.387063   0.000000
    36  H    2.697982   3.109449   2.425032   3.678516   1.100961
    37  H    2.632016   2.418709   2.915102   3.660779   1.106070
    38  H    3.385392   3.672472   3.661078   4.222323   1.101176
    39  H    3.123689   4.209091   2.736413   3.148153   3.697351
                   36         37         38         39
    36  H    0.000000
    37  H    1.800230   0.000000
    38  H    1.805286   1.804599   0.000000
    39  H    3.311426   4.611420   4.183182   0.000000
 Stoichiometry    C12H22N3OPt(1+)
 Framework group  C1[X(C12H22N3OPt)]
 Deg. of freedom   111
 Full point group                 C1      NOp   1
 Largest Abelian subgroup         C1      NOp   1
 Largest concise Abelian subgroup C1      NOp   1
                         Standard orientation:                         
 ---------------------------------------------------------------------
 Center     Atomic      Atomic             Coordinates (Angstroms)
 Number     Number       Type             X           Y           Z
 ---------------------------------------------------------------------
      1         78           0       -0.826001    0.000006   -0.095740
      2          6           0        1.683657    1.198941   -0.367650
      3          6           0        1.683651   -1.198959   -0.367640
      4          6           0        2.981726    1.243823    0.035870
      5          6           0        2.981721   -1.243847    0.035870
      6          6           0        3.747479   -0.000016    0.265270
      7          1           0        3.498645    2.197584    0.175390
      8          1           0        3.498623   -2.197606    0.175400
      9          8           0        4.919209   -0.000013    0.627820
     10          7           0        1.043009   -0.000010   -0.628550
     11          6           0        0.757844    2.343149   -0.683760
     12          1           0        0.579544    2.374509   -1.773850
     13          1           0        1.139883    3.324020   -0.349710
     14          6           0        0.757833   -2.343161   -0.683750
     15          1           0        0.579533   -2.374521   -1.773840
     16          1           0        1.139865   -3.324040   -0.349690
     17          7           0       -0.586335    2.077387   -0.035850
     18          7           0       -0.586348   -2.077383   -0.035850
     19          6           0       -3.166901   -0.000008    0.898090
     20          1           0       -2.440821    0.000003    1.726340
     21          1           0       -3.785383    0.905491    0.954820
     22          1           0       -3.785330   -0.905529    0.954800
     23          6           0       -1.637126    2.863725   -0.732610
     24          1           0       -2.594036    2.731713   -0.204850
     25          1           0       -1.365028    3.935775   -0.723460
     26          1           0       -1.727336    2.510195   -1.770120
     27          6           0       -0.518486    2.499457    1.393860
     28          1           0       -0.349308    3.591337    1.444460
     29          1           0       -1.470195    2.255125    1.890520
     30          1           0        0.312765    1.972028    1.887260
     31          6           0       -1.637156   -2.863705   -0.732620
     32          1           0       -1.365054   -3.935765   -0.723470
     33          1           0       -2.594056   -2.731697   -0.204870
     34          1           0       -1.727347   -2.510185   -1.770130
     35          6           0       -0.518527   -2.499453    1.393860
     36          1           0       -1.470227   -2.255075    1.890510
     37          1           0       -0.349395   -3.591343    1.444470
     38          1           0        0.312732   -1.972052    1.887260
     39          1           0       -2.750201    0.000023   -0.169040
 ---------------------------------------------------------------------
 Rotational constants (GHZ):           0.5294340           0.3525742           0.2387224
 Standard basis: def2TZVPP (5D, 7F)
 There are   977 symmetry adapted cartesian basis functions of A   symmetry.
 There are   860 symmetry adapted basis functions of A   symmetry.
   860 basis functions,  1290 primitive gaussians,   977 cartesian basis functions
    70 alpha electrons       70 beta electrons
       nuclear repulsion energy      1552.2530090387 Hartrees.
 NAtoms=   39 NActive=   39 NUniq=   39 SFac= 1.00D+00 NAtFMM=   60 NAOKFM=F Big=F
 Integral buffers will be    131072 words long.
 Raffenetti 2 integral format.
 Two-electron integral symmetry is turned on.
 Nuclear repulsion after empirical dispersion term =     1552.2089999161 Hartrees.
 ------------------------------------------------------------------------------
 Polarizable Continuum Model (PCM)
 =================================
 Model                : PCM.
 Atomic radii         : UFF (Universal Force Field).
 Polarization charges : Total charges.
 Charge compensation  : None.
 Solution method      : On-the-fly selection.
 Cavity type          : Scaled VdW (van der Waals Surface) (Alpha=1.100).
 Cavity algorithm     : GePol (No added spheres)
                        Default sphere list used, NSphG=   39.
                        Lebedev-Laikov grids with approx.  5.0 points / Ang**2.
                        Smoothing algorithm: York/Karplus (Gamma=1.0000).
                        Polarization charges: spherical gaussians, with
                                              point-specific exponents (IZeta= 3).
                        Self-potential: point-specific (ISelfS= 7).
                        Self-field    : sphere-specific E.n sum rule (ISelfD= 2).
 1st derivatives      : Analytical E(r).r(x)/FMM algorithm (CHGder, D1EAlg=3).
                        Cavity 1st derivative terms included.
 Solvent              : Dichloromethane, Eps=   8.930000 Eps(inf)=   2.028346
 ------------------------------------------------------------------------------
 One-electron integrals computed using PRISM.
 PrsmSu:  requested number of processors reduced to:   5 ShMem   1 Linda.
   1 Symmetry operations used in ECPInt.
 ECPInt:  NShTT=   52650 NPrTT=  135893 LenC2=   47806 LenP2D=   94113.
 LDataN:  DoStor=T MaxTD1= 9 Len=  602
 NBasis=   860 RedAO= T EigKep=  2.05D-05  NBF=   860
 NBsUse=   860 1.00D-06 EigRej= -1.00D+00 NBFU=   860
 Defaulting to unpruned grid for atomic number  78.
 ExpMin= 4.92D-02 ExpMax= 2.70D+04 ExpMxC= 9.22D+02 IAcc=3 IRadAn=         5 AccDes= 0.00D+00
 Harris functional with IExCor= 4639 and IRadAn=       5 diagonalized for initial guess.
 HarFok:  IExCor= 4639 AccDes= 0.00D+00 IRadAn=         5 IDoV= 1 UseB2=F ITyADJ=14
 ICtDFT=  3500011 ScaDFX=  1.000000  1.000000  1.000000  1.000000
 Defaulting to unpruned grid for atomic number  78.
 FoFCou: FMM=F IPFlag=           0 FMFlag=      100000 FMFlg1=           0
         NFxFlg=           0 DoJE=T BraDBF=F KetDBF=T FulRan=T
         wScrn=  0.000000 ICntrl=       500 IOpCl=  0 I1Cent=   200000004 NGrid=           0
         NMat0=    1 NMatS0=      1 NMatT0=    0 NMatD0=    1 NMtDS0=    0 NMtDT0=    0
 Petite list used in FoFCou.
 Requested convergence on RMS density matrix=1.00D-08 within 128 cycles.
 Requested convergence on MAX density matrix=1.00D-06.
 Requested convergence on             energy=1.00D-06.
 No special actions if energy rises.
 Defaulting to unpruned grid for atomic number  78.
 Defaulting to unpruned grid for atomic number  78.
 Defaulting to unpruned grid for atomic number  78.
 Defaulting to unpruned grid for atomic number  78.
 Defaulting to unpruned grid for atomic number  78.
 Defaulting to unpruned grid for atomic number  78.
 Defaulting to unpruned grid for atomic number  78.
 Defaulting to unpruned grid for atomic number  78.
 Inv3:  Mode=1 IEnd=    19005867.
 Iteration    1 A*A^-1 deviation from unit magnitude is 3.11D-15 for    252.
 Iteration    1 A*A^-1 deviation from orthogonality  is 2.24D-15 for   2403    723.
 Iteration    1 A^-1*A deviation from unit magnitude is 3.33D-15 for    252.
 Iteration    1 A^-1*A deviation from orthogonality  is 2.16D-15 for   2368   1355.
 Error on total polarization charges =  0.01893
 SCF Done:  E(RwB97XD) =  -829.340784390     A.U. after   18 cycles
            NFock= 18  Conv=0.55D-08     -V/T= 2.1117

 **********************************************************************

            Population analysis using the SCF Density.

 **********************************************************************

 Orbital symmetries:
       Occupied  (A) (A) (A) (A) (A) (A) (A) (A) (A) (A) (A) (A)
                 (A) (A) (A) (A) (A) (A) (A) (A) (A) (A) (A) (A)
                 (A) (A) (A) (A) (A) (A) (A) (A) (A) (A) (A) (A)
                 (A) (A) (A) (A) (A) (A) (A) (A) (A) (A) (A) (A)
                 (A) (A) (A) (A) (A) (A) (A) (A) (A) (A) (A) (A)
                 (A) (A) (A) (A) (A) (A) (A) (A) (A) (A)
       Virtual   (A) (A) (A) (A) (A) (A) (A) (A) (A) (A) (A) (A)
                 (A) (A) (A) (A) (A) (A) (A) (A) (A) (A) (A) (A)
                 (A) (A) (A) (A) (A) (A) (A) (A) (A) (A) (A) (A)
                 (A) (A) (A) (A) (A) (A) (A) (A) (A) (A) (A) (A)
                 (A) (A) (A) (A) (A) (A) (A) (A) (A) (A) (A) (A)
                 (A) (A) (A) (A) (A) (A) (A) (A) (A) (A) (A) (A)
                 (A) (A) (A) (A) (A) (A) (A) (A) (A) (A) (A) (A)
                 (A) (A) (A) (A) (A) (A) (A) (A) (A) (A) (A) (A)
                 (A) (A) (A) (A) (A) (A) (A) (A) (A) (A) (A) (A)
                 (A) (A) (A) (A) (A) (A) (A) (A) (A) (A) (A) (A)
                 (A) (A) (A) (A) (A) (A) (A) (A) (A) (A) (A) (A)
                 (A) (A) (A) (A) (A) (A) (A) (A) (A) (A) (A) (A)
                 (A) (A) (A) (A) (A) (A) (A) (A) (A) (A) (A) (A)
                 (A) (A) (A) (A) (A) (A) (A) (A) (A) (A) (A) (A)
                 (A) (A) (A) (A) (A) (A) (A) (A) (A) (A) (A) (A)
                 (A) (A) (A) (A) (A) (A) (A) (A) (A) (A) (A) (A)
                 (A) (A) (A) (A) (A) (A) (A) (A) (A) (A) (A) (A)
                 (A) (A) (A) (A) (A) (A) (A) (A) (A) (A) (A) (A)
                 (A) (A) (A) (A) (A) (A) (A) (A) (A) (A) (A) (A)
                 (A) (A) (A) (A) (A) (A) (A) (A) (A) (A) (A) (A)
                 (A) (A) (A) (A) (A) (A) (A) (A) (A) (A) (A) (A)
                 (A) (A) (A) (A) (A) (A) (A) (A) (A) (A) (A) (A)
                 (A) (A) (A) (A) (A) (A) (A) (A) (A) (A) (A) (A)
                 (A) (A) (A) (A) (A) (A) (A) (A) (A) (A) (A) (A)
                 (A) (A) (A) (A) (A) (A) (A) (A) (A) (A) (A) (A)
                 (A) (A) (A) (A) (A) (A) (A) (A) (A) (A) (A) (A)
                 (A) (A) (A) (A) (A) (A) (A) (A) (A) (A) (A) (A)
                 (A) (A) (A) (A) (A) (A) (A) (A) (A) (A) (A) (A)
                 (A) (A) (A) (A) (A) (A) (A) (A) (A) (A) (A) (A)
                 (A) (A) (A) (A) (A) (A) (A) (A) (A) (A) (A) (A)
                 (A) (A) (A) (A) (A) (A) (A) (A) (A) (A) (A) (A)
                 (A) (A) (A) (A) (A) (A) (A) (A) (A) (A) (A) (A)
                 (A) (A) (A) (A) (A) (A) (A) (A) (A) (A) (A) (A)
                 (A) (A) (A) (A) (A) (A) (A) (A) (A) (A) (A) (A)
                 (A) (A) (A) (A) (A) (A) (A) (A) (A) (A) (A) (A)
                 (A) (A) (A) (A) (A) (A) (A) (A) (A) (A) (A) (A)
                 (A) (A) (A) (A) (A) (A) (A) (A) (A) (A) (A) (A)
                 (A) (A) (A) (A) (A) (A) (A) (A) (A) (A) (A) (A)
                 (A) (A) (A) (A) (A) (A) (A) (A) (A) (A) (A) (A)
                 (A) (A) (A) (A) (A) (A) (A) (A) (A) (A) (A) (A)
                 (A) (A) (A) (A) (A) (A) (A) (A) (A) (A) (A) (A)
                 (A) (A) (A) (A) (A) (A) (A) (A) (A) (A) (A) (A)
                 (A) (A) (A) (A) (A) (A) (A) (A) (A) (A) (A) (A)
                 (A) (A) (A) (A) (A) (A) (A) (A) (A) (A) (A) (A)
                 (A) (A) (A) (A) (A) (A) (A) (A) (A) (A) (A) (A)
                 (A) (A) (A) (A) (A) (A) (A) (A) (A) (A) (A) (A)
                 (A) (A) (A) (A) (A) (A) (A) (A) (A) (A) (A) (A)
                 (A) (A) (A) (A) (A) (A) (A) (A) (A) (A) (A) (A)
                 (A) (A) (A) (A) (A) (A) (A) (A) (A) (A) (A) (A)
                 (A) (A) (A) (A) (A) (A) (A) (A) (A) (A) (A) (A)
                 (A) (A) (A) (A) (A) (A) (A) (A) (A) (A) (A) (A)
                 (A) (A) (A) (A) (A) (A) (A) (A) (A) (A) (A) (A)
                 (A) (A) (A) (A) (A) (A) (A) (A) (A) (A) (A) (A)
                 (A) (A) (A) (A) (A) (A) (A) (A) (A) (A) (A) (A)
                 (A) (A) (A) (A) (A) (A) (A) (A) (A) (A) (A) (A)
                 (A) (A) (A) (A) (A) (A) (A) (A) (A) (A) (A) (A)
                 (A) (A) (A) (A) (A) (A) (A) (A) (A) (A) (A) (A)
                 (A) (A) (A) (A) (A) (A) (A) (A) (A) (A) (A) (A)
                 (A) (A) (A) (A) (A) (A) (A) (A) (A) (A) (A) (A)
                 (A) (A) (A) (A) (A) (A) (A) (A) (A) (A) (A) (A)
                 (A) (A) (A) (A) (A) (A) (A) (A) (A) (A) (A) (A)
                 (A) (A) (A) (A) (A) (A) (A) (A) (A) (A) (A) (A)
                 (A) (A) (A) (A) (A) (A) (A) (A) (A) (A) (A) (A)
                 (A) (A) (A) (A) (A) (A) (A) (A) (A) (A) (A) (A)
                 (A) (A) (A) (A) (A) (A) (A) (A) (A) (A) (A) (A)
                 (A) (A) (A) (A) (A) (A) (A) (A) (A) (A)
 The electronic state is 1-A.
 Alpha  occ. eigenvalues --  -19.22026 -14.55138 -14.55137 -14.50321 -10.37815
 Alpha  occ. eigenvalues --  -10.36952 -10.36949 -10.36694 -10.36694 -10.34954
 Alpha  occ. eigenvalues --  -10.34953 -10.34950 -10.34950 -10.33861 -10.30712
 Alpha  occ. eigenvalues --  -10.30712  -4.08450  -2.33307  -2.33131  -2.29586
 Alpha  occ. eigenvalues --   -1.13164  -1.11257  -1.09653  -1.07484  -0.93635
 Alpha  occ. eigenvalues --   -0.89083  -0.86699  -0.85555  -0.85239  -0.85184
 Alpha  occ. eigenvalues --   -0.83209  -0.76243  -0.75240  -0.73197  -0.69810
 Alpha  occ. eigenvalues --   -0.65252  -0.63439  -0.62515  -0.61632  -0.61375
 Alpha  occ. eigenvalues --   -0.60366  -0.59862  -0.59291  -0.57410  -0.55616
 Alpha  occ. eigenvalues --   -0.54932  -0.54102  -0.53876  -0.53435  -0.52562
 Alpha  occ. eigenvalues --   -0.52434  -0.51936  -0.50533  -0.50321  -0.50181
 Alpha  occ. eigenvalues --   -0.49771  -0.49497  -0.49162  -0.48581  -0.47583
 Alpha  occ. eigenvalues --   -0.47554  -0.46993  -0.42638  -0.39921  -0.38859
 Alpha  occ. eigenvalues --   -0.38573  -0.36941  -0.36106  -0.34037  -0.31017
 Alpha virt. eigenvalues --   -0.02220   0.02812   0.02873   0.05561   0.06606
 Alpha virt. eigenvalues --    0.09785   0.10069   0.11212   0.11873   0.12519
 Alpha virt. eigenvalues --    0.12784   0.13571   0.13861   0.14452   0.14681
 Alpha virt. eigenvalues --    0.14776   0.15376   0.15785   0.16933   0.17037
 Alpha virt. eigenvalues --    0.17628   0.18088   0.18449   0.19064   0.19460
 Alpha virt. eigenvalues --    0.19551   0.19855   0.19909   0.20423   0.20745
 Alpha virt. eigenvalues --    0.21365   0.21901   0.22398   0.22424   0.22810
 Alpha virt. eigenvalues --    0.23626   0.23889   0.24005   0.26258   0.27250
 Alpha virt. eigenvalues --    0.27947   0.28851   0.29062   0.29403   0.29791
 Alpha virt. eigenvalues --    0.30572   0.31188   0.32119   0.32197   0.32518
 Alpha virt. eigenvalues --    0.33853   0.33916   0.34986   0.35135   0.36099
 Alpha virt. eigenvalues --    0.37060   0.37348   0.37489   0.37928   0.38166
 Alpha virt. eigenvalues --    0.39026   0.39375   0.39960   0.40306   0.40695
 Alpha virt. eigenvalues --    0.41425   0.42718   0.43077   0.43225   0.43390
 Alpha virt. eigenvalues --    0.43875   0.44133   0.44969   0.45666   0.45944
 Alpha virt. eigenvalues --    0.46539   0.46936   0.47090   0.47503   0.47781
 Alpha virt. eigenvalues --    0.48091   0.48354   0.48432   0.48714   0.48870
 Alpha virt. eigenvalues --    0.49427   0.49742   0.49933   0.51355   0.51685
 Alpha virt. eigenvalues --    0.52020   0.52214   0.52900   0.53083   0.54732
 Alpha virt. eigenvalues --    0.54737   0.55081   0.55454   0.55753   0.56723
 Alpha virt. eigenvalues --    0.57152   0.57764   0.58084   0.58562   0.58708
 Alpha virt. eigenvalues --    0.59457   0.60003   0.60480   0.60564   0.62082
 Alpha virt. eigenvalues --    0.62536   0.62726   0.64080   0.64885   0.65236
 Alpha virt. eigenvalues --    0.65630   0.66636   0.67484   0.68837   0.68955
 Alpha virt. eigenvalues --    0.69280   0.70560   0.71330   0.71638   0.72290
 Alpha virt. eigenvalues --    0.73019   0.74223   0.74710   0.75949   0.76889
 Alpha virt. eigenvalues --    0.77155   0.78472   0.79292   0.80843   0.80868
 Alpha virt. eigenvalues --    0.81875   0.83051   0.83275   0.84792   0.84883
 Alpha virt. eigenvalues --    0.86013   0.86383   0.86904   0.87360   0.88050
 Alpha virt. eigenvalues --    0.88882   0.89293   0.89655   0.89921   0.92140
 Alpha virt. eigenvalues --    0.92593   0.93033   0.93286   0.93434   0.93793
 Alpha virt. eigenvalues --    0.94688   0.95206   0.96130   0.96828   0.97827
 Alpha virt. eigenvalues --    0.97985   0.98850   1.00225   1.00725   1.01382
 Alpha virt. eigenvalues --    1.02449   1.02580   1.03214   1.03282   1.04276
 Alpha virt. eigenvalues --    1.04676   1.05123   1.05413   1.06253   1.06427
 Alpha virt. eigenvalues --    1.06726   1.07329   1.07603   1.08141   1.08370
 Alpha virt. eigenvalues --    1.09609   1.09647   1.10361   1.11463   1.12114
 Alpha virt. eigenvalues --    1.12281   1.13201   1.14936   1.15643   1.16069
 Alpha virt. eigenvalues --    1.17885   1.18110   1.18326   1.18845   1.19617
 Alpha virt. eigenvalues --    1.19785   1.19873   1.20473   1.22172   1.23764
 Alpha virt. eigenvalues --    1.23932   1.24571   1.25956   1.26238   1.26412
 Alpha virt. eigenvalues --    1.26598   1.26959   1.28275   1.29260   1.29538
 Alpha virt. eigenvalues --    1.29652   1.31235   1.31346   1.31980   1.32219
 Alpha virt. eigenvalues --    1.32621   1.33500   1.34548   1.35300   1.35677
 Alpha virt. eigenvalues --    1.35878   1.36994   1.37165   1.37477   1.38464
 Alpha virt. eigenvalues --    1.38832   1.39995   1.40778   1.41010   1.41255
 Alpha virt. eigenvalues --    1.41858   1.43262   1.43790   1.44350   1.44872
 Alpha virt. eigenvalues --    1.45581   1.46330   1.46473   1.47810   1.48404
 Alpha virt. eigenvalues --    1.49214   1.49278   1.49950   1.50553   1.50877
 Alpha virt. eigenvalues --    1.51869   1.52285   1.53050   1.53791   1.54663
 Alpha virt. eigenvalues --    1.55445   1.56183   1.56867   1.57022   1.57926
 Alpha virt. eigenvalues --    1.58055   1.59088   1.59452   1.60279   1.60468
 Alpha virt. eigenvalues --    1.61021   1.62492   1.63133   1.63322   1.64722
 Alpha virt. eigenvalues --    1.64838   1.65054   1.66438   1.67457   1.67726
 Alpha virt. eigenvalues --    1.68191   1.69689   1.69781   1.70985   1.71713
 Alpha virt. eigenvalues --    1.72097   1.73184   1.74565   1.75865   1.76174
 Alpha virt. eigenvalues --    1.77495   1.78166   1.79199   1.80269   1.81055
 Alpha virt. eigenvalues --    1.81664   1.82204   1.82923   1.84098   1.86477
 Alpha virt. eigenvalues --    1.86527   1.88117   1.88751   1.89712   1.90050
 Alpha virt. eigenvalues --    1.91630   1.92214   1.92486   1.94572   1.94720
 Alpha virt. eigenvalues --    1.95713   1.96904   1.97448   1.98149   2.01368
 Alpha virt. eigenvalues --    2.02327   2.03549   2.04383   2.06852   2.06919
 Alpha virt. eigenvalues --    2.07764   2.10671   2.11344   2.11372   2.13524
 Alpha virt. eigenvalues --    2.15431   2.17242   2.17783   2.18217   2.19970
 Alpha virt. eigenvalues --    2.21265   2.22275   2.22995   2.23153   2.24957
 Alpha virt. eigenvalues --    2.26142   2.26565   2.28477   2.30539   2.33102
 Alpha virt. eigenvalues --    2.33182   2.35640   2.35667   2.36525   2.38184
 Alpha virt. eigenvalues --    2.40087   2.40828   2.41525   2.44596   2.45357
 Alpha virt. eigenvalues --    2.51859   2.52699   2.55893   2.56975   2.58040
 Alpha virt. eigenvalues --    2.58125   2.60262   2.60944   2.62519   2.63052
 Alpha virt. eigenvalues --    2.63282   2.64102   2.64489   2.65825   2.66183
 Alpha virt. eigenvalues --    2.66193   2.67989   2.69321   2.70481   2.70855
 Alpha virt. eigenvalues --    2.72095   2.73034   2.73281   2.73410   2.76638
 Alpha virt. eigenvalues --    2.76716   2.77889   2.78942   2.79037   2.80129
 Alpha virt. eigenvalues --    2.80892   2.81027   2.82319   2.82649   2.84194
 Alpha virt. eigenvalues --    2.84541   2.84565   2.86481   2.86619   2.87484
 Alpha virt. eigenvalues --    2.87698   2.88149   2.88643   2.89197   2.89914
 Alpha virt. eigenvalues --    2.90057   2.91193   2.92441   2.92772   2.93796
 Alpha virt. eigenvalues --    2.93998   2.94637   2.95491   2.95632   2.96463
 Alpha virt. eigenvalues --    2.97400   2.97654   2.98747   2.99642   2.99821
 Alpha virt. eigenvalues --    2.99916   3.00347   3.00620   3.01314   3.01845
 Alpha virt. eigenvalues --    3.02725   3.02847   3.04476   3.04492   3.05469
 Alpha virt. eigenvalues --    3.05944   3.07350   3.07464   3.08522   3.08876
 Alpha virt. eigenvalues --    3.10204   3.10346   3.10847   3.11451   3.12381
 Alpha virt. eigenvalues --    3.12611   3.13368   3.14533   3.14799   3.14983
 Alpha virt. eigenvalues --    3.16580   3.18139   3.18714   3.18825   3.20095
 Alpha virt. eigenvalues --    3.20423   3.22585   3.23059   3.23797   3.23810
 Alpha virt. eigenvalues --    3.24751   3.25437   3.25489   3.25905   3.26545
 Alpha virt. eigenvalues --    3.26690   3.27571   3.28205   3.29084   3.29127
 Alpha virt. eigenvalues --    3.30722   3.32174   3.33130   3.33157   3.33517
 Alpha virt. eigenvalues --    3.34993   3.35388   3.35395   3.36123   3.38077
 Alpha virt. eigenvalues --    3.38214   3.38945   3.40002   3.40160   3.40928
 Alpha virt. eigenvalues --    3.41047   3.41704   3.42849   3.42911   3.43346
 Alpha virt. eigenvalues --    3.43785   3.45036   3.45617   3.45757   3.46703
 Alpha virt. eigenvalues --    3.46745   3.47035   3.48528   3.48896   3.49457
 Alpha virt. eigenvalues --    3.49781   3.50310   3.51677   3.51963   3.52584
 Alpha virt. eigenvalues --    3.52789   3.53448   3.54310   3.55180   3.55730
 Alpha virt. eigenvalues --    3.56687   3.57206   3.57767   3.58398   3.59797
 Alpha virt. eigenvalues --    3.59854   3.60542   3.61274   3.62598   3.62671
 Alpha virt. eigenvalues --    3.63365   3.64078   3.64651   3.64784   3.65118
 Alpha virt. eigenvalues --    3.65900   3.67133   3.68037   3.69111   3.69695
 Alpha virt. eigenvalues --    3.70471   3.71056   3.71462   3.72465   3.72686
 Alpha virt. eigenvalues --    3.72997   3.74536   3.75238   3.75582   3.75661
 Alpha virt. eigenvalues --    3.76354   3.76863   3.78073   3.78563   3.78969
 Alpha virt. eigenvalues --    3.79533   3.80001   3.80319   3.81161   3.82130
 Alpha virt. eigenvalues --    3.82547   3.83779   3.84266   3.84800   3.85055
 Alpha virt. eigenvalues --    3.85586   3.86743   3.87307   3.87900   3.90092
 Alpha virt. eigenvalues --    3.90133   3.91501   3.91560   3.91822   3.93603
 Alpha virt. eigenvalues --    3.93697   3.94997   3.96248   3.97465   3.97942
 Alpha virt. eigenvalues --    3.98250   4.00073   4.00575   4.01036   4.01434
 Alpha virt. eigenvalues --    4.02509   4.02981   4.03613   4.05198   4.05771
 Alpha virt. eigenvalues --    4.06827   4.07397   4.07776   4.08677   4.10197
 Alpha virt. eigenvalues --    4.11145   4.11677   4.12084   4.13185   4.13250
 Alpha virt. eigenvalues --    4.14869   4.15789   4.16233   4.16372   4.16448
 Alpha virt. eigenvalues --    4.17386   4.17862   4.18504   4.19019   4.19056
 Alpha virt. eigenvalues --    4.19736   4.19809   4.20383   4.20921   4.21034
 Alpha virt. eigenvalues --    4.21424   4.22101   4.23699   4.24089   4.24153
 Alpha virt. eigenvalues --    4.24486   4.25274   4.26309   4.26596   4.27296
 Alpha virt. eigenvalues --    4.27958   4.29188   4.29350   4.29923   4.30159
 Alpha virt. eigenvalues --    4.30923   4.31429   4.31808   4.31965   4.32816
 Alpha virt. eigenvalues --    4.33942   4.35483   4.35953   4.36153   4.37518
 Alpha virt. eigenvalues --    4.37640   4.38822   4.41037   4.42343   4.42658
 Alpha virt. eigenvalues --    4.44916   4.45366   4.46559   4.46644   4.48163
 Alpha virt. eigenvalues --    4.48378   4.48744   4.50241   4.51882   4.53442
 Alpha virt. eigenvalues --    4.53749   4.54924   4.56778   4.57528   4.60353
 Alpha virt. eigenvalues --    4.60888   4.65119   4.65950   4.66811   4.68590
 Alpha virt. eigenvalues --    4.69123   4.69720   4.72082   4.72239   4.72750
 Alpha virt. eigenvalues --    4.75754   4.76233   4.76423   4.77309   4.78322
 Alpha virt. eigenvalues --    4.78949   4.80258   4.81752   4.82395   4.84579
 Alpha virt. eigenvalues --    4.85728   4.87421   4.88356   4.88505   4.89017
 Alpha virt. eigenvalues --    4.91867   4.92186   4.95875   4.98056   4.98886
 Alpha virt. eigenvalues --    4.99047   5.00993   5.01058   5.02587   5.03351
 Alpha virt. eigenvalues --    5.04805   5.05405   5.05536   5.07632   5.09282
 Alpha virt. eigenvalues --    5.10000   5.11580   5.12418   5.13381   5.13658
 Alpha virt. eigenvalues --    5.13791   5.14907   5.14993   5.16754   5.17625
 Alpha virt. eigenvalues --    5.19169   5.19972   5.19989   5.20865   5.21388
 Alpha virt. eigenvalues --    5.22295   5.22412   5.23160   5.23283   5.23791
 Alpha virt. eigenvalues --    5.25673   5.27566   5.27834   5.28449   5.28722
 Alpha virt. eigenvalues --    5.29240   5.30882   5.31351   5.31972   5.32090
 Alpha virt. eigenvalues --    5.33683   5.34205   5.35089   5.35329   5.36182
 Alpha virt. eigenvalues --    5.36469   5.37422   5.37923   5.39003   5.39279
 Alpha virt. eigenvalues --    5.40036   5.40689   5.41559   5.44342   5.45089
 Alpha virt. eigenvalues --    5.47132   5.47631   5.47910   5.49281   5.50063
 Alpha virt. eigenvalues --    5.50261   5.51389   5.52765   5.53978   5.54719
 Alpha virt. eigenvalues --    5.54814   5.57201   5.58544   5.59583   5.59904
 Alpha virt. eigenvalues --    5.60163   5.62036   5.62112   5.63228   5.65193
 Alpha virt. eigenvalues --    5.65479   5.65785   5.69623   5.69711   5.71077
 Alpha virt. eigenvalues --    5.71085   5.71599   5.73022   5.73533   5.74088
 Alpha virt. eigenvalues --    5.74596   5.74869   5.76043   5.76501   5.78448
 Alpha virt. eigenvalues --    5.80594   5.81643   5.85101   5.89385   5.91341
 Alpha virt. eigenvalues --    6.00617   6.05177   6.07553   6.08318   6.09410
 Alpha virt. eigenvalues --    6.11536   6.14886   6.20455   6.24064   6.25631
 Alpha virt. eigenvalues --    6.28502   6.29098   6.48947   6.57398   6.76383
 Alpha virt. eigenvalues --    6.91574   6.96046   7.20201   7.23838  22.85574
 Alpha virt. eigenvalues --   23.06621  23.29292  23.36446  23.42217  23.47931
 Alpha virt. eigenvalues --   23.65901  23.68586  23.74134  23.77903  23.78009
 Alpha virt. eigenvalues --   23.87445  30.47825  32.81209  32.81350  32.97970
 Alpha virt. eigenvalues --   37.30822  37.44393  44.09156  53.18536 285.15750
          Condensed to atoms (all electrons):
               1          2          3          4          5          6
     1  Pt  17.192966  -0.062626  -0.062626  -0.002790  -0.002790   0.000874
     2  C   -0.062626   5.460343  -0.134871   0.079597   0.103388   0.018549
     3  C   -0.062626  -0.134871   5.460334   0.103389   0.079602   0.018548
     4  C   -0.002790   0.079597   0.103389   5.831520  -0.240558   0.280757
     5  C   -0.002790   0.103388   0.079602  -0.240558   5.831516   0.280758
     6  C    0.000874   0.018549   0.018548   0.280757   0.280758   4.511016
     7  H   -0.000450  -0.006404  -0.004795   0.387927   0.018238  -0.032033
     8  H   -0.000450  -0.004795  -0.006403   0.018238   0.387927  -0.032032
     9  O    0.000123   0.027402   0.027401  -0.129069  -0.129067   0.647070
    10  N    0.255959   0.350395   0.350393  -0.098677  -0.098677   0.002225
    11  C   -0.025034   0.201764  -0.007018  -0.026957   0.002924  -0.001867
    12  H   -0.006726  -0.032944   0.000623  -0.001188   0.000197  -0.000280
    13  H    0.010854  -0.041069  -0.000225  -0.001399  -0.000156   0.000856
    14  C   -0.025034  -0.007019   0.201763   0.002924  -0.026956  -0.001867
    15  H   -0.006726   0.000623  -0.032945   0.000197  -0.001188  -0.000281
    16  H    0.010854  -0.000225  -0.041071  -0.000156  -0.001399   0.000856
    17  N    0.212687  -0.022432   0.000949  -0.002151  -0.000328   0.000282
    18  N    0.212686   0.000949  -0.022431  -0.000328  -0.002151   0.000282
    19  C    0.030982   0.000604   0.000604   0.000049   0.000049  -0.000009
    20  H    0.010861   0.000323   0.000323   0.000059   0.000059   0.000001
    21  H   -0.008511  -0.000056  -0.000022  -0.000002  -0.000001   0.000000
    22  H   -0.008512  -0.000022  -0.000056  -0.000001  -0.000002   0.000000
    23  C   -0.037991   0.011226  -0.000159   0.000673  -0.000005  -0.000066
    24  H   -0.013936  -0.000895  -0.000023   0.000024   0.000002  -0.000001
    25  H    0.011560   0.001750   0.000014  -0.000054  -0.000005   0.000003
    26  H   -0.009371  -0.001362   0.000025  -0.000139  -0.000000   0.000006
    27  C   -0.028451   0.001418   0.000087   0.001658  -0.000440  -0.000109
    28  H    0.009518  -0.003584  -0.000027  -0.000240  -0.000005   0.000008
    29  H   -0.011050  -0.000353   0.000157  -0.000040   0.000020   0.000008
    30  H   -0.009077   0.011422  -0.000835   0.005150   0.000663  -0.000655
    31  C   -0.037990  -0.000159   0.011226  -0.000005   0.000673  -0.000066
    32  H    0.011560   0.000014   0.001750  -0.000005  -0.000054   0.000003
    33  H   -0.013936  -0.000023  -0.000895   0.000002   0.000024  -0.000001
    34  H   -0.009371   0.000025  -0.001362  -0.000000  -0.000139   0.000006
    35  C   -0.028452   0.000087   0.001417  -0.000440   0.001658  -0.000109
    36  H   -0.011051   0.000157  -0.000353   0.000020  -0.000040   0.000008
    37  H    0.009518  -0.000027  -0.003584  -0.000005  -0.000240   0.000008
    38  H   -0.009077  -0.000835   0.011422   0.000663   0.005151  -0.000655
    39  H    0.102491  -0.000071  -0.000071   0.000041   0.000041  -0.000009
               7          8          9         10         11         12
     1  Pt  -0.000450  -0.000450   0.000123   0.255959  -0.025034  -0.006726
     2  C   -0.006404  -0.004795   0.027402   0.350395   0.201764  -0.032944
     3  C   -0.004795  -0.006403   0.027401   0.350393  -0.007018   0.000623
     4  C    0.387927   0.018238  -0.129069  -0.098677  -0.026957  -0.001188
     5  C    0.018238   0.387927  -0.129067  -0.098677   0.002924   0.000197
     6  C   -0.032033  -0.032032   0.647070   0.002225  -0.001867  -0.000280
     7  H    0.512560  -0.000124   0.007615   0.003685  -0.004078   0.000143
     8  H   -0.000124   0.512560   0.007615   0.003685   0.000105   0.000002
     9  O    0.007615   0.007615   8.016480   0.000833  -0.000593   0.000002
    10  N    0.003685   0.003685   0.000833   6.555152   0.002457  -0.005441
    11  C   -0.004078   0.000105  -0.000593   0.002457   4.921810   0.439352
    12  H    0.000143   0.000002   0.000002  -0.005441   0.439352   0.510161
    13  H    0.000594  -0.000004   0.000019   0.003694   0.434393  -0.012489
    14  C    0.000105  -0.004078  -0.000593   0.002459  -0.002167  -0.000267
    15  H    0.000002   0.000143   0.000002  -0.005441  -0.000267  -0.000022
    16  H   -0.000004   0.000594   0.000019   0.003694   0.000074  -0.000001
    17  N    0.000172  -0.000004   0.000007  -0.019515   0.248070  -0.035113
    18  N   -0.000004   0.000172   0.000007  -0.019515   0.001211   0.000073
    19  C    0.000001   0.000001  -0.000000  -0.004212   0.000180  -0.000005
    20  H   -0.000000  -0.000000  -0.000000  -0.000634  -0.000415   0.000007
    21  H   -0.000000  -0.000000   0.000000   0.000127   0.000045  -0.000002
    22  H   -0.000000  -0.000000   0.000000   0.000127   0.000023  -0.000000
    23  C   -0.000029   0.000001  -0.000001  -0.002656  -0.041173  -0.002943
    24  H    0.000000   0.000000   0.000000   0.000069   0.008144   0.000379
    25  H    0.000004  -0.000000   0.000000   0.000203  -0.009279  -0.002425
    26  H   -0.000004   0.000000  -0.000000  -0.000625  -0.004257   0.001974
    27  C   -0.000162   0.000001   0.000004  -0.001059  -0.032722   0.004459
    28  H   -0.000015  -0.000000   0.000000   0.000298  -0.007447  -0.000099
    29  H   -0.000003  -0.000000  -0.000000   0.000039   0.006168  -0.000108
    30  H    0.000284   0.000004  -0.000008  -0.003571  -0.011391   0.000350
    31  C    0.000001  -0.000029  -0.000001  -0.002657  -0.000234  -0.000008
    32  H   -0.000000   0.000004   0.000000   0.000203   0.000009  -0.000000
    33  H    0.000000   0.000000   0.000000   0.000069  -0.000015   0.000000
    34  H    0.000000  -0.000004  -0.000000  -0.000625  -0.000047  -0.000001
    35  C    0.000001  -0.000162   0.000004  -0.001059  -0.000029  -0.000012
    36  H   -0.000000  -0.000003  -0.000000   0.000039  -0.000031   0.000001
    37  H   -0.000000  -0.000015   0.000000   0.000298   0.000007  -0.000000
    38  H    0.000004   0.000284  -0.000008  -0.003571  -0.000019   0.000001
    39  H    0.000000   0.000000  -0.000000  -0.000953   0.000109  -0.000017
              13         14         15         16         17         18
     1  Pt   0.010854  -0.025034  -0.006726   0.010854   0.212687   0.212686
     2  C   -0.041069  -0.007019   0.000623  -0.000225  -0.022432   0.000949
     3  C   -0.000225   0.201763  -0.032945  -0.041071   0.000949  -0.022431
     4  C   -0.001399   0.002924   0.000197  -0.000156  -0.002151  -0.000328
     5  C   -0.000156  -0.026956  -0.001188  -0.001399  -0.000328  -0.002151
     6  C    0.000856  -0.001867  -0.000281   0.000856   0.000282   0.000282
     7  H    0.000594   0.000105   0.000002  -0.000004   0.000172  -0.000004
     8  H   -0.000004  -0.004078   0.000143   0.000594  -0.000004   0.000172
     9  O    0.000019  -0.000593   0.000002   0.000019   0.000007   0.000007
    10  N    0.003694   0.002459  -0.005441   0.003694  -0.019515  -0.019515
    11  C    0.434393  -0.002167  -0.000267   0.000074   0.248070   0.001211
    12  H   -0.012489  -0.000267  -0.000022  -0.000001  -0.035113   0.000073
    13  H    0.511864   0.000074  -0.000001  -0.000000  -0.023902  -0.000041
    14  C    0.000074   4.921806   0.439353   0.434392   0.001211   0.248067
    15  H   -0.000001   0.439353   0.510162  -0.012489   0.000073  -0.035113
    16  H   -0.000000   0.434392  -0.012489   0.511866  -0.000041  -0.023902
    17  N   -0.023902   0.001211   0.000073  -0.000041   6.341040  -0.009203
    18  N   -0.000041   0.248067  -0.035113  -0.023902  -0.009203   6.341045
    19  C   -0.000003   0.000180  -0.000005  -0.000003   0.002063   0.002063
    20  H    0.000001  -0.000415   0.000007   0.000001  -0.000580  -0.000580
    21  H    0.000000   0.000023  -0.000000   0.000000  -0.000656  -0.000085
    22  H    0.000000   0.000045  -0.000002   0.000000  -0.000085  -0.000656
    23  C   -0.005417  -0.000234  -0.000008   0.000002   0.255215   0.000837
    24  H   -0.000355  -0.000015   0.000000   0.000000  -0.028619   0.000060
    25  H    0.003371   0.000009  -0.000000   0.000000  -0.018503  -0.000016
    26  H   -0.000232  -0.000047  -0.000001   0.000000  -0.032993   0.000107
    27  C   -0.011327  -0.000029  -0.000012   0.000007   0.256524   0.001139
    28  H    0.004417   0.000007  -0.000000  -0.000000  -0.020743  -0.000029
    29  H    0.000040  -0.000031   0.000001  -0.000000  -0.031650   0.000125
    30  H   -0.003221  -0.000019   0.000001  -0.000002  -0.029724   0.000203
    31  C    0.000002  -0.041172  -0.002943  -0.005417   0.000837   0.255215
    32  H    0.000000  -0.009280  -0.002425   0.003371  -0.000016  -0.018503
    33  H    0.000000   0.008143   0.000379  -0.000355   0.000060  -0.028617
    34  H    0.000000  -0.004257   0.001974  -0.000232   0.000107  -0.032992
    35  C    0.000007  -0.032721   0.004459  -0.011327   0.001139   0.256523
    36  H   -0.000000   0.006168  -0.000108   0.000040   0.000125  -0.031650
    37  H   -0.000000  -0.007447  -0.000099   0.004417  -0.000029  -0.020744
    38  H   -0.000002  -0.011391   0.000350  -0.003221   0.000203  -0.029724
    39  H    0.000003   0.000109  -0.000017   0.000003  -0.001177  -0.001177
              19         20         21         22         23         24
     1  Pt   0.030982   0.010861  -0.008511  -0.008512  -0.037991  -0.013936
     2  C    0.000604   0.000323  -0.000056  -0.000022   0.011226  -0.000895
     3  C    0.000604   0.000323  -0.000022  -0.000056  -0.000159  -0.000023
     4  C    0.000049   0.000059  -0.000002  -0.000001   0.000673   0.000024
     5  C    0.000049   0.000059  -0.000001  -0.000002  -0.000005   0.000002
     6  C   -0.000009   0.000001   0.000000   0.000000  -0.000066  -0.000001
     7  H    0.000001  -0.000000  -0.000000  -0.000000  -0.000029   0.000000
     8  H    0.000001  -0.000000  -0.000000  -0.000000   0.000001   0.000000
     9  O   -0.000000  -0.000000   0.000000   0.000000  -0.000001   0.000000
    10  N   -0.004212  -0.000634   0.000127   0.000127  -0.002656   0.000069
    11  C    0.000180  -0.000415   0.000045   0.000023  -0.041173   0.008144
    12  H   -0.000005   0.000007  -0.000002  -0.000000  -0.002943   0.000379
    13  H   -0.000003   0.000001   0.000000   0.000000  -0.005417  -0.000355
    14  C    0.000180  -0.000415   0.000023   0.000045  -0.000234  -0.000015
    15  H   -0.000005   0.000007  -0.000000  -0.000002  -0.000008   0.000000
    16  H   -0.000003   0.000001   0.000000   0.000000   0.000002   0.000000
    17  N    0.002063  -0.000580  -0.000656  -0.000085   0.255215  -0.028619
    18  N    0.002063  -0.000580  -0.000085  -0.000656   0.000837   0.000060
    19  C    4.798755   0.373651   0.414910   0.414914  -0.001467   0.002669
    20  H    0.373651   0.523750  -0.011368  -0.011367  -0.000284  -0.000421
    21  H    0.414910  -0.011368   0.490312  -0.007483  -0.001768   0.000360
    22  H    0.414914  -0.011367  -0.007483   0.490311   0.000116   0.000160
    23  C   -0.001467  -0.000284  -0.001768   0.000116   4.802613   0.417675
    24  H    0.002669  -0.000421   0.000360   0.000160   0.417675   0.543429
    25  H   -0.000088  -0.000005   0.000012   0.000000   0.410163  -0.017283
    26  H   -0.000124  -0.000014   0.000151  -0.000021   0.425102  -0.015854
    27  C    0.000167  -0.000324  -0.000454   0.000010  -0.042487  -0.005924
    28  H   -0.000133   0.000072  -0.000014   0.000001  -0.006483  -0.001358
    29  H   -0.000299  -0.001677  -0.000619   0.000227  -0.008998   0.002426
    30  H    0.000045  -0.000056   0.000054  -0.000006   0.006331   0.000132
    31  C   -0.001468  -0.000284   0.000116  -0.001768  -0.000175  -0.000025
    32  H   -0.000088  -0.000005   0.000000   0.000012   0.000003   0.000000
    33  H    0.002669  -0.000421   0.000160   0.000360  -0.000025  -0.000003
    34  H   -0.000124  -0.000014  -0.000021   0.000151  -0.000044  -0.000001
    35  C    0.000167  -0.000325   0.000010  -0.000454  -0.000094  -0.000010
    36  H   -0.000299  -0.001677   0.000227  -0.000620  -0.000003   0.000002
    37  H   -0.000133   0.000072   0.000001  -0.000014   0.000001  -0.000000
    38  H    0.000045  -0.000056  -0.000006   0.000054  -0.000012   0.000000
    39  H    0.291824  -0.023531  -0.011317  -0.011317   0.000899  -0.002471
              25         26         27         28         29         30
     1  Pt   0.011560  -0.009371  -0.028451   0.009518  -0.011050  -0.009077
     2  C    0.001750  -0.001362   0.001418  -0.003584  -0.000353   0.011422
     3  C    0.000014   0.000025   0.000087  -0.000027   0.000157  -0.000835
[...]
 .00000535,0.00006735,0.00015793,0.00014215,-0.00001850,-0.00118876,0.0
 0043712,0.00034848,0.00033040,0.00021839,0.00013017,-0.00003239,0.0000
 2109,-0.00002613,-0.00001716,0.00000063,0.00000353,0.00088575,-0.00028
 078,0.00526621,0.00190963,-0.00017901,0.00143558,0.00167040,0.00147671
 ,0.00272894,0.00003735,-0.00104222,0.00342719,-0.00513198,-0.09080568,
 -0.04500452,-0.00000234,-0.00022322,0.00040838,0.00310598,-0.00250302,
 0.00160967,0.00000933,0.00006311,-0.00008286,0.00011000,-0.00003192,0.
 00001896,-0.00012610,0.00042417,0.00016961,0.00001247,-0.00002130,0.00
 000419,-0.00002426,0.00000305,-0.00002637,0.00001398,0.00004170,-0.000
 05175,-0.00020674,-0.00091795,-0.00017815,-0.00002504,-0.00011048,0.00
 027934,-0.00000302,0.00001488,-0.00002042,0.00000611,0.00003322,-0.000
 01584,-0.00035062,0.00439761,0.02021819,-0.00106740,0.00064882,0.00260
 049,0.00045903,0.00038387,-0.00001566,-0.00255015,-0.00167941,0.002674
 80,0.00542127,0.59126213,0.00030775,-0.01216346,-0.00016536,-0.0003638
 6,-0.00043617,0.00017511,-0.00023720,-0.00143941,0.00127666,0.00037583
 ,-0.00013536,-0.00005498,0.00111054,0.00109978,-0.00024249,-0.00095953
 ,-0.00043367,-0.00006514,0.00004397,0.00004143,0.00001274,0.00003217,-
 0.00001539,0.00004962,0.00106031,0.00013543,-0.00009537,-0.00043980,0.
 00033079,-0.00043454,-0.00073661,0.00026379,-0.00047746,0.00001931,-0.
 00000522,0.00003001,0.00021700,0.00010129,0.00006501,-0.01116697,-0.00
 259871,-0.02373702,-0.00109982,-0.00066809,0.00029153,0.00249856,-0.00
 080806,0.00099775,0.00011123,0.00239543,0.00026200,0.00102348,-0.01286
 771,-0.17714406,0.00001355,-0.00035551,0.00036381,0.00001720,0.0005503
 7,0.00011822,-0.00005950,-0.00002719,-0.00016527,-0.00025384,0.0001358
 9,0.00004556,0.00074489,0.00021703,-0.00045470,-0.00006384,-0.00003435
 ,0.00000516,-0.00018985,0.00027504,0.00011945,-0.00002335,-0.00001989,
 0.00001470,0.00009110,0.00018087,0.00093338,0.00006151,0.00017904,-0.0
 0024432,-0.00003269,-0.00003150,-0.00003546,0.00001528,-0.00004843,-0.
 00004677,0.00872483,-0.00180305,-0.02940629,-0.00163128,-0.00141847,0.
 00147153,-0.00167600,-0.00110593,0.00126595,0.00101447,0.00088823,-0.0
 0006840,0.00466297,-0.05244693,0.47505381,0.00030812,0.00013699,0.0000
 5719,0.00002684,-0.00003193,0.00006851,0.00024161,0.00040770,0.0000280
 7,0.00002051,-0.00001793,-0.00000098,-0.00003907,-0.00015831,-0.000028
 53,0.00012929,0.00015252,-0.00002025,0.00000141,-0.00000977,-0.0000108
 8,0.00001560,0.00000176,0.00001395,-0.00011832,-0.00004732,0.00001603,
 0.00008319,0.00006300,0.00007015,-0.00000766,-0.00002316,0.00000907,0.
 00000662,-0.00000609,-0.00000043,-0.00000500,-0.00000596,-0.00000495,0
 .00113043,-0.00010937,0.00049277,0.00016756,-0.00013286,-0.00008755,0.
 00021408,-0.00030676,0.00012615,-0.00006831,-0.00014590,0.00000150,0.0
 0193519,-0.00113450,0.00183783,0.00021501,0.00023045,-0.00015369,-0.00
 040875,0.00071095,0.00031633,-0.00012403,-0.00006750,-0.00000579,0.000
 22596,-0.00002992,-0.00016750,-0.00001842,-0.00000232,0.00002337,0.000
 00715,0.00000718,-0.00000118,0.00000469,-0.00000625,-0.00000402,0.0000
 0122,-0.00000198,-0.00000235,0.00000557,0.00000301,-0.00003262,-0.0000
 0342,-0.00000324,0.00001299,0.00001240,-0.00000839,-0.00000517,-0.0000
 1547,-0.00000872,-0.00000268,0.00086783,-0.00004199,0.00086986,-0.0001
 5983,-0.00001840,-0.00000408,0.00036238,0.00019598,0.00009102,0.000267
 21,-0.00004410,-0.00005059,-0.27340285,0.05410616,-0.10120080,0.287951
 67,-0.00107308,-0.00072247,-0.00137895,-0.00005290,-0.00008908,0.00003
 328,0.00012754,0.00034775,0.00021639,0.00007091,-0.00003525,-0.0000016
 8,0.00006960,-0.00006455,-0.00003382,-0.00006330,0.00006238,-0.0000012
 8,0.00000462,-0.00000065,-0.00000749,0.00000433,-0.00000202,-0.0000033
 8,0.00005032,-0.00001933,0.00000016,0.00014716,0.00000250,0.00005951,-
 0.00006023,0.00001526,-0.00003896,0.00000418,-0.00000306,0.00000356,0.
 00001499,0.00000421,0.00000089,0.00093283,-0.00000902,-0.00174352,-0.0
 0061278,0.00044120,-0.00017888,-0.00036275,0.00037882,-0.00001539,0.00
 007851,0.00004380,0.00003930,-0.01070579,0.00051813,-0.00615262,0.0003
 6768,-0.00002492,-0.00039097,0.00078310,-0.00090768,-0.00051108,-0.000
 00933,0.00004562,0.00018145,-0.00018104,-0.00022318,0.00000119,0.00002
 449,-0.00001294,-0.00002471,-0.00000126,-0.00002029,-0.00000282,0.0000
 0081,0.00001399,0.00000118,-0.00000081,-0.00000282,-0.00000049,0.00000
 455,0.00001494,0.00003141,0.00000838,0.00001862,0.00000163,0.00000834,
 -0.00002691,0.00000911,-0.00001226,-0.00001433,-0.00000461,0.00012113,
 -0.00025827,0.00058345,0.00019046,-0.00001390,-0.00008595,-0.00002817,
 0.00020483,0.00037687,-0.00011717,-0.00012842,-0.00004704,0.05673961,-
 0.06312824,0.02601066,-0.05963298,0.06407425,-0.00027193,0.00039167,-0
 .00022534,-0.00000691,-0.00005580,-0.00002829,0.00024809,0.00051390,-0
 .00025539,0.00002752,-0.00004994,-0.00000415,-0.00011598,-0.00025651,0
 .00013239,0.00004286,0.00011268,0.00001398,0.00000299,-0.00000577,0.00
 000189,0.00000477,0.00000685,-0.00002579,-0.00006936,-0.00003769,0.000
 00528,-0.00009684,-0.00003984,0.00009608,0.00000230,-0.00003750,0.0000
 0990,-0.00000119,-0.00000438,0.00000034,-0.00000441,-0.00000423,-0.000
 00369,0.00195357,-0.00109436,-0.00575285,-0.00184268,0.00005326,-0.000
 67231,0.00019299,0.00000806,0.00002735,-0.00005245,-0.00025410,-0.0000
 9667,-0.03121557,0.00537582,-0.01863586,-0.00021134,0.00022029,-0.0004
 5946,0.00025241,-0.00066675,0.00009218,0.00002460,0.00011192,0.0001270
 9,-0.00001414,-0.00024075,-0.00001873,-0.00004251,-0.00002047,0.000009
 66,0.00000691,-0.00001687,-0.00000118,0.00001887,-0.00000793,-0.000006
 67,0.00000261,-0.00000394,-0.00000484,-0.00000553,0.00002033,-0.000035
 57,0.00000349,0.00000012,0.00000165,-0.00000520,-0.00000902,0.00001877
 ,0.00000686,-0.00000198,0.00000644,-0.00228407,-0.00025551,0.00107728,
 0.00019713,0.00002379,-0.00006296,0.00084275,0.00026390,-0.00042091,0.
 00020034,-0.00022496,0.00030094,-0.09113062,0.02263498,-0.09170040,0.1
 0781834,-0.02209570,0.10683106,0.00087560,-0.00042254,0.00024586,0.000
 02304,0.00003376,0.00001773,-0.00027285,-0.00033931,0.00007611,-0.0000
 0917,-0.00000116,0.00000059,0.00013263,0.00010404,0.00001150,-0.000062
 67,-0.00009630,0.00001826,0.00000310,0.00000544,0.00000332,-0.00002218
 ,0.00000058,-0.00002974,0.00006736,0.00002870,-0.00000786,-0.00020339,
 0.00031430,-0.00006853,-0.00003611,-0.00001178,-0.00001314,-0.00000064
 ,0.00000008,0.00000246,0.00000828,0.00000921,0.00000513,0.00085482,-0.
 00203993,-0.00053738,0.00000230,0.00007739,0.00009870,-0.00024557,0.00
 006745,-0.00046277,-0.00010707,0.00014346,-0.00009063,-0.00075059,0.00
 063074,0.00054694,0.00001002,0.00012467,-0.00014056,0.00002761,-0.0001
 9441,0.00010720,-0.00002733,0.00000139,0.00006741,0.00005182,-0.000055
 06,-0.00004241,0.00003423,0.00001998,-0.00003591,0.00000112,-0.0000052
 8,-0.00000103,-0.00000633,0.00001750,0.00001281,-0.00000022,-0.0000024
 0,0.00000483,-0.00001140,0.00002496,0.00006129,0.00001042,0.00001013,-
 0.00001892,-0.00000344,-0.00000835,0.00000350,0.00000545,0.00000364,-0
 .00000268,0.00010757,0.00110182,0.00019719,0.00003885,-0.00019973,0.00
 038990,-0.00009193,0.00014997,-0.00011399,-0.00007407,-0.00022568,-0.0
 0008946,-0.05883318,0.04541849,0.00229035,-0.00302365,0.02773933,0.002
 06325,0.05603822,0.00016161,0.00100064,-0.00132645,0.00007764,0.000270
 47,-0.00012222,0.00014769,-0.00020496,-0.00000452,-0.00014616,0.000042
 94,0.00001728,-0.00014225,-0.00006277,0.00004721,0.00027425,-0.0000082
 3,-0.00001993,-0.00001750,-0.00000537,0.00001535,-0.00002832,0.0000025
 5,-0.00000730,-0.00026009,0.00000564,0.00002883,-0.00008477,0.00011993
 ,0.00001693,0.00016176,0.00000185,0.00009427,-0.00000460,0.00000553,-0
 .00000557,-0.00003595,-0.00002122,-0.00000749,0.00056175,0.00066166,0.
 00107576,-0.00019051,0.00032667,0.00011250,-0.00091622,-0.00014895,-0.
 00079326,0.00009516,-0.00020632,0.00021797,0.00162818,-0.01037444,-0.0
 0566669,-0.00006069,0.00004774,0.00000284,-0.00005731,0.00004658,-0.00
 000587,0.00001834,0.00000272,0.00000997,0.00001822,0.00000328,0.000020
 29,-0.00014580,0.00001463,0.00009477,0.00000854,0.00001007,0.00000129,
 0.00002461,-0.00005118,-0.00002323,0.00000350,0.00001069,-0.00000204,-
 0.00004117,-0.00011118,-0.00017931,-0.00001021,-0.00003819,0.00005708,
 0.00000329,0.00001862,-0.00000016,0.00000607,0.00001931,0.00000646,-0.
 00062311,0.00136994,0.00091489,0.00043738,0.00048249,-0.00069336,0.000
 06826,-0.00014651,-0.00005634,-0.00003300,0.00034562,0.00006593,0.0452
 0301,-0.30693118,-0.01263860,-0.00020272,-0.00444759,0.00016480,-0.049
 79921,0.33076383,0.00001233,0.00139142,-0.00318439,0.00006203,0.000113
 32,-0.00003334,-0.00028933,-0.00008960,-0.00003219,-0.00008684,0.00007
 743,0.00000375,-0.00009063,0.00001636,0.00002657,0.00007833,-0.0000474
 7,0.00000128,-0.00000772,-0.00000182,0.00000035,-0.00002046,-0.0000036
 1,0.00001608,-0.00009649,0.00001473,0.00000643,0.00007785,0.00025061,0
 .00013350,0.00025265,-0.00000904,0.00013716,-0.00001485,0.00000412,-0.
 00001277,-0.00005501,-0.00001349,-0.00001365,0.00263281,-0.00213982,0.
 00079485,0.00012191,0.00020686,0.00022691,-0.00067099,0.00038809,0.000
 47306,-0.00002507,-0.00081740,0.00080835,0.00600146,-0.03829531,-0.014
 52400,-0.00001518,0.00017586,-0.00013478,-0.00003161,-0.00013444,-0.00
 000291,-0.00000526,0.00000739,0.00006459,0.00008229,-0.00004143,-0.000
 00409,-0.00018803,0.00004252,0.00013974,0.00001587,-0.00000220,-0.0000
 0162,0.00003846,-0.00005676,-0.00003752,0.00001028,0.00001300,-0.00002
 088,-0.00005467,-0.00027944,-0.00024370,-0.00001898,-0.00005682,0.0001
 3020,0.00001300,-0.00000167,0.00000165,-0.00001280,-0.00000842,0.00000
 586,-0.00085405,-0.00289933,0.00155751,0.00008737,0.00056020,0.0002007
 6,0.00006674,0.00025249,-0.00011197,-0.00020619,0.00037123,0.00022624,
 0.00085139,-0.00520894,-0.05024090,-0.00087764,0.01271021,0.00173328,-
 0.00249291,0.01935718,0.05990264,0.00029005,-0.00007126,0.00030814,0.0
 0003339,0.00010784,-0.00007785,0.00026292,-0.00033620,-0.00005721,-0.0
 0007131,0.00001734,0.00001289,0.00005688,0.00026463,0.00014015,-0.0001
 3601,-0.00027093,-0.00001948,-0.00000335,0.00001175,0.00001694,-0.0000
 0684,0.00000811,-0.00001342,0.00012875,0.00007447,-0.00000911,-0.00001
 097,-0.00000490,-0.00020735,0.00002444,-0.00000037,0.00002172,-0.00001
 155,0.00000823,0.00000096,-0.00000034,0.00000226,0.00000508,0.00046417
 ,0.00054210,-0.00060911,0.00005769,0.00002275,0.00012169,0.00007236,0.
 00006386,-0.00002338,0.00000083,0.00010483,-0.00005048,0.00094428,0.00
 164332,-0.00176698,-0.00006681,0.00001467,0.00004169,0.00005152,-0.000
 10191,0.00006084,0.00001516,0.00003952,0.00001679,0.00010158,-0.000033
 68,-0.00002985,-0.00000788,0.00001120,-0.00001772,-0.00000243,-0.00000
 137,0.00000133,-0.00000077,-0.00000163,0.00000703,-0.00000090,0.000002
 72,0.00000480,-0.00002985,-0.00000605,0.00001536,0.00000543,-0.0000060
 6,-0.00001277,-0.00001548,0.00001230,0.00000685,0.00000964,0.00004885,
 0.00001471,0.00038661,0.00046447,-0.00024243,-0.00004226,-0.00011691,0
 .00000880,0.00046299,0.00003910,-0.00009794,0.00040728,-0.00023712,0.0
 0004694,-0.19722069,-0.10314966,0.09522761,-0.01687223,-0.01447800,0.0
 1348120,0.00551161,0.00405866,-0.00416588,0.20528288,0.00139720,-0.000
 78422,-0.00109165,-0.00007046,-0.00009887,0.00002621,-0.00002035,0.000
 34740,-0.00040550,0.00005786,-0.00004872,-0.00000269,0.00004396,-0.000
 09177,-0.00004365,-0.00001794,0.00008751,-0.00001689,0.00000588,-0.000
 00404,0.00000100,0.00003307,-0.00000809,0.00003755,0.00002944,-0.00002
 953,-0.00000672,-0.00019255,0.00006594,-0.00101582,-0.00005561,-0.0000
 0372,-0.00002449,0.00000710,-0.00000344,0.00000410,0.00000821,0.000001
 90,0.00000019,-0.00005883,0.00030841,0.00042238,0.00015274,-0.00013590
 ,-0.00004768,-0.00012240,-0.00037779,0.00004303,-0.00003597,0.00014829
 ,-0.00000309,0.00996777,0.00518917,-0.00684629,0.00000271,0.00000696,-
 0.00005161,-0.00006686,0.00002672,-0.00000818,-0.00000875,-0.00000979,
 0.00001104,-0.00003436,0.00001026,-0.00000110,0.00003933,0.00001525,-0
 .00001256,0.00000040,-0.00000233,-0.00000172,-0.00001074,0.00001524,0.
 00000360,-0.00000285,0.00000357,0.00000270,0.00003844,0.00003348,0.000
 04834,-0.00000362,0.00001930,0.00000840,0.00000873,-0.00001431,0.00000
 199,-0.00004888,0.00000564,-0.00000317,-0.00033585,-0.00000741,-0.0013
 0485,0.00009117,0.00043177,-0.00039457,-0.00009137,-0.00018468,-0.0000
 5775,0.00013144,0.00060038,-0.00037106,-0.10581853,-0.12428964,0.06878
 296,0.00623481,0.00393442,-0.00448210,-0.02258592,-0.01282199,0.014137
 99,0.11129369,0.12765742,0.00045587,0.00063094,-0.00036100,-0.00004639
 ,-0.00006266,-0.00003996,-0.00054709,-0.00036882,-0.00037526,0.0000163
 9,0.00005251,-0.00001940,-0.00002921,0.00009509,0.00007938,-0.00024494
 ,-0.00016894,0.00000349,0.00000143,0.00001137,0.00000656,0.00000877,-0
 .00000495,0.00001532,0.00018811,0.00004783,-0.00002282,0.00006141,-0.0
 0063331,-0.00018295,0.00009069,-0.00003375,0.00005409,-0.00001879,0.00
 000415,-0.00000440,-0.00002275,0.00000419,-0.00000647,0.00149941,0.000
 49663,0.00080532,0.00012049,0.00001179,0.00019893,-0.00020113,0.000133
 05,-0.00010136,-0.00002602,-0.00033728,-0.00004455,0.02576268,0.016588
 02,-0.02095063,-0.00003184,-0.00001736,-0.00003952,-0.00001516,-0.0000
 4706,-0.00002337,-0.00000584,0.00000376,0.00001289,0.00000078,0.000006
 27,-0.00002801,-0.00004830,-0.00003502,0.00001764,0.00000060,-0.000000
 50,0.00000093,0.00001776,-0.00001462,-0.00001489,0.00000576,-0.0000002
 2,-0.00001168,-0.00001056,0.00001574,-0.00004689,-0.00000268,-0.000006
 49,0.00000585,-0.00000271,0.00000467,0.00000644,0.00001482,0.00000312,
 0.00001352,-0.00168198,-0.00320819,-0.00560205,-0.00014812,0.00002474,
 0.00005382,0.00006963,-0.00014311,0.00018414,0.00134450,0.00110176,-0.
 00086035,0.08663734,0.06144319,-0.10768748,-0.00917046,-0.00758297,0.0
 0797158,-0.00201780,-0.00073973,0.00199601,-0.10208139,-0.06734809,0.1
 2494740,-0.01285197,0.00001087,0.00815868,-0.00174466,-0.00036094,-0.0
 0005376,-0.00174450,0.00036216,-0.00005439,0.00055797,-0.00071338,-0.0
 0006372,0.00055840,0.00071287,-0.00006465,-0.00068288,0.00000034,0.000
 01928,-0.00007765,0.00003288,0.00003952,-0.00007768,-0.00003277,0.0000
 3958,0.00073410,-0.00000034,-0.00007535,-0.00405919,0.00000291,0.00107
 412,-0.00060050,-0.00001921,-0.00029369,0.00002596,-0.00001147,0.00002
 511,0.00013803,0.00002708,0.00001405,-0.00060050,0.00001927,-0.0002935
 5,0.00002597,0.00001148,0.00002510,0.00013795,-0.00002715,0.00001408,0
 .00065687,-0.00119519,-0.00047544,0.00065647,0.00119347,-0.00048094,-0
 .07932838,-0.00000569,-0.04323535,0.01902444,0.00000076,0.01465011,-0.
 01104568,-0.00162834,-0.01830970,-0.01105235,0.00161081,-0.01832541,-0
 .00037448,-0.00084143,-0.00120936,-0.00031792,0.00006249,-0.00015615,-
 0.00022134,0.00016990,0.00005199,0.00008646,-0.00003123,0.00010446,0.0
 0019765,0.00015333,0.00047102,-0.00002212,0.00015817,-0.00012439,0.000
 06565,0.00010084,-0.00002325,-0.00007087,-0.00003786,0.00005678,-0.000
 37481,0.00083915,-0.00121026,-0.00022155,-0.00016958,0.00005223,-0.000
 31797,-0.00006376,-0.00015574,0.00008686,0.00003113,0.00010467,0.00019
 780,-0.00015273,0.00047104,0.00006547,-0.00010100,-0.00002313,-0.00002
 229,-0.00015832,-0.00012417,-0.00007078,0.00003787,0.00005675,0.102664
 05,0.00002896,-0.00426175,-0.00000561,0.00023215,-0.00011907,0.0002842
 7,-0.00023244,-0.00012015,-0.00028400,0.00010259,-0.00001980,-0.000022
 26,-0.00010319,-0.00001968,0.00002221,0.00000062,0.00018852,-0.0000001
 5,0.00000990,-0.00000199,-0.00003712,-0.00001004,-0.00000192,0.0000370
 9,-0.00000052,-0.00005492,0.00000009,0.00000009,0.00231790,0.00000030,
 -0.00014251,0.00000804,-0.00013257,0.00000565,0.00000955,-0.00000828,0
 .00003708,0.00000483,0.00000801,0.00014301,0.00000814,0.00013306,-0.00
 000560,0.00000953,0.00000826,-0.00003722,0.00000495,-0.00000809,-0.001
 01480,-0.00006843,0.00051721,0.00101592,-0.00007218,-0.00051575,-0.000
 02922,-0.02381828,-0.00008600,-0.00001540,-0.00560662,-0.00000661,0.01
 041334,-0.00016877,0.01877888,-0.01040890,-0.00018617,-0.01876964,-0.0
 0094503,-0.00045201,-0.00049110,0.00026332,-0.00066087,0.00015353,0.00
 027092,0.00010289,0.00003581,-0.00006316,-0.00066402,-0.00009304,-0.00
 002946,-0.00002090,0.00008632,0.00003988,0.00000652,-0.00001586,0.0000
 5204,0.00003395,0.00003618,0.00004050,0.00000707,-0.00007415,0.0009455
 5,-0.00045133,0.00049346,-0.00027124,0.00010320,-0.00003592,-0.0002646
 7,-0.00066059,-0.00015268,0.00006240,-0.00066313,0.00009428,0.00002955
 ,-0.00002120,-0.00008693,-0.00005213,0.00003417,-0.00003630,-0.0000399
 6,0.00000669,0.00001601,-0.00004059,0.00000719,0.00007422,0.00001261,0
 .03526064,0.04096551,-0.00001602,-0.01137542,-0.00126442,0.00057836,0.
 00011661,-0.00126449,-0.00057694,0.00011778,-0.00008906,-0.00051828,-0
 .00012365,-0.00008857,0.00051816,-0.00012437,0.00034879,-0.00000022,0.
 00000450,-0.00015504,0.00001139,-0.00000397,-0.00015503,-0.00001128,-0
 .00000400,-0.00024066,0.00000013,0.00002680,-0.00375404,0.00000200,0.0
 0356790,-0.00015281,-0.00007709,0.00012843,0.00002300,0.00000833,0.000
 00097,-0.00000288,-0.00006054,-0.00004330,-0.00015290,0.00007740,0.000
 12816,0.00002300,-0.00000837,0.00000095,-0.00000281,0.00006049,-0.0000
 4339,0.00000982,-0.00000388,-0.00035625,0.00000761,0.00000565,-0.00035
 782,-0.08034329,-0.00007236,-0.18775454,-0.01026734,0.00000197,-0.0080
 7214,-0.00123384,-0.00043786,-0.00239372,-0.00122158,0.00043531,-0.002
 37190,0.00019695,0.00023784,-0.00069478,-0.00021799,-0.00006154,-0.000
 10582,-0.00012085,0.00000116,-0.00004296,-0.00003665,-0.00000700,0.000
 03054,0.00018250,0.00017533,-0.00008584,-0.00005861,0.00002961,0.00001
 191,-0.00002105,-0.00004211,-0.00004602,-0.00007925,-0.00000969,0.0000
 4986,0.00019290,-0.00023974,-0.00069454,-0.00012058,-0.00000126,-0.000
 04282,-0.00021738,0.00006211,-0.00010585,-0.00003653,0.00000931,0.0000
 3080,0.00018252,-0.00017553,-0.00008559,-0.00002099,0.00004208,-0.0000
 4606,-0.00005861,-0.00002954,0.00001194,-0.00007917,0.00000976,0.00004
 975,0.05932385,0.00008287,0.21069783\\-0.00000442,0.00000111,-0.000024
 30,-0.00000074,-0.00000072,0.00000394,0.00000361,-0.00000353,0.0000040
 5,-0.00000154,-0.00000009,0.00000832,-0.00000396,-0.00000032,0.0000083
 1,0.00000226,0.00000153,0.00001224,-0.00000068,-0.00000007,0.00001015,
 -0.00000014,0.00000018,0.00001001,-0.00000205,-0.00000052,0.00001349,-
 0.00000351,0.00000057,0.00000665,-0.00000139,0.00000033,0.00000299,-0.
 00000502,0.00000027,0.00000192,-0.00000074,0.00000010,0.00000330,-0.00
 000371,0.00000146,0.00000227,-0.00000431,0.00000028,0.00000245,-0.0000
 0041,-0.00000016,0.00000372,-0.00000012,0.00000119,-0.00000018,-0.0000
 0157,-0.00000228,0.00000448,0.00000107,-0.00000685,-0.00001478,0.00000
 732,0.00000087,0.00000428,0.00000280,0.00000085,-0.00000817,0.00000016
 ,0.00000024,-0.00001056,-0.00000199,-0.00000004,-0.00000247,-0.0000002
 7,0.00000037,-0.00000654,-0.00000215,-0.00000005,-0.00000328,-0.000004
 91,0.00000024,-0.00000403,0.00000310,-0.00000146,-0.00000181,0.0000039
 0,-0.00000023,-0.00000063,0.00000445,0.00000071,-0.00000437,0.00000515
 ,0.00000028,0.00000067,-0.00000021,-0.00000025,-0.00000447,-0.00000203
 ,-0.00000033,-0.00000317,-0.00000063,0.00000049,-0.00000657,-0.0000049
 3,-0.00000033,-0.00000402,0.00000337,0.00000261,-0.00000465,0.00000454
 ,0.00000007,-0.00000344,0.00000415,-0.00000004,-0.00000057,0.00000549,
 -0.00000049,0.00000072,0.00000005,0.00000400,0.00000402\\\@
 The archive entry for this job was punched.


 ABOVE ALL I AM AN OPTIMIST FOR NUMBER THEORY,
 AND I HOLD THE HOPE THAT WE MAY NOT BE FAR FROM
 A TIME WHEN IRREFUTABLE ARITHMETIC WILL CELEBRATE
 ITS TRIUMPHS IN PHYSICS AND CHEMISTRY.
   -- HERMANN MINKOWSKI, 1905
 Job cpu time:       3 days 23 hours  8 minutes 23.7 seconds.
 Elapsed time:       0 days 12 hours 26 minutes 14.4 seconds.
 File lengths (MBytes):  RWF=   1938 Int=      0 D2E=      0 Chk=     70 Scr=      1
 Normal termination of Gaussian 16 at Wed Mar  6 23:03:46 2024.
