 Entering Gaussian System, Link 0=/cm/shared/apps//g16/g16
 Input=ZPtMeMe.gjf
 Output=ZPtMeMe.log
 Initial command:
 /cm/shared/apps//g16/l1.exe "/local/mvanvleet/pbs.15263.josephine/Gau-3006817.inp" -scrdir="/local/mvanvleet/pbs.15263.josephine/"
 Entering Link 1 = /cm/shared/apps//g16/l1.exe PID=   3006818.
  
 Copyright (c) 1988-2019, Gaussian, Inc.  All Rights Reserved.
  
 This is part of the Gaussian(R) 16 program.  It is based on
 the Gaussian(R) 09 system (copyright 2009, Gaussian, Inc.),
 the Gaussian(R) 03 system (copyright 2003, Gaussian, Inc.),
 the Gaussian(R) 98 system (copyright 1998, Gaussian, Inc.),
 the Gaussian(R) 94 system (copyright 1995, Gaussian, Inc.),
 the Gaussian 92(TM) system (copyright 1992, Gaussian, Inc.),
 the Gaussian 90(TM) system (copyright 1990, Gaussian, Inc.),
 the Gaussian 88(TM) system (copyright 1988, Gaussian, Inc.),
 the Gaussian 86(TM) system (copyright 1986, Carnegie Mellon
 University), and the Gaussian 82(TM) system (copyright 1983,
 Carnegie Mellon University). Gaussian is a federally registered
 trademark of Gaussian, Inc.
  
 This software contains proprietary and confidential information,
 including trade secrets, belonging to Gaussian, Inc.
  
 This software is provided under written license and may be
 used, copied, transmitted, or stored only in accord with that
 written license.
  
 The following legend is applicable only to US Government
 contracts under FAR:
  
                    RESTRICTED RIGHTS LEGEND
  
 Use, reproduction and disclosure by the US Government is
 subject to restrictions as set forth in subparagraphs (a)
 and (c) of the Commercial Computer Software - Restricted
 Rights clause in FAR 52.227-19.
  
 Gaussian, Inc.
 340 Quinnipiac St., Bldg. 40, Wallingford CT 06492
  
  
 ---------------------------------------------------------------
 Warning -- This program may not be used in any manner that
 competes with the business of Gaussian, Inc. or will provide
 assistance to any competitor of Gaussian, Inc.  The licensee
 of this program is prohibited from giving any competitor of
 Gaussian, Inc. access to this program.  By using this program,
 the user acknowledges that Gaussian, Inc. is engaged in the
 business of creating and licensing software in the field of
 computational chemistry and represents and warrants to the
 licensee that it is not a competitor of Gaussian, Inc. and that
 it will not use this program in any manner prohibited above.
 ---------------------------------------------------------------
  

 Cite this work as:
 Gaussian 16, Revision C.01,
 M. J. Frisch, G. W. Trucks, H. B. Schlegel, G. E. Scuseria, 
 M. A. Robb, J. R. Cheeseman, G. Scalmani, V. Barone, 
 G. A. Petersson, H. Nakatsuji, X. Li, M. Caricato, A. V. Marenich, 
 J. Bloino, B. G. Janesko, R. Gomperts, B. Mennucci, H. P. Hratchian, 
 J. V. Ortiz, A. F. Izmaylov, J. L. Sonnenberg, D. Williams-Young, 
 F. Ding, F. Lipparini, F. Egidi, J. Goings, B. Peng, A. Petrone, 
 T. Henderson, D. Ranasinghe, V. G. Zakrzewski, J. Gao, N. Rega, 
 G. Zheng, W. Liang, M. Hada, M. Ehara, K. Toyota, R. Fukuda, 
 J. Hasegawa, M. Ishida, T. Nakajima, Y. Honda, O. Kitao, H. Nakai, 
 T. Vreven, K. Throssell, J. A. Montgomery, Jr., J. E. Peralta, 
 F. Ogliaro, M. J. Bearpark, J. J. Heyd, E. N. Brothers, K. N. Kudin, 
 V. N. Staroverov, T. A. Keith, R. Kobayashi, J. Normand, 
 K. Raghavachari, A. P. Rendell, J. C. Burant, S. S. Iyengar, 
 J. Tomasi, M. Cossi, J. M. Millam, M. Klene, C. Adamo, R. Cammi, 
 J. W. Ochterski, R. L. Martin, K. Morokuma, O. Farkas, 
 J. B. Foresman, and D. J. Fox, Gaussian, Inc., Wallingford CT, 2019.
 
 ******************************************
 Gaussian 16:  ES64L-G16RevC.01  3-Jul-2019
                24-May-2024 
 ******************************************
 %nprocshared=48
 Will use up to   48 processors via shared memory.
 %chk=ZPtMeMe.chk
 %mem=16GB
 ----------------------------------------------------------
 # wb97xd def2TZVPP SCRF=(solvent=dichloromethane) opt freq
 ----------------------------------------------------------
 1/18=20,19=15,26=3,38=1/1,3;
 2/9=110,12=2,17=6,18=5,40=1/2;
 3/5=44,7=202,11=2,25=1,30=1,70=2201,71=1,72=9,74=-58/1,2,3;
 4//1;
 5/5=2,38=5,53=9/2;
 6/7=2,8=2,9=2,10=2,28=1/1;
 7//1,2,3,16;
 1/18=20,19=15,26=3/3(2);
 2/9=110/2;
 99//99;
 2/9=110/2;
 3/5=44,7=202,11=2,25=1,30=1,70=2205,71=1,72=9,74=-58/1,2,3;
 4/5=5,16=3,69=1/1;
 5/5=2,38=5,53=9/2;
 7//1,2,3,16;
 1/18=20,19=15,26=3/3(-5);
 2/9=110/2;
 6/7=2,8=2,9=2,10=2,19=2,28=1/1;
 99/9=1/99;
 -------
 ZPtMeMe
 -------
 Symbolic Z-matrix:
 Charge =  1 Multiplicity = 1
 Pt                    1.11749   0.0582    0.03272 
 C                    -1.40176  -1.34228  -0.30211 
 C                    -1.62162   0.99004  -0.24827 
 C                    -2.75145  -1.51164  -0.17044 
 C                    -2.98559   0.91328  -0.11464 
 C                    -3.55994  -0.36401  -0.05373 
 H                    -3.19317  -2.49351  -0.1114 
 H                    -3.56486   1.81688  -0.0462 
 O                    -4.84645  -0.62208   0.1294 
 N                    -0.88262  -0.11328  -0.32593 
 C                    -0.35861  -2.41271  -0.4896 
 H                    -0.16334  -2.50615  -1.55708 
 H                    -0.69024  -3.38039  -0.11993 
 C                    -0.8052    2.24703  -0.40604 
 H                    -0.71758   2.45503  -1.47168 
 H                    -1.27932   3.1063    0.06274 
 N                     0.95435  -2.04927   0.16655 
 N                     0.59501   2.10612   0.1537 
 C                     3.11746   0.21049   0.53499 
 H                     3.22364   0.05385   1.60882 
 H                     3.71191  -0.53321   0.00607 
 H                     3.51734   1.19153   0.28552 
 C                     2.02627  -2.87249  -0.4379 
 H                     2.96031  -2.66941   0.07431 
 H                     1.7759   -3.92648  -0.32821 
 H                     2.12841  -2.64157  -1.49271 
 C                     0.87428  -2.36853   1.62255 
 H                     0.70153  -3.4369    1.7423 
 H                     1.81094  -2.09605   2.09815 
 H                     0.0509   -1.82663   2.08337 
 C                     1.46665   3.10389  -0.50792 
 H                     1.05254   4.09826  -0.34624 
 H                     2.45854   3.05745  -0.0714 
 H                     1.52099   2.9048   -1.57176 
 C                     0.55835   2.39586   1.61233 
 H                     1.56308   2.32474   2.01836 
 H                     0.1693    3.39875   1.77911 
 H                    -0.08668   1.67402   2.11344 
 C                     1.69833   0.18266  -1.88846 
 H                     1.86179  -0.81429  -2.28718 
 H                     0.89535   0.65395  -2.4512 
 H                     2.6101    0.76236  -1.97168 
 

 GradGradGradGradGradGradGradGradGradGradGradGradGradGradGradGradGradGrad
 Berny optimization.
 Initialization pass.
                           ----------------------------
                           !    Initial Parameters    !
                           ! (Angstroms and Degrees)  !
 --------------------------                            --------------------------
 ! Name  Definition              Value          Derivative Info.                !
 --------------------------------------------------------------------------------
 ! R1    R(1,10)                 2.0392         estimate D2E/DX2                !
 ! R2    R(1,17)                 2.118          estimate D2E/DX2                !
 ! R3    R(1,18)                 2.117          estimate D2E/DX2                !
 ! R4    R(1,19)                 2.0677         estimate D2E/DX2                !
 ! R5    R(1,39)                 2.0109         estimate D2E/DX2                !
 ! R6    R(2,4)                  1.3666         estimate D2E/DX2                !
 ! R7    R(2,10)                 1.3344         estimate D2E/DX2                !
 ! R8    R(2,11)                 1.5064         estimate D2E/DX2                !
 ! R9    R(3,5)                  1.3726         estimate D2E/DX2                !
 ! R10   R(3,10)                 1.3302         estimate D2E/DX2                !
 ! R11   R(3,14)                 1.5071         estimate D2E/DX2                !
 ! R12   R(4,6)                  1.4087         estimate D2E/DX2                !
 ! R13   R(4,7)                  1.0783         estimate D2E/DX2                !
 ! R14   R(5,6)                  1.4018         estimate D2E/DX2                !
 ! R15   R(5,8)                  1.0755         estimate D2E/DX2                !
 ! R16   R(6,9)                  1.3249         estimate D2E/DX2                !
 ! R17   R(11,12)                1.0892         estimate D2E/DX2                !
 ! R18   R(11,13)                1.0877         estimate D2E/DX2                !
 ! R19   R(11,17)                1.5121         estimate D2E/DX2                !
 ! R20   R(14,15)                1.0893         estimate D2E/DX2                !
 ! R21   R(14,16)                1.0876         estimate D2E/DX2                !
 ! R22   R(14,18)                1.5145         estimate D2E/DX2                !
 ! R23   R(17,23)                1.4806         estimate D2E/DX2                !
 ! R24   R(17,27)                1.4927         estimate D2E/DX2                !
 ! R25   R(18,31)                1.4809         estimate D2E/DX2                !
 ! R26   R(18,35)                1.4876         estimate D2E/DX2                !
 ! R27   R(19,20)                1.0904         estimate D2E/DX2                !
 ! R28   R(19,21)                1.0891         estimate D2E/DX2                !
 ! R29   R(19,22)                1.0884         estimate D2E/DX2                !
 ! R30   R(23,24)                1.0844         estimate D2E/DX2                !
 ! R31   R(23,25)                1.0889         estimate D2E/DX2                !
 ! R32   R(23,26)                1.0846         estimate D2E/DX2                !
 ! R33   R(27,28)                1.0889         estimate D2E/DX2                !
 ! R34   R(27,29)                1.0853         estimate D2E/DX2                !
 ! R35   R(27,30)                1.0881         estimate D2E/DX2                !
 ! R36   R(31,32)                1.0892         estimate D2E/DX2                !
 ! R37   R(31,33)                1.0847         estimate D2E/DX2                !
 ! R38   R(31,34)                1.0837         estimate D2E/DX2                !
 ! R39   R(35,36)                1.086          estimate D2E/DX2                !
 ! R40   R(35,37)                1.0886         estimate D2E/DX2                !
 ! R41   R(35,38)                1.0901         estimate D2E/DX2                !
 ! R42   R(39,40)                1.0861         estimate D2E/DX2                !
 ! R43   R(39,41)                1.0879         estimate D2E/DX2                !
 ! R44   R(39,42)                1.0837         estimate D2E/DX2                !
 ! A1    A(10,1,17)             81.4828         estimate D2E/DX2                !
 ! A2    A(10,1,18)             81.3342         estimate D2E/DX2                !
 ! A3    A(10,1,39)             96.9198         estimate D2E/DX2                !
 ! A4    A(17,1,18)            160.0423         estimate D2E/DX2                !
 ! A5    A(17,1,19)             97.6106         estimate D2E/DX2                !
 ! A6    A(17,1,39)             98.2909         estimate D2E/DX2                !
 ! A7    A(18,1,19)             98.835          estimate D2E/DX2                !
 ! A8    A(18,1,39)             93.785          estimate D2E/DX2                !
 ! A9    A(19,1,39)             87.0268         estimate D2E/DX2                !
 ! A10   A(4,2,10)             120.0061         estimate D2E/DX2                !
 ! A11   A(4,2,11)             127.4335         estimate D2E/DX2                !
 ! A12   A(10,2,11)            112.5107         estimate D2E/DX2                !
 ! A13   A(5,3,10)             120.753          estimate D2E/DX2                !
 ! A14   A(5,3,14)             126.5204         estimate D2E/DX2                !
 ! A15   A(10,3,14)            112.6259         estimate D2E/DX2                !
 ! A16   A(2,4,6)              118.2843         estimate D2E/DX2                !
 ! A17   A(2,4,7)              121.5134         estimate D2E/DX2                !
 ! A18   A(6,4,7)              120.1458         estimate D2E/DX2                !
 ! A19   A(3,5,6)              117.5366         estimate D2E/DX2                !
 ! A20   A(3,5,8)              119.6306         estimate D2E/DX2                !
 ! A21   A(6,5,8)              122.826          estimate D2E/DX2                !
 ! A22   A(4,6,5)              120.2367         estimate D2E/DX2                !
 ! A23   A(4,6,9)              114.2103         estimate D2E/DX2                !
 ! A24   A(5,6,9)              125.5461         estimate D2E/DX2                !
 ! A25   A(1,10,2)             117.123          estimate D2E/DX2                !
 ! A26   A(1,10,3)             117.7022         estimate D2E/DX2                !
 ! A27   A(2,10,3)             123.1449         estimate D2E/DX2                !
 ! A28   A(2,11,12)            107.884          estimate D2E/DX2                !
 ! A29   A(2,11,13)            112.2573         estimate D2E/DX2                !
 ! A30   A(2,11,17)            112.1161         estimate D2E/DX2                !
 ! A31   A(12,11,13)           108.1454         estimate D2E/DX2                !
 ! A32   A(12,11,17)           106.8715         estimate D2E/DX2                !
 ! A33   A(13,11,17)           109.3354         estimate D2E/DX2                !
 ! A34   A(3,14,15)            107.7728         estimate D2E/DX2                !
 ! A35   A(3,14,16)            112.189          estimate D2E/DX2                !
 ! A36   A(3,14,18)            112.6148         estimate D2E/DX2                !
 ! A37   A(15,14,16)           107.8104         estimate D2E/DX2                !
 ! A38   A(15,14,18)           107.7559         estimate D2E/DX2                !
 ! A39   A(16,14,18)           108.4959         estimate D2E/DX2                !
 ! A40   A(1,17,11)            106.1778         estimate D2E/DX2                !
 ! A41   A(1,17,23)            118.1441         estimate D2E/DX2                !
 ! A42   A(1,17,27)            106.1751         estimate D2E/DX2                !
 ! A43   A(11,17,23)           108.5327         estimate D2E/DX2                !
 ! A44   A(11,17,27)           108.9819         estimate D2E/DX2                !
 ! A45   A(23,17,27)           108.5496         estimate D2E/DX2                !
 ! A46   A(1,18,14)            107.2812         estimate D2E/DX2                !
 ! A47   A(1,18,31)            118.7497         estimate D2E/DX2                !
 ! A48   A(1,18,35)            104.5093         estimate D2E/DX2                !
 ! A49   A(14,18,31)           108.4431         estimate D2E/DX2                !
 ! A50   A(14,18,35)           108.7528         estimate D2E/DX2                !
 ! A51   A(31,18,35)           108.7447         estimate D2E/DX2                !
 ! A52   A(1,19,20)            108.8345         estimate D2E/DX2                !
 ! A53   A(1,19,21)            111.0796         estimate D2E/DX2                !
 ! A54   A(1,19,22)            111.4743         estimate D2E/DX2                !
 ! A55   A(20,19,21)           109.088          estimate D2E/DX2                !
 ! A56   A(20,19,22)           108.6293         estimate D2E/DX2                !
 ! A57   A(21,19,22)           107.6767         estimate D2E/DX2                !
 ! A58   A(17,23,24)           109.0642         estimate D2E/DX2                !
 ! A59   A(17,23,25)           109.3059         estimate D2E/DX2                !
 ! A60   A(17,23,26)           110.2942         estimate D2E/DX2                !
 ! A61   A(24,23,25)           109.3741         estimate D2E/DX2                !
 ! A62   A(24,23,26)           109.7773         estimate D2E/DX2                !
 ! A63   A(25,23,26)           109.0087         estimate D2E/DX2                !
 ! A64   A(17,27,28)           109.004          estimate D2E/DX2                !
 ! A65   A(17,27,29)           109.1146         estimate D2E/DX2                !
 ! A66   A(17,27,30)           110.3137         estimate D2E/DX2                !
 ! A67   A(28,27,29)           109.5778         estimate D2E/DX2                !
 ! A68   A(28,27,30)           108.7854         estimate D2E/DX2                !
 ! A69   A(29,27,30)           110.0271         estimate D2E/DX2                !
 ! A70   A(18,31,32)           108.9654         estimate D2E/DX2                !
 ! A71   A(18,31,33)           109.2439         estimate D2E/DX2                !
 ! A72   A(18,31,34)           110.1407         estimate D2E/DX2                !
 ! A73   A(32,31,33)           109.0875         estimate D2E/DX2                !
 ! A74   A(32,31,34)           109.4208         estimate D2E/DX2                !
 ! A75   A(33,31,34)           109.9593         estimate D2E/DX2                !
 ! A76   A(18,35,36)           109.3322         estimate D2E/DX2                !
 ! A77   A(18,35,37)           109.7844         estimate D2E/DX2                !
 ! A78   A(18,35,38)           109.6557         estimate D2E/DX2                !
 ! A79   A(36,35,37)           109.4938         estimate D2E/DX2                !
 ! A80   A(36,35,38)           109.4033         estimate D2E/DX2                !
 ! A81   A(37,35,38)           109.1576         estimate D2E/DX2                !
 ! A82   A(1,39,40)            109.7179         estimate D2E/DX2                !
 ! A83   A(1,39,41)            107.9267         estimate D2E/DX2                !
 ! A84   A(1,39,42)            110.4571         estimate D2E/DX2                !
 ! A85   A(40,39,41)           108.5926         estimate D2E/DX2                !
 ! A86   A(40,39,42)           109.6466         estimate D2E/DX2                !
 ! A87   A(41,39,42)           110.4599         estimate D2E/DX2                !
 ! A88   L(10,1,19,17,-1)      179.0934         estimate D2E/DX2                !
 ! A89   L(10,1,19,17,-2)      183.8986         estimate D2E/DX2                !
 ! D1    D(17,1,10,2)            1.1652         estimate D2E/DX2                !
 ! D2    D(17,1,10,3)          165.4881         estimate D2E/DX2                !
 ! D3    D(18,1,10,2)         -168.6449         estimate D2E/DX2                !
 ! D4    D(18,1,10,3)           -4.322          estimate D2E/DX2                !
 ! D5    D(39,1,10,2)           98.5598         estimate D2E/DX2                !
 ! D6    D(39,1,10,3)          -97.1173         estimate D2E/DX2                !
 ! D7    D(10,1,17,11)          17.2882         estimate D2E/DX2                !
 ! D8    D(10,1,17,23)         139.3286         estimate D2E/DX2                !
 ! D9    D(10,1,17,27)         -98.6108         estimate D2E/DX2                !
 ! D10   D(18,1,17,11)          48.111          estimate D2E/DX2                !
 ! D11   D(18,1,17,23)         170.1515         estimate D2E/DX2                !
 ! D12   D(18,1,17,27)         -67.788          estimate D2E/DX2                !
 ! D13   D(19,1,17,11)        -166.6104         estimate D2E/DX2                !
 ! D14   D(19,1,17,23)         -44.57           estimate D2E/DX2                !
 ! D15   D(19,1,17,27)          77.4906         estimate D2E/DX2                !
 ! D16   D(39,1,17,11)         -78.5251         estimate D2E/DX2                !
 ! D17   D(39,1,17,23)          43.5154         estimate D2E/DX2                !
 ! D18   D(39,1,17,27)         165.5759         estimate D2E/DX2                !
 ! D19   D(10,1,18,14)         -13.1492         estimate D2E/DX2                !
 ! D20   D(10,1,18,31)        -136.4188         estimate D2E/DX2                !
 ! D21   D(10,1,18,35)         102.2097         estimate D2E/DX2                !
 ! D22   D(17,1,18,14)         -43.9854         estimate D2E/DX2                !
 ! D23   D(17,1,18,31)        -167.255          estimate D2E/DX2                !
 ! D24   D(17,1,18,35)          71.3735         estimate D2E/DX2                !
 ! D25   D(19,1,18,14)         170.859          estimate D2E/DX2                !
 ! D26   D(19,1,18,31)          47.5893         estimate D2E/DX2                !
 ! D27   D(19,1,18,35)         -73.7822         estimate D2E/DX2                !
 ! D28   D(39,1,18,14)          83.2846         estimate D2E/DX2                !
 ! D29   D(39,1,18,31)         -39.985          estimate D2E/DX2                !
 ! D30   D(39,1,18,35)        -161.3565         estimate D2E/DX2                !
 ! D31   D(17,1,19,20)         -75.1503         estimate D2E/DX2                !
 ! D32   D(17,1,19,21)          44.9676         estimate D2E/DX2                !
 ! D33   D(17,1,19,22)         165.056          estimate D2E/DX2                !
 ! D34   D(18,1,19,20)          93.5028         estimate D2E/DX2                !
 ! D35   D(18,1,19,21)        -146.3793         estimate D2E/DX2                !
 ! D36   D(18,1,19,22)         -26.291          estimate D2E/DX2                !
 ! D37   D(39,1,19,20)        -173.125          estimate D2E/DX2                !
 ! D38   D(39,1,19,21)         -53.0071         estimate D2E/DX2                !
 ! D39   D(39,1,19,22)          67.0812         estimate D2E/DX2                !
 ! D40   D(10,1,39,40)         -87.8666         estimate D2E/DX2                !
 ! D41   D(10,1,39,41)          30.2926         estimate D2E/DX2                !
 ! D42   D(10,1,39,42)         151.1428         estimate D2E/DX2                !
 ! D43   D(17,1,39,40)          -5.5144         estimate D2E/DX2                !
 ! D44   D(17,1,39,41)         112.6448         estimate D2E/DX2                !
 ! D45   D(17,1,39,42)        -126.505          estimate D2E/DX2                !
 ! D46   D(18,1,39,40)        -169.5826         estimate D2E/DX2                !
 ! D47   D(18,1,39,41)         -51.4234         estimate D2E/DX2                !
 ! D48   D(18,1,39,42)          69.4268         estimate D2E/DX2                !
 ! D49   D(19,1,39,40)          91.7501         estimate D2E/DX2                !
 ! D50   D(19,1,39,41)        -150.0907         estimate D2E/DX2                !
 ! D51   D(19,1,39,42)         -29.2405         estimate D2E/DX2                !
 ! D52   D(10,2,4,6)            -0.4157         estimate D2E/DX2                !
 ! D53   D(10,2,4,7)          -177.6867         estimate D2E/DX2                !
 ! D54   D(11,2,4,6)          -177.6493         estimate D2E/DX2                !
 ! D55   D(11,2,4,7)             5.0797         estimate D2E/DX2                !
 ! D56   D(4,2,10,1)           162.2714         estimate D2E/DX2                !
 ! D57   D(4,2,10,3)            -1.1259         estimate D2E/DX2                !
 ! D58   D(11,2,10,1)          -20.1062         estimate D2E/DX2                !
 ! D59   D(11,2,10,3)          176.4965         estimate D2E/DX2                !
 ! D60   D(4,2,11,12)           95.6337         estimate D2E/DX2                !
 ! D61   D(4,2,11,13)          -23.4212         estimate D2E/DX2                !
 ! D62   D(4,2,11,17)         -146.9587         estimate D2E/DX2                !
 ! D63   D(10,2,11,12)         -81.7732         estimate D2E/DX2                !
 ! D64   D(10,2,11,13)         159.1718         estimate D2E/DX2                !
 ! D65   D(10,2,11,17)          35.6344         estimate D2E/DX2                !
 ! D66   D(10,3,5,6)             0.4752         estimate D2E/DX2                !
 ! D67   D(10,3,5,8)           179.5494         estimate D2E/DX2                !
 ! D68   D(14,3,5,6)           176.5483         estimate D2E/DX2                !
 ! D69   D(14,3,5,8)            -4.3775         estimate D2E/DX2                !
 ! D70   D(5,3,10,1)          -162.2086         estimate D2E/DX2                !
 ! D71   D(5,3,10,2)             1.0989         estimate D2E/DX2                !
 ! D72   D(14,3,10,1)           21.2097         estimate D2E/DX2                !
 ! D73   D(14,3,10,2)         -175.4828         estimate D2E/DX2                !
 ! D74   D(5,3,14,15)          -90.314          estimate D2E/DX2                !
 ! D75   D(5,3,14,16)           28.2164         estimate D2E/DX2                !
 ! D76   D(5,3,14,18)          150.9715         estimate D2E/DX2                !
 ! D77   D(10,3,14,15)          86.0303         estimate D2E/DX2                !
 ! D78   D(10,3,14,16)        -155.4393         estimate D2E/DX2                !
 ! D79   D(10,3,14,18)         -32.6842         estimate D2E/DX2                !
 ! D80   D(2,4,6,5)              1.9475         estimate D2E/DX2                !
 ! D81   D(2,4,6,9)           -177.1436         estimate D2E/DX2                !
 ! D82   D(7,4,6,5)            179.2571         estimate D2E/DX2                !
 ! D83   D(7,4,6,9)              0.166          estimate D2E/DX2                !
 ! D84   D(3,5,6,4)             -1.9659         estimate D2E/DX2                !
 ! D85   D(3,5,6,9)            177.0153         estimate D2E/DX2                !
 ! D86   D(8,5,6,4)            178.9918         estimate D2E/DX2                !
 ! D87   D(8,5,6,9)             -2.027          estimate D2E/DX2                !
 ! D88   D(2,11,17,1)          -32.4564         estimate D2E/DX2                !
 ! D89   D(2,11,17,23)        -160.4267         estimate D2E/DX2                !
 ! D90   D(2,11,17,27)          81.5306         estimate D2E/DX2                !
 ! D91   D(12,11,17,1)          85.5545         estimate D2E/DX2                !
 ! D92   D(12,11,17,23)        -42.4158         estimate D2E/DX2                !
 ! D93   D(12,11,17,27)       -160.4585         estimate D2E/DX2                !
 ! D94   D(13,11,17,1)        -157.6179         estimate D2E/DX2                !
 ! D95   D(13,11,17,23)         74.4118         estimate D2E/DX2                !
 ! D96   D(13,11,17,27)        -43.6309         estimate D2E/DX2                !
 ! D97   D(3,14,18,1)           27.5668         estimate D2E/DX2                !
 ! D98   D(3,14,18,31)         156.9681         estimate D2E/DX2                !
 ! D99   D(3,14,18,35)         -84.935          estimate D2E/DX2                !
 ! D100  D(15,14,18,1)         -91.1575         estimate D2E/DX2                !
 ! D101  D(15,14,18,31)         38.2437         estimate D2E/DX2                !
 ! D102  D(15,14,18,35)        156.3406         estimate D2E/DX2                !
 ! D103  D(16,14,18,1)         152.3694         estimate D2E/DX2                !
 ! D104  D(16,14,18,31)        -78.2294         estimate D2E/DX2                !
 ! D105  D(16,14,18,35)         39.8675         estimate D2E/DX2                !
 ! D106  D(1,17,23,24)          63.1125         estimate D2E/DX2                !
 ! D107  D(1,17,23,25)        -177.3523         estimate D2E/DX2                !
 ! D108  D(1,17,23,26)         -57.5172         estimate D2E/DX2                !
 ! D109  D(11,17,23,24)       -176.0511         estimate D2E/DX2                !
 ! D110  D(11,17,23,25)        -56.5159         estimate D2E/DX2                !
 ! D111  D(11,17,23,26)         63.3192         estimate D2E/DX2                !
 ! D112  D(27,17,23,24)        -57.7342         estimate D2E/DX2                !
 ! D113  D(27,17,23,25)         61.801          estimate D2E/DX2                !
 ! D114  D(27,17,23,26)       -178.364          estimate D2E/DX2                !
 ! D115  D(1,17,27,28)         175.1113         estimate D2E/DX2                !
 ! D116  D(1,17,27,29)         -65.2557         estimate D2E/DX2                !
 ! D117  D(1,17,27,30)          55.7269         estimate D2E/DX2                !
 ! D118  D(11,17,27,28)         61.1226         estimate D2E/DX2                !
 ! D119  D(11,17,27,29)       -179.2444         estimate D2E/DX2                !
 ! D120  D(11,17,27,30)        -58.2618         estimate D2E/DX2                !
 ! D121  D(23,17,27,28)        -56.9095         estimate D2E/DX2                !
 ! D122  D(23,17,27,29)         62.7235         estimate D2E/DX2                !
 ! D123  D(23,17,27,30)       -176.2939         estimate D2E/DX2                !
 ! D124  D(1,18,31,32)        -179.9861         estimate D2E/DX2                !
 ! D125  D(1,18,31,33)         -60.8939         estimate D2E/DX2                !
 ! D126  D(1,18,31,34)          59.9791         estimate D2E/DX2                !
 ! D127  D(14,18,31,32)         57.3213         estimate D2E/DX2                !
 ! D128  D(14,18,31,33)        176.4135         estimate D2E/DX2                !
 ! D129  D(14,18,31,34)        -62.7135         estimate D2E/DX2                !
 ! D130  D(35,18,31,32)        -60.7807         estimate D2E/DX2                !
 ! D131  D(35,18,31,33)         58.3114         estimate D2E/DX2                !
 ! D132  D(35,18,31,34)        179.1844         estimate D2E/DX2                !
 ! D133  D(1,18,35,36)          67.2506         estimate D2E/DX2                !
 ! D134  D(1,18,35,37)        -172.6153         estimate D2E/DX2                !
 ! D135  D(1,18,35,38)         -52.6936         estimate D2E/DX2                !
 ! D136  D(14,18,35,36)       -178.4244         estimate D2E/DX2                !
 ! D137  D(14,18,35,37)        -58.2903         estimate D2E/DX2                !
 ! D138  D(14,18,35,38)         61.6313         estimate D2E/DX2                !
 ! D139  D(31,18,35,36)        -60.5183         estimate D2E/DX2                !
 ! D140  D(31,18,35,37)         59.6158         estimate D2E/DX2                !
 ! D141  D(31,18,35,38)        179.5374         estimate D2E/DX2                !
 --------------------------------------------------------------------------------
 Trust Radius=3.00D-01 FncErr=1.00D-07 GrdErr=1.00D-06 EigMax=2.50D+02 EigMin=1.00D-04
 Number of steps in this run=    252 maximum allowed number of steps=    252.
 GradGradGradGradGradGradGradGradGradGradGradGradGradGradGradGradGradGrad

                          Input orientation:                          
 ---------------------------------------------------------------------
 Center     Atomic      Atomic             Coordinates (Angstroms)
 Number     Number       Type             X           Y           Z
 ---------------------------------------------------------------------
      1         78           0        1.117490    0.058200    0.032720
      2          6           0       -1.401760   -1.342280   -0.302110
      3          6           0       -1.621620    0.990040   -0.248270
      4          6           0       -2.751450   -1.511640   -0.170440
      5          6           0       -2.985590    0.913280   -0.114640
      6          6           0       -3.559940   -0.364010   -0.053730
      7          1           0       -3.193170   -2.493510   -0.111400
      8          1           0       -3.564860    1.816880   -0.046200
      9          8           0       -4.846450   -0.622080    0.129400
     10          7           0       -0.882620   -0.113280   -0.325930
     11          6           0       -0.358610   -2.412710   -0.489600
     12          1           0       -0.163340   -2.506150   -1.557080
     13          1           0       -0.690240   -3.380390   -0.119930
     14          6           0       -0.805200    2.247030   -0.406040
     15          1           0       -0.717580    2.455030   -1.471680
     16          1           0       -1.279320    3.106300    0.062740
     17          7           0        0.954350   -2.049270    0.166550
     18          7           0        0.595010    2.106120    0.153700
     19          6           0        3.117460    0.210490    0.534990
     20          1           0        3.223640    0.053850    1.608820
     21          1           0        3.711910   -0.533210    0.006070
     22          1           0        3.517340    1.191530    0.285520
     23          6           0        2.026270   -2.872490   -0.437900
     24          1           0        2.960310   -2.669410    0.074310
     25          1           0        1.775900   -3.926480   -0.328210
     26          1           0        2.128410   -2.641570   -1.492710
     27          6           0        0.874280   -2.368530    1.622550
     28          1           0        0.701530   -3.436900    1.742300
     29          1           0        1.810940   -2.096050    2.098150
     30          1           0        0.050900   -1.826630    2.083370
     31          6           0        1.466650    3.103890   -0.507920
     32          1           0        1.052540    4.098260   -0.346240
     33          1           0        2.458540    3.057450   -0.071400
     34          1           0        1.520990    2.904800   -1.571760
     35          6           0        0.558350    2.395860    1.612330
     36          1           0        1.563080    2.324740    2.018360
     37          1           0        0.169300    3.398750    1.779110
     38          1           0       -0.086680    1.674020    2.113440
     39          6           0        1.698330    0.182660   -1.888460
     40          1           0        1.861790   -0.814290   -2.287180
     41          1           0        0.895350    0.653950   -2.451200
     42          1           0        2.610100    0.762360   -1.971680
 ---------------------------------------------------------------------
                    Distance matrix (angstroms):
                    1          2          3          4          5
     1  Pt   0.000000
     2  C    2.901737   0.000000
     3  C    2.906889   2.343278   0.000000
     4  C    4.180235   1.366632   2.746084   0.000000
     5  C    4.193822   2.762465   1.372648   2.436837   0.000000
     6  C    4.697242   2.382529   2.372421   1.408663   1.401805
     7  H    5.011365   2.137955   3.824085   1.078272   3.413110
     8  H    5.002358   3.837289   2.121480   3.428719   1.075514
     9  O    6.003391   3.545529   3.625065   2.295702   2.424806
    10  N    2.039234   1.334359   1.330213   2.339255   2.349671
    11  C    2.925250   1.506365   3.637601   2.576718   4.254859
    12  H    3.277786   2.112635   4.007856   3.100022   4.662427
    13  H    3.887813   2.166412   4.470414   2.782690   4.868702
    14  C    2.946222   3.640032   1.507135   4.239221   2.572529
    15  H    3.372758   4.031818   2.111922   4.643740   3.059807
    16  H    3.877694   4.465196   2.166207   4.852516   2.784270
    17  N    2.118007   2.504143   4.005634   3.759729   4.937499
    18  N    2.116978   4.010775   2.514093   4.938831   3.783592
    19  C    2.067691   4.851307   4.866218   6.156904   6.177633
    20  H    2.630585   5.195686   5.272739   6.427925   6.501036
    21  H    2.661107   5.186443   5.552614   6.539381   6.852986
    22  H    2.666013   5.564445   5.170536   6.841985   6.521169
    23  C    3.104240   3.756511   5.316220   4.974943   6.289300
    24  H    3.292047   4.575000   5.872794   5.833055   6.944429
    25  H    4.054806   4.095887   5.976763   5.133541   6.792693
    26  H    3.261542   3.945603   5.366558   5.180557   6.378795
    27  C    2.911311   3.152438   4.583610   4.134609   5.355997
    28  H    3.912980   3.604286   5.381189   4.391841   5.997262
    29  H    3.063930   4.080546   5.178041   5.128688   6.079408
    30  H    2.982510   2.834666   4.020883   3.609992   4.643127
    31  C    3.112946   5.295145   3.751425   6.261739   4.977538
    32  H    4.058314   5.968669   4.101434   6.780282   5.148226
    33  H    3.287059   5.857710   4.577464   6.930396   5.851315
    34  H    3.292461   5.309630   3.910745   6.302570   5.137958
    35  C    2.876188   4.634739   3.192246   5.422324   4.211886
    36  H    3.046066   5.255653   4.130539   6.174449   5.218458
    37  H    3.886929   5.410829   3.622092   6.036842   4.440403
    38  H    2.896601   4.081958   2.898542   4.739782   3.734534
    39  C    2.010920   3.801645   3.790007   5.061896   5.061556
    40  H    2.587887   3.856168   4.421188   5.123365   5.585832
    41  H    2.564005   3.725619   3.361695   4.815682   4.537451
    42  H    2.596410   4.828250   4.574870   6.096045   5.897722
                    6          7          8          9         10
     6  C    0.000000
     7  H    2.161624   0.000000
     8  H    2.180909   4.326877   0.000000
     9  O    1.324856   2.508699   2.760767   0.000000
    10  N    2.702776   3.324178   3.316350   4.022207   0.000000
    11  C    3.825659   2.860821   5.325981   4.871368   2.364054
    12  H    4.287857   3.357085   5.704532   5.322166   2.785484
    13  H    4.163905   2.655426   5.939738   4.994449   3.279246
    14  C    3.811856   5.316195   2.816068   4.984996   2.362938
    15  H    4.246949   5.697978   3.247496   5.392553   2.817126
    16  H    4.154256   5.920390   2.626436   5.160395   3.267129
    17  N    4.823633   4.180494   5.951104   5.973904   2.713863
    18  N    4.838200   5.964661   4.174702   6.087130   2.709091
    19  C    6.727876   6.895904   6.897222   8.017577   4.104467
    20  H    6.996831   7.115030   7.206323   8.232370   4.542308
    21  H    7.274064   7.178907   7.647028   8.559710   4.625610
    22  H    7.254150   7.666030   7.117490   8.559587   4.629908
    23  C    6.135617   5.243356   7.307828   7.253996   4.010912
    24  H    6.917002   6.158794   7.919543   8.070942   4.632721
    25  H    6.421660   5.176105   7.847893   7.415119   4.648465
    26  H    6.294066   5.499923   7.374516   7.440313   4.101210
    27  C    5.146875   4.423387   6.325215   6.164928   3.459686
    28  H    5.552342   4.415300   7.000216   6.426876   4.222980
    29  H    6.039611   5.484633   6.986307   7.097141   4.130715
    30  H    4.443492   3.973127   5.557333   5.408602   3.100283
    31  C    6.123661   7.293973   5.213988   7.358278   3.987778
    32  H    6.424359   7.844274   5.158983   7.570068   4.634903
    33  H    6.923063   7.921905   6.149878   8.181818   4.613205
    34  H    6.229397   7.314213   5.420034   7.475100   4.054410
    35  C    5.230005   6.399304   4.481830   6.365446   3.482676
    36  H    6.145589   7.097417   5.551225   7.303013   4.173857
    37  H    5.605791   7.042653   4.447249   6.636744   4.227539
    38  H    4.573153   5.654069   4.096607   5.644812   3.127057
    39  C    5.595935   5.852059   5.810832   6.895905   3.031565
    40  H    5.881004   5.753818   6.433784   7.132832   3.445244
    41  H    5.160786   5.665436   5.199029   6.423085   2.875168
    42  H    6.558707   6.909361   6.553596   7.869647   3.959082
                   11         12         13         14         15
    11  C    0.000000
    12  H    1.089208   0.000000
    13  H    1.087676   1.762759   0.000000
    14  C    4.681837   4.932504   5.635861   0.000000
    15  H    4.978778   4.992773   5.990000   1.089280   0.000000
    16  H    5.622478   5.947169   6.515944   1.087607   1.759019
    17  N    1.512113   2.104488   2.135094   4.677827   5.076206
    18  N    4.662944   4.977439   5.641678   1.514514   2.118134
    19  C    4.473704   4.745581   5.274649   4.518882   4.875676
    20  H    4.829058   5.296051   5.486441   5.010115   5.548726
    21  H    4.510803   4.620984   5.244162   5.320136   5.543799
    22  H    5.349238   5.533120   6.226602   4.502964   4.755915
    23  C    2.429346   2.486194   2.781815   5.850446   6.081109
    24  H    3.376258   3.527786   3.724210   6.211375   6.494370
    25  H    2.621770   2.699650   2.534451   6.691813   6.946124
    26  H    2.691445   2.296650   3.221051   5.803906   5.837417
    27  C    2.446047   3.347483   2.551043   5.314059   5.947689
    28  H    2.674741   3.535563   2.325536   6.260404   6.859911
    29  H    3.391706   4.174526   3.581244   5.654865   6.312640
    30  H    2.670461   3.709518   2.796067   4.850235   5.617967
    31  C    5.810747   5.935499   6.844604   2.430204   2.474008
    32  H    6.663680   6.823689   7.682363   2.623324   2.664610
    33  H    6.167161   6.327333   7.166795   3.379462   3.522986
    34  H    5.742811   5.667059   6.819161   2.683789   2.285499
    35  C    5.327408   5.881811   6.158309   2.440335   3.338056
    36  H    5.694400   6.253143   6.496018   3.390060   4.171183
    37  H    6.260895   6.790336   7.092383   2.655370   3.499257
    38  H    4.852950   5.563489   5.558713   2.681863   3.723049
    39  C    3.594963   3.287146   4.639859   3.567472   3.342752
    40  H    3.273594   2.737990   4.218376   4.474729   4.243424
    41  H    3.850285   3.450581   4.921871   3.100396   2.608619
    42  H    4.592480   4.306625   5.611025   4.039771   3.766774
                   16         17         18         19         20
    16  H    0.000000
    17  N    5.619605   0.000000
    18  N    2.126440   4.170918   0.000000
    19  C    5.285869   3.149811   3.178293   0.000000
    20  H    5.655481   3.413639   3.638527   1.090377   0.000000
    21  H    6.177509   3.150925   4.086921   1.089136   1.775346
    22  H    5.169519   4.133504   3.064941   1.088384   1.769661
    23  C    6.850073   1.480562   5.213929   3.412034   3.766460
    24  H    7.164735   2.101656   5.329787   2.920744   3.136911
    25  H    7.677708   2.107997   6.165955   4.433894   4.657367
    26  H    6.860762   2.117163   5.253812   3.636486   4.252565
    27  C    6.086441   1.492740   4.717839   3.586919   3.374553
    28  H    7.039755   2.114810   5.767154   4.538477   4.308618
    29  H    6.384125   2.113531   4.787233   3.077432   2.618632
    30  H    5.494200   2.130725   4.414318   3.993886   3.718559
    31  C    2.804641   5.222300   1.480892   3.490644   4.107353
    32  H    2.566870   6.169661   2.104257   4.489456   4.989307
    33  H    3.740585   5.328958   2.104387   2.984471   3.525639
    34  H    3.248681   5.280683   2.114838   3.774443   4.598154
    35  C    2.506588   4.691085   1.487580   3.533489   3.548069
    36  H    3.537587   4.788707   2.112324   3.014388   2.842908
    37  H    2.264940   5.735641   2.119924   4.517132   4.532808
    38  H    2.771135   4.328627   2.119432   3.860044   3.719921
    39  C    4.606653   3.123793   3.014537   2.808525   3.817608
    40  H    5.546145   2.892994   4.011411   3.254462   4.217478
    41  H    4.130751   3.763442   2.997417   3.748568   4.718561
    42  H    4.975993   3.901128   3.222347   2.616366   3.701135
                   21         22         23         24         25
    21  H    0.000000
    22  H    1.758032   0.000000
    23  C    2.917314   4.388950   0.000000
    24  H    2.265593   3.906629   1.084450   0.000000
    25  H    3.920990   5.440892   1.088858   1.773436   0.000000
    26  H    3.032985   4.447908   1.084611   1.774369   1.769553
    27  C    3.746138   4.631138   2.413817   2.615167   2.654353
    28  H    4.528609   5.610112   2.612808   2.910897   2.383479
    29  H    3.230008   4.123786   2.660973   2.397023   3.039560
    30  H    4.403533   4.935358   3.369379   3.634731   3.633279
    31  C    4.305099   2.914103   6.002932   5.991745   7.039463
    32  H    5.352279   3.863087   7.039027   7.043991   8.057296
    33  H    3.803916   2.174881   5.956960   5.750646   7.021910
    34  H    4.371452   3.220279   5.909148   5.987738   6.948222
    35  C    4.593959   3.459257   5.840697   5.813078   6.724590
    36  H    4.103006   2.847109   5.767058   5.538332   6.680527
    37  H    5.581583   4.279253   6.905934   6.893377   7.789798
    38  H    4.872593   4.069773   5.625357   5.683976   6.387211
    39  C    2.855909   3.008788   3.397883   3.685019   4.396070
    40  H    2.959889   3.658271   2.771836   3.197632   3.678406
    41  H    3.921803   3.827984   4.215227   4.656928   5.124724
    42  H    2.608444   2.470268   3.988167   4.010707   5.038065
                   26         27         28         29         30
    26  H    0.000000
    27  C    3.369308   0.000000
    28  H    3.624062   1.088851   0.000000
    29  H    3.645909   1.085252   1.776316   0.000000
    30  H    4.215273   1.088102   1.769920   1.780603   0.000000
    31  C    5.866690   5.902303   6.959226   5.826621   5.747100
    32  H    6.920780   6.762195   7.827122   6.702215   6.481559
    33  H    5.882851   5.900899   6.968011   5.628934   5.856108
    34  H    5.580092   6.199182   7.202199   6.209735   6.156912
    35  C    6.122260   4.774864   5.835965   4.688524   4.278879
    36  H    6.108310   4.760031   5.832236   4.428452   4.418686
    37  H    7.143415   5.812317   6.856437   5.743657   5.235570
    38  H    6.044440   4.184092   5.184643   4.220737   3.503482
    39  C    2.884070   4.417558   5.222762   4.593284   4.746231
    40  H    2.010279   4.321669   4.945806   4.569093   4.837961
    41  H    3.646861   5.072600   5.861575   5.394200   5.237241
    42  H    3.471048   5.072872   5.921999   5.037130   5.449386
                   31         32         33         34         35
    31  C    0.000000
    32  H    1.089220   0.000000
    33  H    1.084690   1.770779   0.000000
    34  H    1.083672   1.773610   1.775776   0.000000
    35  C    2.412836   2.641663   2.623618   3.365134   0.000000
    36  H    2.645461   2.999560   2.388684   3.636922   1.086002
    37  H    2.645858   2.405523   2.963358   3.646832   1.088560
    38  H    3.365842   3.636590   3.628436   4.204774   1.090059
    39  C    3.239313   4.257630   3.484831   2.746233   4.295735
    40  H    4.321347   5.343714   4.500685   3.802578   5.216339
    41  H    3.178825   4.039658   3.726100   2.496230   4.433971
    42  H    2.988785   4.024460   2.983534   2.436421   4.441073
                   36         37         38         39         40
    36  H    0.000000
    37  H    1.775770   0.000000
    38  H    1.776002   1.775386   0.000000
    39  C    4.457583   5.111970   4.628782   0.000000
    40  H    5.336704   6.094993   5.417904   1.086097   0.000000
    41  H    4.818129   5.094762   4.779212   1.087919   1.765400
    42  H    4.411088   5.193889   4.979152   1.083652   1.773509
                   41         42
    41  H    0.000000
    42  H    1.783833   0.000000
 Stoichiometry    C13H24N3OPt(1+)
 Framework group  C1[X(C13H24N3OPt)]
 Deg. of freedom   120
 Full point group                 C1      NOp   1
 Largest Abelian subgroup         C1      NOp   1
 Largest concise Abelian subgroup C1      NOp   1
                         Standard orientation:                         
 ---------------------------------------------------------------------
 Center     Atomic      Atomic             Coordinates (Angstroms)
 Number     Number       Type             X           Y           Z
 ---------------------------------------------------------------------
      1         78           0       -0.868197    0.023389    0.026864
      2          6           0        1.804728    1.112066   -0.273686
      3          6           0        1.744194   -1.229535   -0.208933
      4          6           0        3.162871    1.120090   -0.121812
      5          6           0        3.105447   -1.315142   -0.054580
      6          6           0        3.826978   -0.115081    0.011033
      7          1           0        3.717548    2.042630   -0.059156
      8          1           0        3.571799   -2.280960    0.025685
      9          8           0        5.132206   -0.011193    0.213102
     10          7           0        1.143212   -0.046440   -0.301520
     11          6           0        0.899514    2.298186   -0.480663
     12          1           0        0.732692    2.408840   -1.551318
     13          1           0        1.338580    3.221319   -0.109063
     14          6           0        0.786208   -2.381091   -0.375184
     15          1           0        0.690300   -2.582542   -1.441368
     16          1           0        1.147493   -3.288350    0.103611
     17          7           0       -0.457031    2.097063    0.156377
     18          7           0       -0.595403   -2.071554    0.162487
     19          6           0       -2.879317    0.112979    0.498790
     20          1           0       -2.982050    0.286565    1.570348
     21          1           0       -3.372941    0.919524   -0.041615
     22          1           0       -3.389522   -0.814682    0.246368
     23          6           0       -1.414064    3.039062   -0.467152
     24          1           0       -2.373175    2.951288    0.031279
     25          1           0       -1.041511    4.056259   -0.357029
     26          1           0       -1.527281    2.816639   -1.522657
     27          6           0       -0.361170    2.411848    1.612398
     28          1           0       -0.064110    3.452620    1.731338
     29          1           0       -1.330609    2.255296    2.074407
     30          1           0        0.384793    1.778047    2.087581
     31          6           0       -1.569808   -2.961702   -0.509239
     32          1           0       -1.279628   -3.997496   -0.337994
     33          1           0       -2.555481   -2.795226   -0.088186
     34          1           0       -1.584181   -2.762923   -1.574427
     35          6           0       -0.615267   -2.356240    1.622437
     36          1           0       -1.610291   -2.163884    2.012727
     37          1           0       -0.351057   -3.397482    1.798423
     38          1           0        0.103670   -1.713867    2.131077
     39          6           0       -1.431055   -0.040673   -1.902614
     40          1           0       -1.468562    0.966627   -2.307021
     41          1           0       -0.681684   -0.607099   -2.451406
     42          1           0       -2.404081   -0.508036   -1.997980
 ---------------------------------------------------------------------
 Rotational constants (GHZ):           0.5047491           0.3254463           0.2293243
 Standard basis: def2TZVPP (5D, 7F)
 There are  1043 symmetry adapted cartesian basis functions of A   symmetry.
 There are   919 symmetry adapted basis functions of A   symmetry.
   919 basis functions,  1375 primitive gaussians,  1043 cartesian basis functions
    74 alpha electrons       74 beta electrons
       nuclear repulsion energy      1733.4083541016 Hartrees.
 NAtoms=   42 NActive=   42 NUniq=   42 SFac= 1.00D+00 NAtFMM=   60 NAOKFM=F Big=F
 Integral buffers will be    131072 words long.
 Raffenetti 2 integral format.
 Two-electron integral symmetry is turned on.
 Nuclear repulsion after empirical dispersion term =     1733.3574228929 Hartrees.
 ------------------------------------------------------------------------------
 Polarizable Continuum Model (PCM)
 =================================
 Model                : PCM.
 Atomic radii         : UFF (Universal Force Field).
 Polarization charges : Total charges.
 Charge compensation  : None.
 Solution method      : On-the-fly selection.
 Cavity type          : Scaled VdW (van der Waals Surface) (Alpha=1.100).
 Cavity algorithm     : GePol (No added spheres)
                        Default sphere list used, NSphG=   42.
                        Lebedev-Laikov grids with approx.  5.0 points / Ang**2.
                        Smoothing algorithm: York/Karplus (Gamma=1.0000).
                        Polarization charges: spherical gaussians, with
                                              point-specific exponents (IZeta= 3).
                        Self-potential: point-specific (ISelfS= 7).
                        Self-field    : sphere-specific E.n sum rule (ISelfD= 2).
 1st derivatives      : Analytical E(r).r(x)/FMM algorithm (CHGder, D1EAlg=3).
                        Cavity 1st derivative terms included.
 Solvent              : Dichloromethane, Eps=   8.930000 Eps(inf)=   2.028346
 ------------------------------------------------------------------------------
 One-electron integrals computed using PRISM.
   1 Symmetry operations used in ECPInt.
 ECPInt:  NShTT=   60378 NPrTT=  155307 LenC2=   55068 LenP2D=  107972.
 LDataN:  DoStor=T MaxTD1= 9 Len=  602
 Number of processors reduced to  38 by ecpmxn.
 NBasis=   919 RedAO= T EigKep=  1.68D-05  NBF=   919
 NBsUse=   919 1.00D-06 EigRej= -1.00D+00 NBFU=   919
 Defaulting to unpruned grid for atomic number  78.
 ExpMin= 4.92D-02 ExpMax= 2.70D+04 ExpMxC= 9.22D+02 IAcc=3 IRadAn=         5 AccDes= 0.00D+00
 Harris functional with IExCor= 4639 and IRadAn=       5 diagonalized for initial guess.
 HarFok:  IExCor= 4639 AccDes= 0.00D+00 IRadAn=         5 IDoV= 1 UseB2=F ITyADJ=14
 ICtDFT=  3500011 ScaDFX=  1.000000  1.000000  1.000000  1.000000
 Defaulting to unpruned grid for atomic number  78.
 FoFCou: FMM=F IPFlag=           0 FMFlag=      100000 FMFlg1=           0
         NFxFlg=           0 DoJE=T BraDBF=F KetDBF=T FulRan=T
         wScrn=  0.000000 ICntrl=       500 IOpCl=  0 I1Cent=   200000004 NGrid=           0
         NMat0=    1 NMatS0=      1 NMatT0=    0 NMatD0=    1 NMtDS0=    0 NMtDT0=    0
 Petite list used in FoFCou.
 Requested convergence on RMS density matrix=1.00D-08 within 128 cycles.
 Requested convergence on MAX density matrix=1.00D-06.
 Requested convergence on             energy=1.00D-06.
 No special actions if energy rises.
 Defaulting to unpruned grid for atomic number  78.
 Defaulting to unpruned grid for atomic number  78.
 Defaulting to unpruned grid for atomic number  78.
 Defaulting to unpruned grid for atomic number  78.
 Defaulting to unpruned grid for atomic number  78.
 Defaulting to unpruned grid for atomic number  78.
 Defaulting to unpruned grid for atomic number  78.
 Defaulting to unpruned grid for atomic number  78.
 Defaulting to unpruned grid for atomic number  78.
 Defaulting to unpruned grid for atomic number  78.
 Defaulting to unpruned grid for atomic number  78.
 Defaulting to unpruned grid for atomic number  78.
 Defaulting to unpruned grid for atomic number  78.
 Defaulting to unpruned grid for atomic number  78.
 Defaulting to unpruned grid for atomic number  78.
 Defaulting to unpruned grid for atomic number  78.
 Defaulting to unpruned grid for atomic number  78.
 Defaulting to unpruned grid for atomic number  78.
 Defaulting to unpruned grid for atomic number  78.
 Defaulting to unpruned grid for atomic number  78.
 Defaulting to unpruned grid for atomic number  78.
 Defaulting to unpruned grid for atomic number  78.
 Defaulting to unpruned grid for atomic number  78.
 Defaulting to unpruned grid for atomic number  78.
 Defaulting to unpruned grid for atomic number  78.
 Defaulting to unpruned grid for atomic number  78.
 Defaulting to unpruned grid for atomic number  78.
 Defaulting to unpruned grid for atomic number  78.
 Defaulting to unpruned grid for atomic number  78.
 Defaulting to unpruned grid for atomic number  78.
 Defaulting to unpruned grid for atomic number  78.
 Defaulting to unpruned grid for atomic number  78.
 Defaulting to unpruned grid for atomic number  78.
 Defaulting to unpruned grid for atomic number  78.
 Defaulting to unpruned grid for atomic number  78.
 Defaulting to unpruned grid for atomic number  78.
 Defaulting to unpruned grid for atomic number  78.
 Defaulting to unpruned grid for atomic number  78.
 Defaulting to unpruned grid for atomic number  78.
 Defaulting to unpruned grid for atomic number  78.
 Defaulting to unpruned grid for atomic number  78.
 Defaulting to unpruned grid for atomic number  78.
 Defaulting to unpruned grid for atomic number  78.
 Defaulting to unpruned grid for atomic number  78.
 Defaulting to unpruned grid for atomic number  78.
 Defaulting to unpruned grid for atomic number  78.
 Defaulting to unpruned grid for atomic number  78.
 Defaulting to unpruned grid for atomic number  78.
 Inv3:  Mode=1 IEnd=    19830123.
 Iteration    1 A*A^-1 deviation from unit magnitude is 3.33D-15 for     61.
 Iteration    1 A*A^-1 deviation from orthogonality  is 2.82D-15 for   1781     96.
 Iteration    1 A^-1*A deviation from unit magnitude is 3.77D-15 for     61.
 Iteration    1 A^-1*A deviation from orthogonality  is 1.62D-15 for   1173    592.
 Error on total polarization charges =  0.02028
 SCF Done:  E(RwB97XD) =  -868.618682009     A.U. after   19 cycles
            NFock= 19  Conv=0.20D-08     -V/T= 2.1057

 **********************************************************************

            Population analysis using the SCF Density.

 **********************************************************************

 Orbital symmetries:
       Occupied  (A) (A) (A) (A) (A) (A) (A) (A) (A) (A) (A) (A)
                 (A) (A) (A) (A) (A) (A) (A) (A) (A) (A) (A) (A)
                 (A) (A) (A) (A) (A) (A) (A) (A) (A) (A) (A) (A)
                 (A) (A) (A) (A) (A) (A) (A) (A) (A) (A) (A) (A)
                 (A) (A) (A) (A) (A) (A) (A) (A) (A) (A) (A) (A)
                 (A) (A) (A) (A) (A) (A) (A) (A) (A) (A) (A) (A)
                 (A) (A)
       Virtual   (A) (A) (A) (A) (A) (A) (A) (A) (A) (A) (A) (A)
                 (A) (A) (A) (A) (A) (A) (A) (A) (A) (A) (A) (A)
                 (A) (A) (A) (A) (A) (A) (A) (A) (A) (A) (A) (A)
                 (A) (A) (A) (A) (A) (A) (A) (A) (A) (A) (A) (A)
                 (A) (A) (A) (A) (A) (A) (A) (A) (A) (A) (A) (A)
                 (A) (A) (A) (A) (A) (A) (A) (A) (A) (A) (A) (A)
                 (A) (A) (A) (A) (A) (A) (A) (A) (A) (A) (A) (A)
                 (A) (A) (A) (A) (A) (A) (A) (A) (A) (A) (A) (A)
                 (A) (A) (A) (A) (A) (A) (A) (A) (A) (A) (A) (A)
                 (A) (A) (A) (A) (A) (A) (A) (A) (A) (A) (A) (A)
                 (A) (A) (A) (A) (A) (A) (A) (A) (A) (A) (A) (A)
                 (A) (A) (A) (A) (A) (A) (A) (A) (A) (A) (A) (A)
                 (A) (A) (A) (A) (A) (A) (A) (A) (A) (A) (A) (A)
                 (A) (A) (A) (A) (A) (A) (A) (A) (A) (A) (A) (A)
                 (A) (A) (A) (A) (A) (A) (A) (A) (A) (A) (A) (A)
                 (A) (A) (A) (A) (A) (A) (A) (A) (A) (A) (A) (A)
                 (A) (A) (A) (A) (A) (A) (A) (A) (A) (A) (A) (A)
                 (A) (A) (A) (A) (A) (A) (A) (A) (A) (A) (A) (A)
                 (A) (A) (A) (A) (A) (A) (A) (A) (A) (A) (A) (A)
                 (A) (A) (A) (A) (A) (A) (A) (A) (A) (A) (A) (A)
                 (A) (A) (A) (A) (A) (A) (A) (A) (A) (A) (A) (A)
                 (A) (A) (A) (A) (A) (A) (A) (A) (A) (A) (A) (A)
                 (A) (A) (A) (A) (A) (A) (A) (A) (A) (A) (A) (A)
                 (A) (A) (A) (A) (A) (A) (A) (A) (A) (A) (A) (A)
                 (A) (A) (A) (A) (A) (A) (A) (A) (A) (A) (A) (A)
                 (A) (A) (A) (A) (A) (A) (A) (A) (A) (A) (A) (A)
                 (A) (A) (A) (A) (A) (A) (A) (A) (A) (A) (A) (A)
                 (A) (A) (A) (A) (A) (A) (A) (A) (A) (A) (A) (A)
                 (A) (A) (A) (A) (A) (A) (A) (A) (A) (A) (A) (A)
                 (A) (A) (A) (A) (A) (A) (A) (A) (A) (A) (A) (A)
                 (A) (A) (A) (A) (A) (A) (A) (A) (A) (A) (A) (A)
                 (A) (A) (A) (A) (A) (A) (A) (A) (A) (A) (A) (A)
                 (A) (A) (A) (A) (A) (A) (A) (A) (A) (A) (A) (A)
                 (A) (A) (A) (A) (A) (A) (A) (A) (A) (A) (A) (A)
                 (A) (A) (A) (A) (A) (A) (A) (A) (A) (A) (A) (A)
                 (A) (A) (A) (A) (A) (A) (A) (A) (A) (A) (A) (A)
                 (A) (A) (A) (A) (A) (A) (A) (A) (A) (A) (A) (A)
                 (A) (A) (A) (A) (A) (A) (A) (A) (A) (A) (A) (A)
                 (A) (A) (A) (A) (A) (A) (A) (A) (A) (A) (A) (A)
                 (A) (A) (A) (A) (A) (A) (A) (A) (A) (A) (A) (A)
                 (A) (A) (A) (A) (A) (A) (A) (A) (A) (A) (A) (A)
                 (A) (A) (A) (A) (A) (A) (A) (A) (A) (A) (A) (A)
                 (A) (A) (A) (A) (A) (A) (A) (A) (A) (A) (A) (A)
                 (A) (A) (A) (A) (A) (A) (A) (A) (A) (A) (A) (A)
                 (A) (A) (A) (A) (A) (A) (A) (A) (A) (A) (A) (A)
                 (A) (A) (A) (A) (A) (A) (A) (A) (A) (A) (A) (A)
                 (A) (A) (A) (A) (A) (A) (A) (A) (A) (A) (A) (A)
                 (A) (A) (A) (A) (A) (A) (A) (A) (A) (A) (A) (A)
                 (A) (A) (A) (A) (A) (A) (A) (A) (A) (A) (A) (A)
                 (A) (A) (A) (A) (A) (A) (A) (A) (A) (A) (A) (A)
                 (A) (A) (A) (A) (A) (A) (A) (A) (A) (A) (A) (A)
                 (A) (A) (A) (A) (A) (A) (A) (A) (A) (A) (A) (A)
                 (A) (A) (A) (A) (A) (A) (A) (A) (A) (A) (A) (A)
                 (A) (A) (A) (A) (A) (A) (A) (A) (A) (A) (A) (A)
                 (A) (A) (A) (A) (A) (A) (A) (A) (A) (A) (A) (A)
                 (A) (A) (A) (A) (A) (A) (A) (A) (A) (A) (A) (A)
                 (A) (A) (A) (A) (A) (A) (A) (A) (A) (A) (A) (A)
                 (A) (A) (A) (A) (A) (A) (A) (A) (A) (A) (A) (A)
                 (A) (A) (A) (A) (A) (A) (A) (A) (A) (A) (A) (A)
                 (A) (A) (A) (A) (A) (A) (A) (A) (A) (A) (A) (A)
                 (A) (A) (A) (A) (A) (A) (A) (A) (A) (A) (A) (A)
                 (A) (A) (A) (A) (A) (A) (A) (A) (A) (A) (A) (A)
                 (A) (A) (A) (A) (A) (A) (A) (A) (A) (A) (A) (A)
                 (A) (A) (A) (A) (A) (A) (A) (A) (A) (A) (A) (A)
                 (A) (A) (A) (A) (A) (A) (A) (A) (A) (A) (A) (A)
                 (A) (A) (A) (A) (A) (A) (A) (A) (A) (A) (A) (A)
                 (A) (A) (A) (A) (A) (A) (A) (A) (A) (A) (A) (A)
                 (A) (A) (A) (A) (A) (A) (A) (A) (A) (A) (A) (A)
                 (A) (A) (A) (A) (A) (A) (A) (A) (A) (A) (A) (A)
                 (A) (A) (A) (A) (A) (A) (A) (A) (A) (A) (A) (A)
                 (A) (A) (A) (A) (A)
 The electronic state is 1-A.
 Alpha  occ. eigenvalues --  -19.18690 -14.56732 -14.56608 -14.48739 -10.37059
 Alpha  occ. eigenvalues --  -10.36846 -10.36843 -10.36304 -10.35643 -10.35486
 Alpha  occ. eigenvalues --  -10.35439 -10.35003 -10.34967 -10.34427 -10.29998
 Alpha  occ. eigenvalues --  -10.29682 -10.29379  -4.13922  -2.37715  -2.37165
 Alpha  occ. eigenvalues --   -2.36758  -1.12758  -1.10990  -1.09493  -1.06029
 Alpha  occ. eigenvalues --   -0.94367  -0.89542  -0.87657  -0.86616  -0.86489
 Alpha  occ. eigenvalues --   -0.83875  -0.83718  -0.79913  -0.77549  -0.76415
 Alpha  occ. eigenvalues --   -0.74877  -0.70029  -0.66292  -0.64315  -0.63478
 Alpha  occ. eigenvalues --   -0.63043  -0.62075  -0.61696  -0.60607  -0.59611
 Alpha  occ. eigenvalues --   -0.57464  -0.56090  -0.55829  -0.55052  -0.53899
 Alpha  occ. eigenvalues --   -0.53674  -0.53376  -0.52468  -0.52012  -0.51860
 Alpha  occ. eigenvalues --   -0.51496  -0.51276  -0.50711  -0.50334  -0.50207
 Alpha  occ. eigenvalues --   -0.50065  -0.49238  -0.48202  -0.47818  -0.45832
 Alpha  occ. eigenvalues --   -0.45441  -0.44373  -0.42565  -0.40771  -0.39930
 Alpha  occ. eigenvalues --   -0.38285  -0.36618  -0.31761  -0.30045
 Alpha virt. eigenvalues --   -0.04845  -0.00576   0.02570   0.03260   0.07251
 Alpha virt. eigenvalues --    0.09865   0.10188   0.10608   0.11446   0.12036
 Alpha virt. eigenvalues --    0.12918   0.13360   0.13425   0.14291   0.14518
 Alpha virt. eigenvalues --    0.14623   0.14681   0.15500   0.16193   0.17100
 Alpha virt. eigenvalues --    0.17635   0.17773   0.18186   0.18338   0.19169
 Alpha virt. eigenvalues --    0.19251   0.19708   0.20153   0.20320   0.20608
 Alpha virt. eigenvalues --    0.21014   0.21347   0.22368   0.22943   0.23601
 Alpha virt. eigenvalues --    0.24157   0.24852   0.25361   0.25700   0.26404
 Alpha virt. eigenvalues --    0.27174   0.27577   0.27950   0.28992   0.29237
 Alpha virt. eigenvalues --    0.30016   0.30526   0.30859   0.31240   0.31543
 Alpha virt. eigenvalues --    0.32331   0.32771   0.33147   0.33755   0.34000
 Alpha virt. eigenvalues --    0.34218   0.35118   0.35366   0.36310   0.36665
 Alpha virt. eigenvalues --    0.37464   0.38114   0.38757   0.39096   0.39668
 Alpha virt. eigenvalues --    0.40108   0.40653   0.40891   0.41950   0.42569
 Alpha virt. eigenvalues --    0.42849   0.43209   0.43722   0.44103   0.44334
 Alpha virt. eigenvalues --    0.44590   0.45050   0.45248   0.45904   0.46706
 Alpha virt. eigenvalues --    0.46893   0.47015   0.47480   0.47743   0.47984
 Alpha virt. eigenvalues --    0.48433   0.48768   0.49216   0.49348   0.49582
 Alpha virt. eigenvalues --    0.49751   0.50385   0.50450   0.50991   0.51577
 Alpha virt. eigenvalues --    0.51898   0.52344   0.52896   0.53284   0.53610
 Alpha virt. eigenvalues --    0.54332   0.54975   0.55543   0.55921   0.56308
 Alpha virt. eigenvalues --    0.56758   0.57194   0.57698   0.58591   0.58901
 Alpha virt. eigenvalues --    0.59400   0.59855   0.60245   0.61256   0.61432
 Alpha virt. eigenvalues --    0.61941   0.62302   0.63293   0.64572   0.64835
 Alpha virt. eigenvalues --    0.65327   0.65794   0.66379   0.67375   0.68253
 Alpha virt. eigenvalues --    0.69523   0.69779   0.70153   0.71438   0.72096
 Alpha virt. eigenvalues --    0.72801   0.73404   0.73774   0.74695   0.75218
 Alpha virt. eigenvalues --    0.76164   0.76772   0.77967   0.78522   0.79206
 Alpha virt. eigenvalues --    0.79687   0.80464   0.81359   0.81742   0.82442
 Alpha virt. eigenvalues --    0.83011   0.83365   0.84281   0.85061   0.86006
 Alpha virt. eigenvalues --    0.86675   0.87110   0.88622   0.89328   0.89630
 Alpha virt. eigenvalues --    0.90223   0.90887   0.91751   0.92144   0.92650
 Alpha virt. eigenvalues --    0.92843   0.93555   0.95241   0.95278   0.95843
 Alpha virt. eigenvalues --    0.96267   0.96584   0.98188   0.98373   0.98583
 Alpha virt. eigenvalues --    0.99682   0.99965   1.00414   1.01098   1.01244
 Alpha virt. eigenvalues --    1.02063   1.03002   1.03291   1.03585   1.04165
 Alpha virt. eigenvalues --    1.04459   1.04877   1.05434   1.06038   1.06262
 Alpha virt. eigenvalues --    1.07059   1.07239   1.08556   1.08855   1.09464
 Alpha virt. eigenvalues --    1.09808   1.10482   1.11435   1.11975   1.12765
 Alpha virt. eigenvalues --    1.13397   1.14218   1.14565   1.15686   1.15955
 Alpha virt. eigenvalues --    1.16884   1.17331   1.17435   1.18127   1.19116
 Alpha virt. eigenvalues --    1.19658   1.20296   1.20869   1.21326   1.22141
 Alpha virt. eigenvalues --    1.22522   1.23619   1.24146   1.25087   1.25767
 Alpha virt. eigenvalues --    1.26130   1.26522   1.27537   1.28505   1.29040
 Alpha virt. eigenvalues --    1.29578   1.29930   1.30160   1.31168   1.31495
 Alpha virt. eigenvalues --    1.32324   1.32537   1.33081   1.33342   1.34389
 Alpha virt. eigenvalues --    1.34875   1.35785   1.36097   1.36881   1.37213
 Alpha virt. eigenvalues --    1.37833   1.38069   1.38625   1.39165   1.39471
 Alpha virt. eigenvalues --    1.40757   1.41103   1.41715   1.42065   1.42746
 Alpha virt. eigenvalues --    1.43080   1.43445   1.44360   1.44846   1.45296
 Alpha virt. eigenvalues --    1.45994   1.46796   1.48465   1.48793   1.48941
 Alpha virt. eigenvalues --    1.49421   1.50064   1.50617   1.51471   1.51760
 Alpha virt. eigenvalues --    1.52512   1.53475   1.53839   1.54823   1.55227
 Alpha virt. eigenvalues --    1.56223   1.57036   1.57232   1.57938   1.58070
 Alpha virt. eigenvalues --    1.58964   1.59381   1.60091   1.60952   1.61127
 Alpha virt. eigenvalues --    1.61867   1.62505   1.63597   1.63781   1.64815
 Alpha virt. eigenvalues --    1.65190   1.65500   1.66652   1.67305   1.68290
 Alpha virt. eigenvalues --    1.68920   1.69408   1.69831   1.70503   1.70658
 Alpha virt. eigenvalues --    1.71263   1.71937   1.72610   1.73718   1.74154
 Alpha virt. eigenvalues --    1.74636   1.75154   1.76407   1.77444   1.78776
 Alpha virt. eigenvalues --    1.79205   1.79816   1.81331   1.81700   1.83051
 Alpha virt. eigenvalues --    1.83994   1.84028   1.84864   1.84895   1.85836
 Alpha virt. eigenvalues --    1.87475   1.88420   1.89821   1.90057   1.91656
 Alpha virt. eigenvalues --    1.92100   1.92593   1.94318   1.95105   1.95437
 Alpha virt. eigenvalues --    1.97031   1.97347   1.97610   1.99877   2.00379
 Alpha virt. eigenvalues --    2.01648   2.03730   2.04566   2.05351   2.05669
 Alpha virt. eigenvalues --    2.06236   2.08432   2.09372   2.10940   2.13371
 Alpha virt. eigenvalues --    2.15506   2.17168   2.17685   2.20063   2.20790
 Alpha virt. eigenvalues --    2.21745   2.22111   2.22510   2.23131   2.24358
 Alpha virt. eigenvalues --    2.25552   2.26313   2.27017   2.28102   2.29147
 Alpha virt. eigenvalues --    2.30424   2.31453   2.31900   2.33322   2.34481
 Alpha virt. eigenvalues --    2.37272   2.38783   2.39098   2.41190   2.42291
 Alpha virt. eigenvalues --    2.42580   2.46005   2.48362   2.49468   2.54147
 Alpha virt. eigenvalues --    2.54377   2.55949   2.57675   2.59080   2.59485
 Alpha virt. eigenvalues --    2.59957   2.60990   2.61716   2.62441   2.62832
 Alpha virt. eigenvalues --    2.64154   2.65516   2.66698   2.67308   2.68422
 Alpha virt. eigenvalues --    2.69630   2.70351   2.71127   2.71371   2.72020
 Alpha virt. eigenvalues --    2.73998   2.74536   2.75808   2.76722   2.77127
 Alpha virt. eigenvalues --    2.77570   2.78187   2.79611   2.80478   2.81253
 Alpha virt. eigenvalues --    2.82036   2.82463   2.83601   2.83970   2.84716
 Alpha virt. eigenvalues --    2.85315   2.85831   2.85933   2.86683   2.86999
 Alpha virt. eigenvalues --    2.88217   2.88819   2.89132   2.89202   2.89938
 Alpha virt. eigenvalues --    2.90677   2.91203   2.92304   2.93065   2.93213
 Alpha virt. eigenvalues --    2.94150   2.94568   2.95071   2.95776   2.95907
 Alpha virt. eigenvalues --    2.97292   2.98188   2.98470   2.99003   2.99080
 Alpha virt. eigenvalues --    2.99881   3.00568   3.01441   3.01490   3.02037
 Alpha virt. eigenvalues --    3.02733   3.03124   3.03787   3.04242   3.04721
 Alpha virt. eigenvalues --    3.05480   3.06142   3.06998   3.07843   3.08286
 Alpha virt. eigenvalues --    3.08924   3.09044   3.09666   3.10461   3.11072
 Alpha virt. eigenvalues --    3.11675   3.12669   3.13438   3.14419   3.15348
 Alpha virt. eigenvalues --    3.15652   3.15726   3.16807   3.17216   3.17646
 Alpha virt. eigenvalues --    3.18980   3.19331   3.19521   3.20250   3.21040
 Alpha virt. eigenvalues --    3.21851   3.22206   3.23167   3.23504   3.23835
 Alpha virt. eigenvalues --    3.24791   3.25331   3.25733   3.26344   3.27082
 Alpha virt. eigenvalues --    3.27251   3.28072   3.28709   3.29988   3.30004
 Alpha virt. eigenvalues --    3.30755   3.31333   3.32017   3.33152   3.33869
 Alpha virt. eigenvalues --    3.34597   3.35322   3.35617   3.36108   3.37297
 Alpha virt. eigenvalues --    3.37494   3.38623   3.38856   3.39914   3.40477
 Alpha virt. eigenvalues --    3.40797   3.41384   3.41980   3.42336   3.43108
 Alpha virt. eigenvalues --    3.43783   3.44315   3.44693   3.45175   3.45727
 Alpha virt. eigenvalues --    3.46334   3.47056   3.47176   3.47917   3.49022
 Alpha virt. eigenvalues --    3.49519   3.49788   3.50396   3.51853   3.52158
 Alpha virt. eigenvalues --    3.52471   3.53478   3.53862   3.54305   3.55247
 Alpha virt. eigenvalues --    3.55632   3.56822   3.57263   3.57696   3.57770
 Alpha virt. eigenvalues --    3.58678   3.59614   3.59873   3.60285   3.61154
 Alpha virt. eigenvalues --    3.61809   3.62840   3.63861   3.64120   3.65278
 Alpha virt. eigenvalues --    3.65940   3.66632   3.67271   3.67461   3.68729
 Alpha virt. eigenvalues --    3.68946   3.69294   3.70016   3.71345   3.71428
 Alpha virt. eigenvalues --    3.72233   3.72889   3.73308   3.73843   3.74253
 Alpha virt. eigenvalues --    3.74651   3.75140   3.75838   3.75910   3.76953
 Alpha virt. eigenvalues --    3.78159   3.78570   3.78874   3.79310   3.80129
 Alpha virt. eigenvalues --    3.81429   3.81963   3.82434   3.82902   3.83133
 Alpha virt. eigenvalues --    3.83450   3.84486   3.85458   3.85814   3.86727
 Alpha virt. eigenvalues --    3.87790   3.88681   3.90239   3.91472   3.91999
 Alpha virt. eigenvalues --    3.92403   3.92455   3.93257   3.94072   3.95035
 Alpha virt. eigenvalues --    3.95609   3.96072   3.97048   3.97860   3.97918
 Alpha virt. eigenvalues --    3.99674   4.00752   4.01232   4.01736   4.02306
 Alpha virt. eigenvalues --    4.02658   4.03445   4.03830   4.05000   4.06318
 Alpha virt. eigenvalues --    4.06915   4.08191   4.08685   4.09069   4.10579
 Alpha virt. eigenvalues --    4.10830   4.11147   4.12269   4.12849   4.14225
 Alpha virt. eigenvalues --    4.15162   4.15860   4.16246   4.16869   4.17176
 Alpha virt. eigenvalues --    4.17958   4.18038   4.18859   4.19839   4.20128
 Alpha virt. eigenvalues --    4.20381   4.20618   4.21435   4.21782   4.22020
 Alpha virt. eigenvalues --    4.23260   4.24482   4.24711   4.25070   4.25578
 Alpha virt. eigenvalues --    4.26039   4.26469   4.26853   4.27104   4.28005
 Alpha virt. eigenvalues --    4.28821   4.29018   4.29631   4.30201   4.30553
 Alpha virt. eigenvalues --    4.30900   4.31114   4.32857   4.33455   4.34047
 Alpha virt. eigenvalues --    4.34454   4.35185   4.35502   4.36553   4.37153
 Alpha virt. eigenvalues --    4.37254   4.37875   4.38496   4.39136   4.39975
 Alpha virt. eigenvalues --    4.40688   4.41820   4.42908   4.43819   4.44126
 Alpha virt. eigenvalues --    4.44472   4.45286   4.46118   4.47753   4.48240
 Alpha virt. eigenvalues --    4.49625   4.49922   4.50089   4.51243   4.51563
 Alpha virt. eigenvalues --    4.53257   4.54475   4.55027   4.56407   4.58815
 Alpha virt. eigenvalues --    4.59218   4.60186   4.61384   4.61759   4.64185
 Alpha virt. eigenvalues --    4.64496   4.67614   4.68132   4.69963   4.70788
 Alpha virt. eigenvalues --    4.71119   4.72744   4.73030   4.74486   4.75061
 Alpha virt. eigenvalues --    4.75522   4.76467   4.76836   4.77760   4.78341
 Alpha virt. eigenvalues --    4.79200   4.80241   4.80743   4.81339   4.83067
 Alpha virt. eigenvalues --    4.84362   4.86125   4.86371   4.88604   4.89412
 Alpha virt. eigenvalues --    4.90281   4.91448   4.93367   4.93963   4.94819
 Alpha virt. eigenvalues --    4.95635   4.97492   5.00314   5.01756   5.04752
 Alpha virt. eigenvalues --    5.05771   5.06290   5.07032   5.08461   5.10064
 Alpha virt. eigenvalues --    5.10488   5.12083   5.13792   5.14108   5.14704
 Alpha virt. eigenvalues --    5.15665   5.16715   5.17320   5.17671   5.18420
 Alpha virt. eigenvalues --    5.18744   5.19089   5.19436   5.20600   5.21235
 Alpha virt. eigenvalues --    5.21986   5.22749   5.23022   5.24191   5.24869
 Alpha virt. eigenvalues --    5.25269   5.26281   5.26341   5.27024   5.28318
 Alpha virt. eigenvalues --    5.29331   5.29917   5.30556   5.30861   5.31816
 Alpha virt. eigenvalues --    5.32435   5.33057   5.34060   5.34250   5.35249
 Alpha virt. eigenvalues --    5.36023   5.36267   5.36698   5.36955   5.37723
 Alpha virt. eigenvalues --    5.39704   5.40015   5.41355   5.41433   5.42376
 Alpha virt. eigenvalues --    5.42705   5.43527   5.44100   5.46381   5.47092
 Alpha virt. eigenvalues --    5.47992   5.49259   5.50735   5.50829   5.52570
 Alpha virt. eigenvalues --    5.53445   5.54318   5.54534   5.55388   5.55993
 Alpha virt. eigenvalues --    5.57576   5.58036   5.58967   5.60657   5.60929
 Alpha virt. eigenvalues --    5.61874   5.62390   5.63946   5.64550   5.65206
 Alpha virt. eigenvalues --    5.66931   5.67833   5.68386   5.68801   5.69390
 Alpha virt. eigenvalues --    5.70873   5.71405   5.72341   5.73256   5.75850
 Alpha virt. eigenvalues --    5.76424   5.76752   5.77553   5.78410   5.79015
 Alpha virt. eigenvalues --    5.79548   5.80404   5.80629   5.81964   5.83385
 Alpha virt. eigenvalues --    5.86412   5.86988   5.91915   5.93489   5.99722
 Alpha virt. eigenvalues --    6.07607   6.08533   6.09686   6.12207   6.16012
 Alpha virt. eigenvalues --    6.17785   6.22835   6.25877   6.28091   6.33392
 Alpha virt. eigenvalues --    6.38780   6.49600   6.50218   6.73813   6.87561
 Alpha virt. eigenvalues --    6.91668   7.13474   7.23734  22.97503  23.23058
 Alpha virt. eigenvalues --   23.27260  23.46408  23.49072  23.57930  23.64508
 Alpha virt. eigenvalues --   23.77866  23.82087  23.85173  23.87212  23.90084
 Alpha virt. eigenvalues --   23.93002  32.82488  32.87172  33.08585  35.57759
 Alpha virt. eigenvalues --   36.93614  38.23710  44.11323  53.35541 285.22455
          Condensed to atoms (all electrons):
               1          2          3          4          5          6
     1  Pt  16.694104  -0.044436  -0.056046  -0.003529   0.003066  -0.005575
     2  C   -0.044436   5.883456  -0.159928  -0.327520   0.082331   0.093532
     3  C   -0.056046  -0.159928   5.514860   0.097938   0.060884   0.016726
     4  C   -0.003529  -0.327520   0.097938   6.213721  -0.130459   0.159196
     5  C    0.003066   0.082331   0.060884  -0.130459   5.704965   0.290920
     6  C   -0.005575   0.093532   0.016726   0.159196   0.290920   4.710978
     7  H    0.000888  -0.013853  -0.005341   0.412459   0.019608  -0.051099
     8  H    0.000658  -0.007148  -0.019859   0.024719   0.406258  -0.047064
     9  O    0.000294   0.050072   0.021244  -0.167249  -0.103346   0.582376
    10  N    0.127644   0.314954   0.309041  -0.103855  -0.077449  -0.005680
    11  C   -0.026405   0.107098   0.001854   0.028906   0.002208  -0.012291
    12  H   -0.007172  -0.053737   0.000311  -0.000443  -0.000053   0.000129
    13  H    0.011201  -0.028753   0.000139  -0.008291  -0.000332   0.001397
    14  C   -0.022494  -0.005231   0.155071   0.013566  -0.021438  -0.014700
    15  H   -0.008364   0.000409  -0.051578  -0.000099   0.000827   0.000238
    16  H    0.012016   0.000241  -0.030908  -0.000474  -0.007928   0.001567
    17  N    0.164817   0.000962   0.002620  -0.000116   0.000237  -0.000033
    18  N    0.172427   0.001995   0.004959   0.000437   0.002709  -0.000232
    19  C    0.252452   0.003751   0.003255   0.000176   0.000105  -0.000018
    20  H   -0.033660  -0.000172  -0.000131   0.000001  -0.000001   0.000001
    21  H   -0.034832  -0.000271  -0.000092   0.000008   0.000001  -0.000001
    22  H   -0.035401  -0.000092  -0.000340   0.000003   0.000003  -0.000001
    23  C   -0.024180   0.011595  -0.000325   0.001703  -0.000017  -0.000129
    24  H   -0.011264  -0.000881  -0.000041   0.000030   0.000001  -0.000001
    25  H    0.010272   0.002280   0.000017   0.000020  -0.000002  -0.000000
    26  H   -0.008699  -0.002398  -0.000003  -0.000262  -0.000002   0.000009
    27  C   -0.020850  -0.001056  -0.001374   0.003647  -0.000007  -0.000021
    28  H    0.008460  -0.003679   0.000029   0.000097   0.000013  -0.000025
    29  H   -0.009011  -0.000933   0.000032  -0.000156  -0.000023   0.000021
    30  H   -0.003673   0.011381  -0.001122   0.004068   0.000083  -0.000376
    31  C   -0.023707  -0.000218   0.012461   0.000008   0.000601  -0.000064
    32  H    0.009155   0.000019   0.002802  -0.000001   0.000004  -0.000001
    33  H   -0.002852  -0.000025  -0.000843   0.000002   0.000029  -0.000001
    34  H   -0.018891   0.000027  -0.002232  -0.000000  -0.000174   0.000008
    35  C   -0.029246  -0.001184   0.001102  -0.000146   0.004037   0.000011
    36  H   -0.014670   0.000030  -0.001057  -0.000019  -0.000128   0.000016
    37  H    0.008561   0.000026  -0.003310   0.000019   0.000046  -0.000030
    38  H   -0.000124  -0.001071   0.010311   0.000068   0.002982  -0.000192
    39  C    0.217715  -0.000492  -0.001198   0.000965   0.000843  -0.000034
    40  H   -0.031778  -0.001097   0.000580   0.000090   0.000075  -0.000001
    41  H   -0.021494   0.001434  -0.003408   0.000752   0.000130  -0.000091
    42  H   -0.022887  -0.000238   0.000091   0.000026   0.000032  -0.000002
               7          8          9         10         11         12
     1  Pt   0.000888   0.000658   0.000294   0.127644  -0.026405  -0.007172
     2  C   -0.013853  -0.007148   0.050072   0.314954   0.107098  -0.053737
     3  C   -0.005341  -0.019859   0.021244   0.309041   0.001854   0.000311
     4  C    0.412459   0.024719  -0.167249  -0.103855   0.028906  -0.000443
     5  C    0.019608   0.406258  -0.103346  -0.077449   0.002208  -0.000053
     6  C   -0.051099  -0.047064   0.582376  -0.005680  -0.012291   0.000129
[...]
 7074,0.00008843,-0.00005741,0.00006077,-0.00002213,0.00000432,-0.00000
 379,-0.00003120,0.00000515,-0.00001289,0.00130161,0.00056948,0.0009418
 9,0.00009258,-0.00002210,0.00014816,-0.00018351,0.00004703,-0.00008631
 ,-0.00000139,-0.00037792,-0.00016289,0.02292650,0.02342131,-0.02035723
 ,0.00001284,0.00002441,-0.00009913,-0.00002538,-0.00004295,-0.00000453
 ,-0.00001363,0.00000202,0.00000588,-0.00003962,0.00001627,-0.00000912,
 -0.00004424,-0.00006034,0.00002343,0.00000112,0.00000033,0.00000071,0.
 00002244,-0.00001592,-0.00001360,0.00000395,-0.00000332,-0.00000371,0.
 00013280,0.00018801,-0.00028669,-0.00002347,0.00001433,0.00001831,-0.0
 0000385,-0.00000159,0.00001151,0.00000898,-0.00004216,0.00022557,-0.00
 134461,-0.00290098,-0.00607086,-0.00019522,-0.00002354,0.00006921,0.00
 008588,-0.00013737,0.00015134,0.00126287,0.00141404,-0.00070922,0.0670
 9665,0.07272794,-0.10082459,-0.00686486,-0.00919143,0.00722273,-0.0029
 1745,-0.00223037,0.00283982,-0.07977614,-0.08454429,0.12225492,-0.0346
 1382,-0.00020378,0.04063176,0.00161255,0.00161472,-0.00050680,0.001837
 96,-0.00136595,-0.00056311,-0.00067489,0.00046391,0.00023621,-0.000548
 50,-0.00055366,0.00021535,0.00057018,0.00002791,-0.00015984,0.00007672
 ,-0.00001450,0.00003000,0.00006975,0.00002952,0.00003702,-0.00060560,-
 0.00004876,0.00010458,-0.00464055,-0.00032211,-0.00335574,-0.00022235,
 0.00019211,-0.00033014,-0.00004197,-0.00036842,-0.00011088,0.00009630,
 0.00012591,-0.00001673,-0.00034092,-0.00010934,-0.00026692,0.00017081,
 0.00026935,0.00032077,0.00015380,-0.00012938,0.00002411,0.00057391,-0.
 00196375,-0.00013591,-0.00007774,0.00154214,0.00094625,0.00002744,0.00
 012318,-0.00497449,0.00115089,0.00012660,0.00045646,-0.00027328,-0.000
 53562,-0.00016780,-0.00029164,0.00044268,-0.00005925,0.00035197,-0.001
 02805,-0.00076295,0.00001559,0.00004978,0.00000015,-0.00026429,0.00016
 309,0.00052100,-0.00012378,0.00097561,0.00071237,0.00005876,-0.0006966
 4,0.00012485,0.00002159,0.00036854,0.00009216,0.00025526,-0.00018236,0
 .00000053,-0.00029609,0.00002829,0.00013236,0.00005179,0.00146758,-0.0
 0107132,-0.00034426,-0.00027585,0.00070296,0.00002663,-0.00014184,-0.0
 0017836,-0.00003476,-0.00014848,0.00106387,-0.00015527,0.00049568,0.00
 021269,0.00019533,0.00018525,-0.00002301,0.00011587,-0.00029917,0.0000
 3739,-0.00021867,0.00000564,0.00005342,0.54424270,0.00050603,-0.043304
 74,0.00511316,0.00014912,0.00033570,0.00027877,-0.00000599,-0.00009612
 ,-0.00034817,0.00020587,-0.00009620,-0.00004011,-0.00025413,-0.0001223
 9,0.00007515,-0.00002376,0.00036863,-0.00000952,-0.00000957,-0.0000052
 6,-0.00003573,0.00000883,-0.00000249,0.00003213,0.00000081,-0.00009387
 ,0.00000472,-0.00076754,0.00114264,-0.00023151,-0.00026026,0.00057125,
 -0.00046014,0.00001255,-0.00048527,-0.00009716,0.00025290,0.00012580,0
 .00004470,0.00011267,0.00039276,0.00038863,-0.00031002,0.00002580,-0.0
 0016940,-0.00023955,0.00005988,-0.00008649,-0.00208311,0.00346107,0.00
 568252,0.00162879,0.00391975,-0.00575983,-0.00010838,0.00025846,0.0000
 8965,0.00010536,-0.00048341,0.00013763,0.00066694,-0.00000869,0.000464
 23,-0.00081368,-0.00016706,-0.00074510,0.00067701,-0.00062972,-0.00132
 193,-0.00001306,-0.00001450,0.00004747,-0.00015922,0.00037246,0.000414
 14,-0.00012283,-0.00117317,0.00112941,-0.00051491,0.00007220,0.0001122
 2,0.00019830,-0.00015077,-0.00012638,-0.00004662,0.00008311,-0.0001598
 4,0.00029702,-0.00025544,-0.00045127,-0.00028969,-0.00091828,0.0009739
 9,0.00010427,0.00035073,-0.00041449,0.00000616,-0.00002454,-0.00002140
 ,0.00047442,-0.00170995,-0.00085508,0.00055125,0.00035105,0.00004850,0
 .00007158,0.00013495,0.00015800,-0.00014712,-0.00027215,0.00012441,-0.
 00032385,-0.00033106,0.00044762,-0.00566247,0.57707377,0.03133396,0.00
 373806,-0.10885889,0.00146858,0.00196515,-0.00053006,0.00166769,-0.001
 72070,-0.00051063,-0.00119976,0.00046133,0.00019127,-0.00111734,-0.000
 64748,0.00018437,0.00169196,0.00015420,-0.00011007,-0.00004121,-0.0000
 4586,0.00009093,-0.00005152,0.00003548,0.00009569,-0.00163477,-0.00014
 560,0.00017007,0.00074467,0.00027133,-0.00085028,0.00097437,0.00008546
 ,0.00090392,-0.00019594,-0.00021493,-0.00041033,-0.00026079,-0.0002079
 6,-0.00012140,0.00102962,0.00003286,0.00095984,-0.00007320,0.00031046,
 -0.00034175,-0.00031619,0.00017845,-0.00016239,-0.00013941,0.00220417,
 -0.00025680,0.00038046,-0.00184240,-0.00064531,-0.00267029,-0.00010077
 ,-0.00690141,0.00044326,0.00006987,0.00034542,0.00154207,-0.00037514,0
 .00050490,0.00150505,0.00066028,0.00050517,-0.00072258,0.00069367,0.00
 132549,0.00006036,-0.00004975,0.00017112,0.00051452,-0.00047502,-0.000
 53513,-0.00017146,-0.00045525,-0.00059339,-0.00086929,0.00051697,-0.00
 032554,0.00007519,-0.00045580,0.00016448,0.00000204,0.00014269,0.00000
 018,0.00027608,-0.00020632,-0.00033557,-0.00079432,-0.00069903,0.00121
 074,0.00040821,0.00056811,-0.00045547,0.00006456,0.00005138,0.00013091
 ,-0.00006853,0.00034525,-0.00018770,-0.00071835,-0.00061771,-0.0005072
 7,0.00003038,-0.00013301,-0.00000240,-0.00001962,0.00044504,0.00017694
 ,0.00023213,0.00019396,-0.00028254,0.07689205,0.01296486,0.33565957,-0
 .00335396,0.00362060,0.00588049,0.00009639,0.00039921,-0.00004997,0.00
 033615,-0.00021968,-0.00016340,-0.00010793,-0.00005060,0.00002825,-0.0
 0012209,-0.00008803,0.00002910,0.00017043,0.00006326,-0.00002555,-0.00
 001474,-0.00000673,0.00000566,-0.00000907,0.00000258,0.00000493,-0.000
 15951,-0.00003175,0.00002114,0.00000259,-0.00017306,-0.00014748,-0.000
 08519,-0.00005544,0.00012341,-0.00014058,-0.00009328,-0.00006414,-0.00
 000626,-0.00002206,-0.00005366,0.00003796,0.00003267,-0.00010116,0.000
 02326,-0.00010297,0.00005274,-0.00000263,-0.00000320,0.00004776,-0.000
 17300,0.00023467,-0.00000236,0.00001866,-0.00033596,0.00000867,-0.0002
 2892,-0.00014899,-0.00037000,0.00002122,-0.00001718,0.00005896,-0.0001
 8292,0.00007036,-0.00049162,0.00013251,-0.00001038,0.00003587,0.000270
 62,0.00052982,0.00070298,-0.00001701,0.00014535,-0.00022620,0.00004698
 ,-0.00000060,-0.00048687,0.00014013,-0.00074392,-0.00017846,0.00004489
 ,-0.00002847,0.00008222,-0.00000041,-0.00001897,-0.00001351,-0.0000052
 2,0.00001714,-0.00000346,0.00002726,-0.00001437,-0.00005631,0.00007147
 ,-0.00039748,0.00021404,0.00007990,0.00001648,-0.00019396,0.00000857,0
 .00003587,0.00008152,-0.00013268,0.00003792,-0.00026352,-0.00002365,-0
 .00001598,-0.00004435,0.00000503,-0.00001834,-0.00000101,0.00000094,0.
 00002898,0.00000576,0.00003024,0.00002832,-0.00005145,-0.13485723,0.13
 205807,0.02057305,0.13615591,-0.00085563,0.00521834,0.00068898,0.00007
 696,0.00022407,-0.00006838,0.00012843,-0.00021107,-0.00002311,-0.00007
 637,0.00000136,0.00002728,-0.00002500,0.00001549,0.00002049,0.00005238
 ,-0.00004294,-0.00001087,-0.00000169,-0.00000023,0.00001163,-0.0000029
 1,0.00000059,0.00000383,-0.00004555,0.00000804,0.00000569,-0.00033008,
 -0.00013415,-0.00040370,0.00002459,-0.00014908,0.00004075,-0.00003090,
 -0.00000302,-0.00008081,-0.00004201,-0.00000216,-0.00005281,-0.0001358
 7,-0.00000813,-0.00003166,-0.00005442,0.00002524,-0.00001441,0.0000253
 8,-0.00000764,0.00002102,0.00026785,-0.00158110,-0.00024905,-0.0001428
 5,-0.00068748,0.00056078,-0.00018332,-0.00006726,0.00101823,0.00025102
 ,0.00020814,0.00011936,-0.00013438,0.00005217,-0.00005863,0.00005784,0
 .00010353,-0.00005807,-0.00095627,-0.00139688,0.00197813,0.00009871,-0
 .00006421,0.00001785,-0.00001350,0.00013207,-0.00027352,-0.00036170,-0
 .00237483,0.00089195,0.00011307,-0.00017037,0.00011817,-0.00001519,0.0
 0006868,0.00007427,0.00000846,0.00001280,0.00003179,0.00002487,0.00001
 655,-0.00004377,0.00021768,-0.00032025,0.00044670,0.00008627,0.0000088
 3,-0.00023959,0.00000362,0.00005413,0.00005765,-0.00009422,0.00013601,
 -0.00039928,-0.00005429,0.00008925,0.00013666,-0.00000423,-0.00002085,
 -0.00000969,0.00001887,0.00004179,-0.00001705,0.00004324,0.00005117,-0
 .00007922,0.12797579,-0.24440520,-0.04005250,-0.13935434,0.26116321,0.
 01263247,-0.01576417,-0.01381238,-0.00040523,-0.00054463,0.00018446,-0
 .00043527,0.00050411,0.00001905,0.00031812,-0.00008789,-0.00007114,0.0
 0018944,0.00012415,-0.00004327,-0.00037614,0.00004343,0.00003946,0.000
 00513,0.00000822,-0.00002258,0.00001168,-0.00001013,-0.00001313,0.0003
 5868,0.00001667,-0.00004300,0.00004912,-0.00001334,0.00090150,-0.00009
 716,0.00022287,-0.00019479,0.00005453,0.00004568,0.00006046,0.00009956
 ,0.00004315,0.00006082,-0.00017616,0.00005787,-0.00014830,0.00011169,-
 0.00013715,0.00001192,0.00001953,-0.00001484,0.00000862,-0.00025561,0.
 00133053,0.00064637,0.00008573,0.00121374,-0.00094301,0.00099447,-0.00
 072587,-0.00090797,-0.00082973,-0.00003406,0.00017436,-0.00076620,0.00
 042840,-0.00045753,-0.00035883,-0.00008380,-0.00017817,0.00077602,0.00
 020670,-0.00095638,-0.00013439,0.00029649,-0.00039733,-0.00035879,-0.0
 0005922,0.00048735,0.00029872,0.00090583,0.00101754,0.00006276,0.00019
 329,-0.00017721,0.00001511,-0.00002292,-0.00008006,-0.00000260,-0.0000
 3062,-0.00005654,-0.00005741,0.00000725,0.00003549,0.00001402,0.000069
 48,0.00000500,-0.00001969,-0.00004456,0.00001286,-0.00000801,0.0000119
 4,0.00003998,-0.00004239,-0.00028240,-0.00006292,0.00027293,0.00013596
 ,0.00016871,0.00000749,0.00005522,0.00003652,-0.00004314,-0.00016488,0
 .00000496,-0.00012091,-0.00011023,0.00017257,0.02586743,-0.04639988,-0
 .04433330,-0.02640423,0.04085497,0.05018546,0.00496118,-0.00105211,0.0
 0778180,-0.00044679,-0.00025024,0.00028244,-0.00053880,0.00004631,0.00
 043844,0.00012783,-0.00013476,-0.00008924,0.00005896,0.00016946,-0.000
 09041,-0.00009797,-0.00000185,0.00005594,-0.00003079,-0.00000005,-0.00
 002868,-0.00002920,-0.00000463,-0.00003666,0.00011887,0.00001120,-0.00
 001929,-0.00066220,-0.00003213,0.00117735,0.00007025,-0.00013796,0.000
 27449,0.00009447,-0.00028149,0.00014548,-0.00002005,-0.00002090,-0.000
 03778,0.00012806,0.00005344,0.00032362,-0.00049609,0.00026359,0.000199
 33,-0.00003605,0.00001973,-0.00012352,-0.00005183,0.00016413,0.0002147
 9,0.00004383,0.00013401,0.00011567,-0.00005864,0.00002057,-0.00055713,
 -0.00009169,-0.00001307,-0.00026981,0.00036413,-0.00001823,0.00021405,
 0.00030470,0.00006891,0.00016396,-0.00010755,0.00014108,0.00019062,0.0
 0001371,-0.00004795,0.00007439,0.00006693,-0.00002290,-0.00011027,-0.0
 0011040,-0.00008598,-0.00019653,-0.00008120,0.00004084,0.00003289,0.00
 000947,-0.00006332,-0.00000270,-0.00005101,0.00003106,-0.00000210,0.00
 006439,-0.00001247,-0.00004547,-0.00013880,-0.00010163,0.00015630,0.00
 006450,0.00003136,-0.00008940,0.00000353,0.00005403,0.00009801,-0.0003
 2925,-0.00008833,-0.00023413,-0.00009785,0.,0.00003244,-0.00003983,-0.
 00003253,-0.00000685,-0.00000035,0.00004081,0.00001730,0.00005021,0.00
 000454,-0.00002194,-0.22757658,0.01149167,-0.13616870,-0.00971766,-0.0
 0155184,-0.00967133,0.24447873,0.00021892,0.00114700,0.00124500,-0.000
 19990,0.00001442,0.00015424,0.00005871,0.00026149,-0.00005060,0.000031
 75,-0.00006858,-0.00001203,0.00000302,-0.00009199,-0.00000233,-0.00000
 798,0.00007441,0.00000524,-0.00000203,-0.00000493,-0.00000134,0.000006
 68,-0.00000189,0.00001321,0.00000081,-0.00002527,-0.00000230,0.0000164
 1,-0.00036081,-0.00013027,-0.00001794,-0.00024020,0.00045477,-0.000205
 03,-0.00066290,0.00041658,-0.00001550,0.00000159,-0.00006903,0.0000383
 0,0.00000821,-0.00027901,0.00026035,-0.00070004,-0.00002300,-0.0000058
 0,-0.00000393,0.00011922,-0.00002620,0.00005420,0.00000601,0.00001983,
 0.00007268,-0.00008169,0.00001104,-0.00020559,-0.00010773,0.00002054,0
 .00014556,-0.00004151,-0.00017017,0.00004644,-0.00006389,0.00019478,0.
 00015143,0.00012204,-0.00000592,-0.00015995,-0.00005808,-0.00004634,0.
 00007352,-0.00012739,-0.00006954,-0.00004083,0.00007049,0.00016776,0.0
 0008957,0.00008135,-0.00004525,0.00004467,-0.00003495,0.00001590,-0.00
 002372,-0.00000961,-0.00000246,0.00000690,-0.00001804,0.00000833,-0.00
 000461,-0.00000730,-0.00009403,0.00004705,-0.00014574,0.00005404,-0.00
 000529,0.00006652,0.00005289,0.00007134,0.00012101,-0.00002938,0.00006
 528,-0.00003147,0.00001670,0.00000369,-0.00004346,-0.00000213,0.000003
 69,0.00002476,-0.00001295,-0.00001013,0.00001674,-0.00000285,-0.000006
 20,0.00001702,0.01166133,-0.05333985,0.00731988,0.02037344,0.00170836,
 0.01597127,-0.01205575,0.04768994,-0.00764090,0.00179249,-0.02013352,0
 .00063212,0.00031622,-0.00031259,0.00074620,-0.00016539,-0.00031937,-0
 .00016282,0.00010887,0.00001173,-0.00012959,-0.00014391,0.00000734,0.0
 0014092,0.00000912,-0.00004574,0.00001412,-0.00000665,-0.00000972,0.00
 001369,0.00000990,-0.00000763,-0.00013756,-0.00001219,0.00003151,0.000
 38286,-0.00006349,0.00033709,-0.00018528,0.00012601,-0.00052386,0.0002
 3589,0.00056792,-0.00007413,0.00006085,0.00004985,0.00014088,-0.000155
 48,-0.00010058,-0.00040177,0.00034758,-0.00028704,-0.00011692,0.000074
 07,-0.00004392,0.00015631,-0.00002799,-0.00032437,-0.00021240,-0.00013
 305,0.00007142,-0.00006861,0.00074180,0.00005312,0.00050261,0.00017838
 ,0.00002926,0.00013620,-0.00027295,-0.00003410,-0.00012647,-0.00023290
 ,-0.00000129,-0.00009223,0.00019941,0.00009121,-0.00021642,0.00000935,
 -0.00001650,-0.00000840,-0.00006503,0.00007001,0.00007356,-0.00004238,
 0.00016591,0.00001987,0.00019379,-0.00013342,0.00002080,-0.00001854,0.
 00012041,0.00001151,0.00007659,-0.00007673,0.00002883,-0.00012285,0.00
 002287,0.00007197,0.00027090,-0.00007446,-0.00030539,-0.00004866,-0.00
 008599,0.00011225,0.00000951,0.00002712,0.00001455,-0.00003905,-0.0001
 8588,0.00004200,0.00015004,0.00009788,0.00001625,0.00005361,0.00008206
 ,0.00002863,0.00000722,-0.00010145,0.00000249,-0.00010733,-0.00001956,
 0.00005560,-0.14828796,0.00773698,-0.13901922,0.00498910,-0.00075137,0
 .00589135,0.14562000,-0.00925600,0.15019925,-0.00362868,-0.00386608,0.
 00536750,0.00026432,0.00034784,-0.00013239,0.00023879,-0.00039978,-0.0
 0010486,-0.00015029,0.00004438,0.00003126,-0.00012558,0.00002271,0.000
 03352,0.00019327,-0.00002487,-0.00002914,-0.00001203,-0.00000485,0.000
 00342,-0.00001681,0.00000384,0.00000452,-0.00017362,-0.00000013,0.0000
 2387,0.00003393,0.00007827,-0.00015203,0.00001301,0.00000696,-0.000061
 00,-0.00002185,0.00004726,0.00001703,-0.00000205,-0.00000195,0.0000261
 1,-0.00012263,0.00006490,0.00004008,-0.00009429,0.00002462,-0.00005502
 ,-0.00001274,0.00001303,-0.00001758,-0.00003032,0.00028358,0.00002759,
 -0.00013561,-0.00027952,-0.00006995,-0.00002889,0.00014206,-0.00097507
 ,-0.00004037,0.00007249,-0.00001307,0.00013381,0.00008038,0.00013135,0
 .00023061,0.00002410,-0.00022198,-0.00001170,0.00037170,0.00024356,0.0
 0000554,-0.00001158,0.00002925,0.00005920,-0.00000135,-0.00019703,-0.0
 0006388,-0.00015569,-0.00022302,-0.00002383,0.00001094,-0.00000058,0.0
 0000801,-0.00002243,0.00000111,0.00000297,0.00001579,-0.00000176,0.000
 03120,-0.00002249,-0.00005437,0.00020028,-0.00014529,0.00134250,0.0001
 1856,-0.00000894,-0.00060094,-0.00027577,0.00000989,0.00008821,-0.0001
 1849,0.00125874,-0.00054160,0.00007279,0.00008404,0.00009346,-0.000002
 04,-0.00001579,0.00000610,-0.00000644,0.00001176,-0.00000270,0.0000292
 4,0.00001958,-0.00007626,-0.14547356,-0.13742386,0.00532301,0.01161953
 ,0.01499154,-0.00168140,-0.01021317,-0.02021433,0.00266230,0.14752956,
 -0.00099206,0.00284393,0.00099782,-0.00005437,-0.00020633,0.00002638,-
 0.00007159,0.00019684,0.00006292,0.00001406,0.00003369,-0.00001623,0.0
 0003874,-0.00000722,-0.00002164,-0.00001051,-0.00002798,0.00000757,0.0
 0000291,0.00000052,-0.00000544,0.00000241,-0.00000031,-0.00000991,0.00
 000974,0.00000866,-0.00000172,0.00045274,-0.00007771,0.00031180,0.0001
 5040,0.00002230,0.00000939,0.00005346,0.00003230,0.00001944,-0.0000201
 0,-0.00001297,-0.00001161,0.00002930,-0.00012571,-0.00000541,0.0000197
 1,-0.00000226,0.00004000,0.00003142,0.00001864,0.00001793,0.00019316,-
 0.00040670,-0.00039870,-0.00008019,-0.00120827,0.00032880,0.00017212,0
 .00017266,-0.00120766,-0.00022391,0.00011301,-0.00020945,0.00007952,-0
 .00000647,0.00016949,0.00035345,0.00006906,0.00016921,-0.00014868,-0.0
 0033747,-0.00041129,-0.00000228,0.00003131,-0.00001958,-0.00006084,-0.
 00001465,0.00023039,0.00004286,0.00020026,0.00034764,0.00000130,0.0001
 0094,-0.00016486,-0.00001816,0.00001228,0.00001575,0.00000060,-0.00001
 143,0.00000507,-0.00002894,0.00003168,0.00005430,0.00145595,-0.0007618
 6,-0.00128008,-0.00003535,0.00010456,0.00010680,-0.00013787,-0.0001727
 7,-0.00019776,0.00112753,-0.00225993,-0.00059433,-0.00008177,-0.000121
 01,-0.00013150,-0.00000792,0.00000977,-0.00002382,0.00000137,0.0000596
 7,-0.00004047,-0.00002261,0.00000803,0.00003394,-0.13428448,-0.2410098
 9,0.01503636,-0.01574295,-0.01769298,0.00178337,0.00322338,0.00417526,
 0.00033567,0.14456849,0.25621854,0.01209385,0.01683404,-0.01265222,-0.
 00046677,-0.00064393,0.00009111,-0.00058681,0.00054772,0.00025284,0.00
 025323,-0.00011966,-0.00007287,0.00033948,0.00018562,-0.00009386,-0.00
 041933,-0.00011968,0.00005413,0.00000519,0.00001478,-0.00002072,0.0000
 0393,-0.00001018,-0.00003298,0.00041664,0.00005451,-0.00005048,0.00018
 939,-0.00013110,0.00128650,-0.00015487,-0.00005427,-0.00012666,0.00006
 868,0.00011095,-0.00001648,0.00001860,0.00001223,-0.00000529,-0.000105
 31,-0.00022785,-0.00017535,0.00004099,-0.00004837,0.00004333,0.0001053
 6,-0.00001756,0.00004590,0.00027966,-0.00108982,-0.00087608,-0.0001265
 7,-0.00131682,0.00070774,0.00107979,0.00113865,-0.00171818,-0.00108758
 ,-0.00020815,0.00016389,-0.00031100,0.00012925,-0.00004198,-0.00050189
 ,-0.00053048,-0.00072990,0.00002965,-0.00008071,-0.00004516,-0.0000158
 0,-0.00000335,0.00002431,-0.00003710,0.00004028,0.00002770,-0.00006381
 ,0.00026111,-0.00000482,0.00029628,-0.00005853,0.00010992,-0.00007306,
 0.00013422,-0.00000737,0.00000242,-0.00004144,0.00002376,-0.00012030,0
 .00009487,0.00017317,0.00101023,0.00002918,-0.00082586,-0.00034506,-0.
 00000567,0.00038472,0.00014198,-0.00042900,-0.00055352,0.00006455,-0.0
 0036972,0.00041631,0.00012447,-0.00019495,-0.00013340,-0.00001646,0.00
 002312,-0.00005708,0.00000579,0.00003303,-0.00009184,-0.00004958,-0.00
 001106,0.00002802,0.01155547,0.02126455,-0.03651417,-0.00355297,-0.004
 20869,0.00273424,-0.00980736,-0.01562854,0.00408183,-0.01028400,-0.015
 35857,0.04419687\\0.00001527,-0.00000103,0.00001475,-0.00000176,-0.000
 00433,-0.00001382,0.00000060,-0.00000526,-0.00002438,0.00000526,-0.000
 00134,-0.00003086,0.00000292,0.00000284,-0.00004054,-0.00000041,0.0000
 0681,-0.00003712,-0.00000173,0.00000185,-0.00003082,-0.00000049,0.0000
 0270,-0.00004610,-0.00000850,0.00000270,-0.00005404,0.00000864,0.00001
 121,-0.00001435,-0.00000044,-0.00000149,-0.00000248,0.00001383,-0.0000
 0433,0.00000074,-0.00000040,0.00000041,-0.00000234,0.00000742,0.000001
 41,-0.00001766,0.00001481,-0.00000385,-0.00001744,0.00000252,0.0000012
 6,-0.00002614,0.00000276,0.00000290,0.00000977,-0.00000818,0.00000212,
 -0.00000446,-0.00001096,-0.00000359,0.00003117,-0.00001666,0.00000365,
 0.00002810,-0.00000378,-0.00000140,0.00003647,-0.00000207,-0.00000047,
 0.00003033,0.00000317,-0.00000549,0.00002595,-0.00000005,-0.00000230,0
 .00003419,0.00000155,-0.00000100,0.00002584,0.00001498,-0.00000368,0.0
 0002483,-0.00001941,0.00000444,0.00001145,-0.00002045,0.00000464,0.000
 01239,-0.00002218,0.00000473,0.00002156,-0.00002255,0.00000560,0.00000
 210,0.00000949,-0.00000263,0.00000413,0.00000547,-0.00000139,-0.000003
 91,0.00000216,-0.00000170,0.00001353,0.00001781,-0.00000519,0.00000340
 ,-0.00001505,0.00000175,-0.00000868,-0.00001934,0.00000537,0.00000583,
 -0.00001656,0.00000531,-0.00001098,-0.00002167,0.00000653,-0.00000990,
 0.00001031,-0.00000737,0.00000981,0.00002384,-0.00000735,0.00002428,0.
 00002900,-0.00000687,0.00000559,0.00002084,-0.00000616,0.00001980\\\@
 The archive entry for this job was punched.


 A FOOL CAN ASK MORE QUESTIONS THAN
 A WISE MAN CAN ANSWER.
 Job cpu time:       3 days 22 hours 47 minutes 12.5 seconds.
 Elapsed time:       0 days  1 hours 59 minutes 22.1 seconds.
 File lengths (MBytes):  RWF=   2311 Int=      0 D2E=      0 Chk=     78 Scr=      1
 Normal termination of Gaussian 16 at Fri May 24 15:10:30 2024.
