 Entering Gaussian System, Link 0=/cm/shared/apps//g16/g16
 Input=ZRh.gjf
 Output=ZRh.log
 Initial command:
 /cm/shared/apps//g16/l1.exe "/local/mvanvleet/pbs.14053.josephine/Gau-3398877.inp" -scrdir="/local/mvanvleet/pbs.14053.josephine/"
 Entering Link 1 = /cm/shared/apps//g16/l1.exe PID=   3398881.
  
 Copyright (c) 1988-2019, Gaussian, Inc.  All Rights Reserved.
  
 This is part of the Gaussian(R) 16 program.  It is based on
 the Gaussian(R) 09 system (copyright 2009, Gaussian, Inc.),
 the Gaussian(R) 03 system (copyright 2003, Gaussian, Inc.),
 the Gaussian(R) 98 system (copyright 1998, Gaussian, Inc.),
 the Gaussian(R) 94 system (copyright 1995, Gaussian, Inc.),
 the Gaussian 92(TM) system (copyright 1992, Gaussian, Inc.),
 the Gaussian 90(TM) system (copyright 1990, Gaussian, Inc.),
 the Gaussian 88(TM) system (copyright 1988, Gaussian, Inc.),
 the Gaussian 86(TM) system (copyright 1986, Carnegie Mellon
 University), and the Gaussian 82(TM) system (copyright 1983,
 Carnegie Mellon University). Gaussian is a federally registered
 trademark of Gaussian, Inc.
  
 This software contains proprietary and confidential information,
 including trade secrets, belonging to Gaussian, Inc.
  
 This software is provided under written license and may be
 used, copied, transmitted, or stored only in accord with that
 written license.
  
 The following legend is applicable only to US Government
 contracts under FAR:
  
                    RESTRICTED RIGHTS LEGEND
  
 Use, reproduction and disclosure by the US Government is
 subject to restrictions as set forth in subparagraphs (a)
 and (c) of the Commercial Computer Software - Restricted
 Rights clause in FAR 52.227-19.
  
 Gaussian, Inc.
 340 Quinnipiac St., Bldg. 40, Wallingford CT 06492
  
  
 ---------------------------------------------------------------
 Warning -- This program may not be used in any manner that
 competes with the business of Gaussian, Inc. or will provide
 assistance to any competitor of Gaussian, Inc.  The licensee
 of this program is prohibited from giving any competitor of
 Gaussian, Inc. access to this program.  By using this program,
 the user acknowledges that Gaussian, Inc. is engaged in the
 business of creating and licensing software in the field of
 computational chemistry and represents and warrants to the
 licensee that it is not a competitor of Gaussian, Inc. and that
 it will not use this program in any manner prohibited above.
 ---------------------------------------------------------------
  

 Cite this work as:
 Gaussian 16, Revision C.01,
 M. J. Frisch, G. W. Trucks, H. B. Schlegel, G. E. Scuseria, 
 M. A. Robb, J. R. Cheeseman, G. Scalmani, V. Barone, 
 G. A. Petersson, H. Nakatsuji, X. Li, M. Caricato, A. V. Marenich, 
 J. Bloino, B. G. Janesko, R. Gomperts, B. Mennucci, H. P. Hratchian, 
 J. V. Ortiz, A. F. Izmaylov, J. L. Sonnenberg, D. Williams-Young, 
 F. Ding, F. Lipparini, F. Egidi, J. Goings, B. Peng, A. Petrone, 
 T. Henderson, D. Ranasinghe, V. G. Zakrzewski, J. Gao, N. Rega, 
 G. Zheng, W. Liang, M. Hada, M. Ehara, K. Toyota, R. Fukuda, 
 J. Hasegawa, M. Ishida, T. Nakajima, Y. Honda, O. Kitao, H. Nakai, 
 T. Vreven, K. Throssell, J. A. Montgomery, Jr., J. E. Peralta, 
 F. Ogliaro, M. J. Bearpark, J. J. Heyd, E. N. Brothers, K. N. Kudin, 
 V. N. Staroverov, T. A. Keith, R. Kobayashi, J. Normand, 
 K. Raghavachari, A. P. Rendell, J. C. Burant, S. S. Iyengar, 
 J. Tomasi, M. Cossi, J. M. Millam, M. Klene, C. Adamo, R. Cammi, 
 J. W. Ochterski, R. L. Martin, K. Morokuma, O. Farkas, 
 J. B. Foresman, and D. J. Fox, Gaussian, Inc., Wallingford CT, 2019.
 
 ******************************************
 Gaussian 16:  ES64L-G16RevC.01  3-Jul-2019
                 7-Mar-2024 
 ******************************************
 %nprocshared=8
 Will use up to    8 processors via shared memory.
 %chk=ZRh.chk
 %mem=1GB
 ----------------------------------------------------------
 # wb97xd def2TZVPP SCRF=(solvent=dichloromethane) opt freq
 ----------------------------------------------------------
 1/18=20,19=15,26=3,38=1/1,3;
 2/9=110,12=2,17=6,18=5,40=1/2;
 3/5=44,7=202,11=2,25=1,30=1,70=2201,71=1,72=9,74=-58/1,2,3;
 4//1;
 5/5=2,38=5,53=9/2;
 6/7=2,8=2,9=2,10=2,28=1/1;
 7//1,2,3,16;
 1/18=20,19=15,26=3/3(2);
 2/9=110/2;
 99//99;
 2/9=110/2;
 3/5=44,7=202,11=2,25=1,30=1,70=2205,71=1,72=9,74=-58/1,2,3;
 4/5=5,16=3,69=1/1;
 5/5=2,38=5,53=9/2;
 7//1,2,3,16;
 1/18=20,19=15,26=3/3(-5);
 2/9=110/2;
 6/7=2,8=2,9=2,10=2,19=2,28=1/1;
 99/9=1/99;
 ---
 ZRh
 ---
 Symbolic Z-matrix:
 Charge =  0 Multiplicity = 1
 C                     1.29836   1.18275  -0.29957 
 C                     1.29836  -1.18275  -0.29957 
 C                     2.65091   1.22941  -0.07856 
 C                     2.65091  -1.22941  -0.07856 
 C                     3.43977   0.        0.0701 
 H                     3.17615   2.18882  -0.03441 
 H                     3.17615  -2.18882  -0.03441 
 O                     4.66111   0.        0.28458 
 N                     0.62294   0.       -0.39931 
 C                     0.36995   2.33851  -0.58525 
 H                     0.18682   2.37859  -1.67542 
 H                     0.78082   3.3154   -0.25593 
 C                     0.36995  -2.33851  -0.58525 
 H                     0.18682  -2.37859  -1.67542 
 H                     0.78082  -3.3154   -0.25593 
 N                    -0.96289   2.09117   0.05855 
 N                    -0.96289  -2.09117   0.05855 
 C                    -1.98375   2.94652  -0.57575 
 H                    -2.94868   2.78755  -0.06686 
 H                    -1.70582   4.02011  -0.49087 
 H                    -2.07944   2.66779  -1.63586 
 C                    -0.85735   2.44389   1.49577 
 H                    -0.65319   3.53237   1.60374 
 H                    -1.80094   2.19388   2.00443 
 H                    -0.03738   1.86549   1.94787 
 C                    -1.98375  -2.94652  -0.57575 
 H                    -1.70582  -4.02011  -0.49087 
 H                    -2.94868  -2.78755  -0.06686 
 H                    -2.07944  -2.6678   -1.63586 
 C                    -0.85734  -2.44389   1.49578 
 H                    -1.80094  -2.19388   2.00443 
 H                    -0.65319  -3.53237   1.60374 
 H                    -0.03738  -1.86549   1.94787 
 Rh                   -1.25293   0.       -0.06655 
 

 GradGradGradGradGradGradGradGradGradGradGradGradGradGradGradGradGradGrad
 Berny optimization.
 Initialization pass.
                           ----------------------------
                           !    Initial Parameters    !
                           ! (Angstroms and Degrees)  !
 --------------------------                            --------------------------
 ! Name  Definition              Value          Derivative Info.                !
 --------------------------------------------------------------------------------
 ! R1    R(1,3)                  1.3713         estimate D2E/DX2                !
 ! R2    R(1,9)                  1.3657         estimate D2E/DX2                !
 ! R3    R(1,10)                 1.5097         estimate D2E/DX2                !
 ! R4    R(2,4)                  1.3713         estimate D2E/DX2                !
 ! R5    R(2,9)                  1.3657         estimate D2E/DX2                !
 ! R6    R(2,13)                 1.5097         estimate D2E/DX2                !
 ! R7    R(3,5)                  1.4683         estimate D2E/DX2                !
 ! R8    R(3,6)                  1.0947         estimate D2E/DX2                !
 ! R9    R(4,5)                  1.4683         estimate D2E/DX2                !
 ! R10   R(4,7)                  1.0947         estimate D2E/DX2                !
 ! R11   R(5,8)                  1.24           estimate D2E/DX2                !
 ! R12   R(9,34)                 1.9052         estimate D2E/DX2                !
 ! R13   R(10,11)                1.1062         estimate D2E/DX2                !
 ! R14   R(10,12)                1.1098         estimate D2E/DX2                !
 ! R15   R(10,16)                1.5007         estimate D2E/DX2                !
 ! R16   R(13,14)                1.1062         estimate D2E/DX2                !
 ! R17   R(13,15)                1.1098         estimate D2E/DX2                !
 ! R18   R(13,17)                1.5007         estimate D2E/DX2                !
 ! R19   R(16,18)                1.4752         estimate D2E/DX2                !
 ! R20   R(16,22)                1.4836         estimate D2E/DX2                !
 ! R21   R(16,34)                2.1149         estimate D2E/DX2                !
 ! R22   R(17,26)                1.4752         estimate D2E/DX2                !
 ! R23   R(17,30)                1.4836         estimate D2E/DX2                !
 ! R24   R(17,34)                2.1149         estimate D2E/DX2                !
 ! R25   R(18,19)                1.1024         estimate D2E/DX2                !
 ! R26   R(18,20)                1.1122         estimate D2E/DX2                !
 ! R27   R(18,21)                1.1003         estimate D2E/DX2                !
 ! R28   R(22,23)                1.1127         estimate D2E/DX2                !
 ! R29   R(22,24)                1.1007         estimate D2E/DX2                !
 ! R30   R(22,25)                1.1006         estimate D2E/DX2                !
 ! R31   R(26,27)                1.1122         estimate D2E/DX2                !
 ! R32   R(26,28)                1.1024         estimate D2E/DX2                !
 ! R33   R(26,29)                1.1003         estimate D2E/DX2                !
 ! R34   R(30,31)                1.1007         estimate D2E/DX2                !
 ! R35   R(30,32)                1.1127         estimate D2E/DX2                !
 ! R36   R(30,33)                1.1006         estimate D2E/DX2                !
 ! A1    A(3,1,9)              121.9417         estimate D2E/DX2                !
 ! A2    A(3,1,10)             127.6613         estimate D2E/DX2                !
 ! A3    A(9,1,10)             110.1845         estimate D2E/DX2                !
 ! A4    A(4,2,9)              121.9417         estimate D2E/DX2                !
 ! A5    A(4,2,13)             127.6613         estimate D2E/DX2                !
 ! A6    A(9,2,13)             110.1845         estimate D2E/DX2                !
 ! A7    A(1,3,5)              121.1818         estimate D2E/DX2                !
 ! A8    A(1,3,6)              120.6362         estimate D2E/DX2                !
 ! A9    A(5,3,6)              118.163          estimate D2E/DX2                !
 ! A10   A(2,4,5)              121.1818         estimate D2E/DX2                !
 ! A11   A(2,4,7)              120.6362         estimate D2E/DX2                !
 ! A12   A(5,4,7)              118.163          estimate D2E/DX2                !
 ! A13   A(3,5,4)              113.7148         estimate D2E/DX2                !
 ! A14   A(3,5,8)              123.1397         estimate D2E/DX2                !
 ! A15   A(4,5,8)              123.1397         estimate D2E/DX2                !
 ! A16   A(1,9,2)              120.0085         estimate D2E/DX2                !
 ! A17   A(1,9,34)             118.3082         estimate D2E/DX2                !
 ! A18   A(2,9,34)             118.3082         estimate D2E/DX2                !
 ! A19   A(1,10,11)            108.423          estimate D2E/DX2                !
 ! A20   A(1,10,12)            112.9576         estimate D2E/DX2                !
 ! A21   A(1,10,16)            109.8043         estimate D2E/DX2                !
 ! A22   A(11,10,12)           108.775          estimate D2E/DX2                !
 ! A23   A(11,10,16)           106.3635         estimate D2E/DX2                !
 ! A24   A(12,10,16)           110.2792         estimate D2E/DX2                !
 ! A25   A(2,13,14)            108.423          estimate D2E/DX2                !
 ! A26   A(2,13,15)            112.9576         estimate D2E/DX2                !
 ! A27   A(2,13,17)            109.8043         estimate D2E/DX2                !
 ! A28   A(14,13,15)           108.775          estimate D2E/DX2                !
 ! A29   A(14,13,17)           106.3635         estimate D2E/DX2                !
 ! A30   A(15,13,17)           110.2792         estimate D2E/DX2                !
 ! A31   A(10,16,18)           109.5478         estimate D2E/DX2                !
 ! A32   A(10,16,22)           108.2532         estimate D2E/DX2                !
 ! A33   A(10,16,34)           105.034          estimate D2E/DX2                !
 ! A34   A(18,16,22)           109.1422         estimate D2E/DX2                !
 ! A35   A(18,16,34)           116.9356         estimate D2E/DX2                !
 ! A36   A(22,16,34)           107.5857         estimate D2E/DX2                !
 ! A37   A(13,17,26)           109.5478         estimate D2E/DX2                !
 ! A38   A(13,17,30)           108.2528         estimate D2E/DX2                !
 ! A39   A(13,17,34)           105.034          estimate D2E/DX2                !
 ! A40   A(26,17,30)           109.1425         estimate D2E/DX2                !
 ! A41   A(26,17,34)           116.9356         estimate D2E/DX2                !
 ! A42   A(30,17,34)           107.5857         estimate D2E/DX2                !
 ! A43   A(16,18,19)           108.8822         estimate D2E/DX2                !
 ! A44   A(16,18,20)           110.729          estimate D2E/DX2                !
 ! A45   A(16,18,21)           109.1217         estimate D2E/DX2                !
 ! A46   A(19,18,20)           108.8254         estimate D2E/DX2                !
 ! A47   A(19,18,21)           109.3961         estimate D2E/DX2                !
 ! A48   A(20,18,21)           109.8634         estimate D2E/DX2                !
 ! A49   A(16,22,23)           109.8534         estimate D2E/DX2                !
 ! A50   A(16,22,24)           109.4314         estimate D2E/DX2                !
 ! A51   A(16,22,25)           109.0255         estimate D2E/DX2                !
 ! A52   A(23,22,24)           109.5501         estimate D2E/DX2                !
 ! A53   A(23,22,25)           109.7268         estimate D2E/DX2                !
 ! A54   A(24,22,25)           109.2371         estimate D2E/DX2                !
 ! A55   A(17,26,27)           110.729          estimate D2E/DX2                !
 ! A56   A(17,26,28)           108.8822         estimate D2E/DX2                !
 ! A57   A(17,26,29)           109.1221         estimate D2E/DX2                !
 ! A58   A(27,26,28)           108.8254         estimate D2E/DX2                !
 ! A59   A(27,26,29)           109.8629         estimate D2E/DX2                !
 ! A60   A(28,26,29)           109.3963         estimate D2E/DX2                !
 ! A61   A(17,30,31)           109.4304         estimate D2E/DX2                !
 ! A62   A(17,30,32)           109.8528         estimate D2E/DX2                !
 ! A63   A(17,30,33)           109.0254         estimate D2E/DX2                !
 ! A64   A(31,30,32)           109.55           estimate D2E/DX2                !
 ! A65   A(31,30,33)           109.2376         estimate D2E/DX2                !
 ! A66   A(32,30,33)           109.7279         estimate D2E/DX2                !
 ! A67   A(9,34,16)             82.8365         estimate D2E/DX2                !
 ! A68   A(9,34,17)             82.8365         estimate D2E/DX2                !
 ! A69   A(16,34,17)           162.8209         estimate D2E/DX2                !
 ! D1    D(9,1,3,5)             -0.371          estimate D2E/DX2                !
 ! D2    D(9,1,3,6)            178.0156         estimate D2E/DX2                !
 ! D3    D(10,1,3,5)          -174.5378         estimate D2E/DX2                !
 ! D4    D(10,1,3,6)             3.8488         estimate D2E/DX2                !
 ! D5    D(3,1,9,2)             -1.0365         estimate D2E/DX2                !
 ! D6    D(3,1,9,34)           157.8855         estimate D2E/DX2                !
 ! D7    D(10,1,9,2)           174.0461         estimate D2E/DX2                !
 ! D8    D(10,1,9,34)          -27.032          estimate D2E/DX2                !
 ! D9    D(3,1,10,11)           99.7975         estimate D2E/DX2                !
 ! D10   D(3,1,10,12)          -20.8345         estimate D2E/DX2                !
 ! D11   D(3,1,10,16)         -144.3811         estimate D2E/DX2                !
 ! D12   D(9,1,10,11)          -74.9303         estimate D2E/DX2                !
 ! D13   D(9,1,10,12)          164.4376         estimate D2E/DX2                !
 ! D14   D(9,1,10,16)           40.8911         estimate D2E/DX2                !
 ! D15   D(9,2,4,5)              0.371          estimate D2E/DX2                !
 ! D16   D(9,2,4,7)           -178.0156         estimate D2E/DX2                !
 ! D17   D(13,2,4,5)           174.5378         estimate D2E/DX2                !
 ! D18   D(13,2,4,7)            -3.8488         estimate D2E/DX2                !
 ! D19   D(4,2,9,1)              1.0365         estimate D2E/DX2                !
 ! D20   D(4,2,9,34)          -157.8855         estimate D2E/DX2                !
 ! D21   D(13,2,9,1)          -174.0461         estimate D2E/DX2                !
 ! D22   D(13,2,9,34)           27.032          estimate D2E/DX2                !
 ! D23   D(4,2,13,14)          -99.7975         estimate D2E/DX2                !
 ! D24   D(4,2,13,15)           20.8345         estimate D2E/DX2                !
 ! D25   D(4,2,13,17)          144.3811         estimate D2E/DX2                !
 ! D26   D(9,2,13,14)           74.9303         estimate D2E/DX2                !
 ! D27   D(9,2,13,15)         -164.4376         estimate D2E/DX2                !
 ! D28   D(9,2,13,17)          -40.8911         estimate D2E/DX2                !
 ! D29   D(1,3,5,4)              1.6261         estimate D2E/DX2                !
 ! D30   D(1,3,5,8)           -179.2242         estimate D2E/DX2                !
 ! D31   D(6,3,5,4)           -176.7993         estimate D2E/DX2                !
 ! D32   D(6,3,5,8)              2.3503         estimate D2E/DX2                !
 ! D33   D(2,4,5,3)             -1.6261         estimate D2E/DX2                !
 ! D34   D(2,4,5,8)            179.2242         estimate D2E/DX2                !
 ! D35   D(7,4,5,3)            176.7993         estimate D2E/DX2                !
 ! D36   D(7,4,5,8)             -2.3503         estimate D2E/DX2                !
 ! D37   D(1,9,34,16)            5.6059         estimate D2E/DX2                !
 ! D38   D(1,9,34,17)         -164.8901         estimate D2E/DX2                !
 ! D39   D(2,9,34,16)          164.8901         estimate D2E/DX2                !
 ! D40   D(2,9,34,17)           -5.6059         estimate D2E/DX2                !
 ! D41   D(1,10,16,18)        -160.8258         estimate D2E/DX2                !
 ! D42   D(1,10,16,22)          80.2594         estimate D2E/DX2                !
 ! D43   D(1,10,16,34)         -34.4489         estimate D2E/DX2                !
 ! D44   D(11,10,16,18)        -43.7085         estimate D2E/DX2                !
 ! D45   D(11,10,16,22)       -162.6234         estimate D2E/DX2                !
 ! D46   D(11,10,16,34)         82.6683         estimate D2E/DX2                !
 ! D47   D(12,10,16,18)         74.0729         estimate D2E/DX2                !
 ! D48   D(12,10,16,22)        -44.8419         estimate D2E/DX2                !
 ! D49   D(12,10,16,34)       -159.5502         estimate D2E/DX2                !
 ! D50   D(2,13,17,26)         160.8258         estimate D2E/DX2                !
 ! D51   D(2,13,17,30)         -80.2592         estimate D2E/DX2                !
 ! D52   D(2,13,17,34)          34.4489         estimate D2E/DX2                !
 ! D53   D(14,13,17,26)         43.7085         estimate D2E/DX2                !
 ! D54   D(14,13,17,30)        162.6236         estimate D2E/DX2                !
 ! D55   D(14,13,17,34)        -82.6683         estimate D2E/DX2                !
 ! D56   D(15,13,17,26)        -74.0729         estimate D2E/DX2                !
 ! D57   D(15,13,17,30)         44.8421         estimate D2E/DX2                !
 ! D58   D(15,13,17,34)        159.5502         estimate D2E/DX2                !
 ! D59   D(10,16,18,19)       -177.635          estimate D2E/DX2                !
 ! D60   D(10,16,18,20)        -58.0257         estimate D2E/DX2                !
 ! D61   D(10,16,18,21)         63.0201         estimate D2E/DX2                !
 ! D62   D(22,16,18,19)        -59.2711         estimate D2E/DX2                !
 ! D63   D(22,16,18,20)         60.3382         estimate D2E/DX2                !
 ! D64   D(22,16,18,21)       -178.616          estimate D2E/DX2                !
 ! D65   D(34,16,18,19)         63.0796         estimate D2E/DX2                !
 ! D66   D(34,16,18,20)       -177.3111         estimate D2E/DX2                !
 ! D67   D(34,16,18,21)        -56.2653         estimate D2E/DX2                !
 ! D68   D(10,16,22,23)         64.1883         estimate D2E/DX2                !
 ! D69   D(10,16,22,24)       -175.504          estimate D2E/DX2                !
 ! D70   D(10,16,22,25)        -56.0839         estimate D2E/DX2                !
 ! D71   D(18,16,22,23)        -54.9829         estimate D2E/DX2                !
 ! D72   D(18,16,22,24)         65.3247         estimate D2E/DX2                !
 ! D73   D(18,16,22,25)       -175.2551         estimate D2E/DX2                !
 ! D74   D(34,16,22,23)        177.2087         estimate D2E/DX2                !
 ! D75   D(34,16,22,24)        -62.4836         estimate D2E/DX2                !
 ! D76   D(34,16,22,25)         56.9365         estimate D2E/DX2                !
 ! D77   D(10,16,34,9)          16.8542         estimate D2E/DX2                !
 ! D78   D(10,16,34,17)         50.5424         estimate D2E/DX2                !
 ! D79   D(18,16,34,9)         138.5278         estimate D2E/DX2                !
 ! D80   D(18,16,34,17)        172.216          estimate D2E/DX2                !
 ! D81   D(22,16,34,9)         -98.3182         estimate D2E/DX2                !
 ! D82   D(22,16,34,17)        -64.63           estimate D2E/DX2                !
 ! D83   D(13,17,26,27)         58.0257         estimate D2E/DX2                !
 ! D84   D(13,17,26,28)        177.635          estimate D2E/DX2                !
 ! D85   D(13,17,26,29)        -63.0197         estimate D2E/DX2                !
 ! D86   D(30,17,26,27)        -60.338          estimate D2E/DX2                !
 ! D87   D(30,17,26,28)         59.2713         estimate D2E/DX2                !
 ! D88   D(30,17,26,29)        178.6166         estimate D2E/DX2                !
 ! D89   D(34,17,26,27)        177.3111         estimate D2E/DX2                !
 ! D90   D(34,17,26,28)        -63.0796         estimate D2E/DX2                !
 ! D91   D(34,17,26,29)         56.2657         estimate D2E/DX2                !
 ! D92   D(13,17,30,31)        175.5043         estimate D2E/DX2                !
 ! D93   D(13,17,30,32)        -64.1891         estimate D2E/DX2                !
 ! D94   D(13,17,30,33)         56.0841         estimate D2E/DX2                !
 ! D95   D(26,17,30,31)        -65.3244         estimate D2E/DX2                !
 ! D96   D(26,17,30,32)         54.9822         estimate D2E/DX2                !
 ! D97   D(26,17,30,33)        175.2553         estimate D2E/DX2                !
 ! D98   D(34,17,30,31)         62.4841         estimate D2E/DX2                !
 ! D99   D(34,17,30,32)       -177.2093         estimate D2E/DX2                !
 ! D100  D(34,17,30,33)        -56.9361         estimate D2E/DX2                !
 ! D101  D(13,17,34,9)         -16.8542         estimate D2E/DX2                !
 ! D102  D(13,17,34,16)        -50.5424         estimate D2E/DX2                !
 ! D103  D(26,17,34,9)        -138.5278         estimate D2E/DX2                !
 ! D104  D(26,17,34,16)       -172.216          estimate D2E/DX2                !
 ! D105  D(30,17,34,9)          98.3178         estimate D2E/DX2                !
 ! D106  D(30,17,34,16)         64.6297         estimate D2E/DX2                !
 --------------------------------------------------------------------------------
 Trust Radius=3.00D-01 FncErr=1.00D-07 GrdErr=1.00D-06 EigMax=2.50D+02 EigMin=1.00D-04
 Number of steps in this run=    204 maximum allowed number of steps=    204.
 GradGradGradGradGradGradGradGradGradGradGradGradGradGradGradGradGradGrad

                          Input orientation:                          
 ---------------------------------------------------------------------
 Center     Atomic      Atomic             Coordinates (Angstroms)
 Number     Number       Type             X           Y           Z
 ---------------------------------------------------------------------
      1          6           0        1.298360    1.182750   -0.299570
      2          6           0        1.298360   -1.182750   -0.299570
      3          6           0        2.650910    1.229410   -0.078560
      4          6           0        2.650910   -1.229410   -0.078560
      5          6           0        3.439770    0.000000    0.070100
      6          1           0        3.176150    2.188820   -0.034410
      7          1           0        3.176150   -2.188820   -0.034410
      8          8           0        4.661110    0.000000    0.284580
      9          7           0        0.622940    0.000000   -0.399310
     10          6           0        0.369950    2.338510   -0.585250
     11          1           0        0.186820    2.378590   -1.675420
     12          1           0        0.780820    3.315400   -0.255930
     13          6           0        0.369950   -2.338510   -0.585250
     14          1           0        0.186820   -2.378590   -1.675420
     15          1           0        0.780820   -3.315400   -0.255930
     16          7           0       -0.962890    2.091170    0.058550
     17          7           0       -0.962890   -2.091170    0.058550
     18          6           0       -1.983750    2.946520   -0.575750
     19          1           0       -2.948680    2.787550   -0.066860
     20          1           0       -1.705820    4.020110   -0.490870
     21          1           0       -2.079440    2.667790   -1.635860
     22          6           0       -0.857350    2.443890    1.495770
     23          1           0       -0.653190    3.532370    1.603740
     24          1           0       -1.800940    2.193880    2.004430
     25          1           0       -0.037380    1.865490    1.947870
     26          6           0       -1.983750   -2.946520   -0.575750
     27          1           0       -1.705820   -4.020110   -0.490870
     28          1           0       -2.948680   -2.787550   -0.066860
     29          1           0       -2.079440   -2.667800   -1.635860
     30          6           0       -0.857340   -2.443890    1.495780
     31          1           0       -1.800940   -2.193880    2.004430
     32          1           0       -0.653190   -3.532370    1.603740
     33          1           0       -0.037380   -1.865490    1.947870
     34         45           0       -1.252930    0.000000   -0.066550
 ---------------------------------------------------------------------
                    Distance matrix (angstroms):
                    1          2          3          4          5
     1  C    0.000000
     2  C    2.365500   0.000000
     3  C    1.371282   2.774302   0.000000
     4  C    2.774302   1.371282   2.458820   0.000000
     5  C    2.474104   2.474104   1.468281   1.468281   0.000000
     6  H    2.146761   3.868319   1.094666   3.458630   2.207114
     7  H    3.868319   2.146761   3.458630   1.094666   2.207114
     8  O    3.612231   3.612231   2.384161   2.384161   1.240029
     9  N    1.365664   1.365664   2.393113   2.393113   2.855675
    10  C    1.509748   3.652784   2.586429   4.264923   3.914321
    11  H    2.135069   3.976384   3.153144   4.651813   4.391607
    12  H    2.194982   4.528036   2.807143   4.917723   4.262416
    13  C    3.652784   1.509748   4.264923   2.586429   3.914321
    14  H    3.976384   2.135069   4.651813   3.153144   4.391607
    15  H    4.528036   2.194982   4.917723   2.807143   4.262416
    16  N    2.463073   3.995004   3.717658   4.909644   4.874068
    17  N    3.995004   2.463073   4.909644   3.717658   4.874068
    18  C    3.736229   5.281988   4.967468   6.258248   6.205938
    19  H    4.546085   5.818486   5.812344   6.891409   6.971477
    20  H    4.136702   6.010944   5.190289   6.834366   6.553859
    21  H    3.924353   5.293568   5.183660   6.323730   6.363103
    22  C    3.075842   4.585068   4.032538   5.317851   5.144937
    23  H    3.598868   5.446420   4.364726   6.035044   5.619787
    24  H    3.992050   5.129884   5.008794   5.989719   6.001648
    25  H    2.702096   4.015838   3.426065   4.572934   4.369971
    26  C    5.281988   3.736229   6.258248   4.967468   6.205938
    27  H    6.010944   4.136702   6.834366   5.190289   6.553859
    28  H    5.818486   4.546085   6.891409   5.812344   6.971477
    29  H    5.293575   3.924357   6.323736   5.183663   6.363107
    30  C    4.585067   3.075841   5.317847   4.032533   5.144931
    31  H    5.129884   3.992050   5.989719   5.008794   6.001648
    32  H    5.446420   3.598868   6.035044   4.364726   5.619787
    33  H    4.015838   2.702096   4.572934   3.426065   4.369971
    34  Rh   2.821751   2.821751   4.092867   4.092867   4.694689
                    6          7          8          9         10
     6  H    0.000000
     7  H    4.377640   0.000000
     8  O    2.664169   2.664169   0.000000
     9  N    3.382745   3.382745   4.095671   0.000000
    10  C    2.863667   5.354895   4.963798   2.359493   0.000000
    11  H    3.415409   5.700021   5.433099   2.734291   1.106171
    12  H    2.656287   6.006922   5.132317   3.322252   1.109766
    13  C    5.354895   2.863667   4.963798   2.359493   4.677020
    14  H    5.700021   3.415409   5.433099   2.734291   4.844898
    15  H    6.006922   2.656287   5.132317   3.322252   5.678377
    16  N    4.141235   5.954713   6.004453   2.664110   1.500706
    17  N    5.954713   4.141235   6.004453   2.664110   4.670440
    18  C    5.243255   7.299954   7.319584   3.938013   2.430981
    19  H    6.154110   7.891695   8.111896   4.542844   3.388756
    20  H    5.234082   7.911561   7.569703   4.646804   2.673108
    21  H    5.515005   7.332975   7.499347   3.993622   2.685464
    22  C    4.321531   6.330290   6.155727   3.428584   2.418267
    23  H    4.376358   7.076680   6.516104   4.256566   2.695143
    24  H    5.378505   6.938037   7.037690   4.057865   3.382325
    25  H    3.789558   5.540184   5.321879   3.070070   2.608901
    26  C    7.299954   5.243255   7.319584   3.938013   5.785459
    27  H    7.911561   5.234082   7.569703   4.646804   6.689527
    28  H    7.891695   6.154110   8.111896   4.542844   6.128501
    29  H    7.332982   5.515006   7.499351   3.993629   5.671546
    30  C    6.330286   4.321526   6.155720   3.428585   5.358010
    31  H    6.938037   5.378505   7.037690   4.057865   5.653474
    32  H    7.076680   4.376358   6.516104   4.256566   6.348679
    33  H    5.540184   3.789558   5.321879   3.070070   4.925061
    34  Rh   4.940518   4.940518   5.924455   1.905155   2.893340
                   11         12         13         14         15
    11  H    0.000000
    12  H    1.801500   0.000000
    13  C    4.844898   5.678377   0.000000
    14  H    4.757180   5.898246   1.106171   0.000000
    15  H    5.898246   6.630800   1.109766   1.801500   0.000000
    16  N    2.100261   2.153639   4.670440   4.930237   5.689501
    17  N    4.930237   5.689501   1.500706   2.100261   2.153639
    18  C    2.498638   2.807348   5.785459   5.854694   6.852501
    19  H    3.547686   3.771411   6.128501   6.253625   7.154783
    20  H    2.771251   2.595225   6.689527   6.777065   7.749083
    21  H    2.284981   3.241094   5.671537   5.532039   6.773762
    22  C    3.339311   2.551780   5.358009   5.865411   6.238708
    23  H    3.576271   2.358354   6.348679   6.811604   7.239248
    24  H    4.186479   3.610058   5.653474   6.196771   6.490522
    25  H    3.666302   2.761960   4.925061   5.584864   5.689271
    26  C    5.854694   6.852501   2.430981   2.498638   2.807348
    27  H    6.777065   7.749083   2.673108   2.771251   2.595225
    28  H    6.253625   7.154783   3.388756   3.547686   3.771411
    29  H    5.532048   6.773771   2.685465   2.284982   3.241092
    30  C    5.865415   6.238708   2.418270   3.339318   2.551781
    31  H    6.196771   6.490522   3.382325   4.186479   3.610058
    32  H    6.811604   7.239248   2.695143   3.576271   2.358354
    33  H    5.584864   5.689271   2.608901   3.666302   2.761960
    34  Rh   3.212325   3.894083   2.893340   3.212325   3.894083
                   16         17         18         19         20
    16  N    0.000000
    17  N    4.182340   0.000000
    18  C    1.475166   5.179074   0.000000
    19  H    2.108088   5.268871   1.102420   0.000000
    20  H    2.138835   6.180740   1.112225   1.801025   0.000000
    21  H    2.109550   5.173530   1.100309   1.797688   1.810901
    22  C    1.483628   4.758520   2.410935   2.633168   2.674156
    23  H    2.135552   5.840182   2.619883   2.935121   2.394433
    24  H    2.121162   4.780212   2.693922   2.441310   3.093653
    25  H    2.115899   4.481212   3.365359   3.658552   3.656984
    26  C    5.179074   1.475166   5.893040   5.836919   6.972688
    27  H    6.180740   2.138835   6.972688   6.933161   8.040220
    28  H    5.268871   2.108088   5.836919   5.575100   6.933161
    29  H    5.173539   2.109552   5.714331   5.742663   6.795494
    30  C    4.758523   1.483638   5.883584   5.846667   6.815423
    31  H    4.780212   2.121162   5.754517   5.515632   6.696958
    32  H    5.840182   2.135552   6.963949   6.928316   7.907931
    33  H    4.481212   2.115899   5.771694   5.846844   6.585699
    34  Rh   2.114891   2.114891   3.078208   3.262821   4.067732
                   21         22         23         24         25
    21  H    0.000000
    22  C    3.369086   0.000000
    23  H    3.643720   1.112712   0.000000
    24  H    3.681557   1.100728   1.808159   0.000000
    25  H    4.202001   1.100587   1.810010   1.794765   0.000000
    26  C    5.714321   5.883578   6.963949   5.754517   5.771694
    27  H    6.795484   6.815419   7.907931   6.696958   6.585699
    28  H    5.742654   5.846660   6.928316   5.515632   5.846844
    29  H    5.335590   6.118005   7.139419   6.079902   6.128935
    30  C    6.118004   4.887780   5.980720   4.760044   4.409929
    31  H    6.079894   4.760043   5.853872   4.387760   4.426266
    32  H    7.139410   5.980721   7.064740   5.853872   5.443762
    33  H    6.128928   4.409932   5.443762   4.426266   3.730980
    34  Rh   3.203585   2.927444   3.953125   3.066330   3.002583
                   26         27         28         29         30
    26  C    0.000000
    27  H    1.112225   0.000000
    28  H    1.102420   1.801025   0.000000
    29  H    1.100307   1.810894   1.797687   0.000000
    30  C    2.410949   2.674166   2.633182   3.369100   0.000000
    31  H    2.693922   3.093653   2.441310   3.681559   1.100732
    32  H    2.619883   2.394433   2.935121   3.643718   1.112709
    33  H    3.365359   3.656984   3.658552   4.202003   1.100575
    34  Rh   3.078208   4.067732   3.262821   3.203593   2.927450
                   31         32         33         34
    31  H    0.000000
    32  H    1.808159   0.000000
    33  H    1.794765   1.810010   0.000000
    34  Rh   3.066330   3.953125   3.002583   0.000000
 Stoichiometry    C11H18N3ORh
 Framework group  C1[X(C11H18N3ORh)]
 Deg. of freedom    96
 Full point group                 C1      NOp   1
 Largest Abelian subgroup         C1      NOp   1
 Largest concise Abelian subgroup C1      NOp   1
                         Standard orientation:                         
 ---------------------------------------------------------------------
 Center     Atomic      Atomic             Coordinates (Angstroms)
 Number     Number       Type             X           Y           Z
 ---------------------------------------------------------------------
      1          6           0       -1.298358   -1.182752   -0.299571
      2          6           0       -1.298362    1.182748   -0.299571
      3          6           0       -2.650908   -1.229415   -0.078561
      4          6           0       -2.650913    1.229405   -0.078561
      5          6           0       -3.439770   -0.000006    0.070099
      6          1           0       -3.176146   -2.188826   -0.034411
      7          1           0       -3.176154    2.188814   -0.034411
      8          8           0       -4.661110   -0.000008    0.284579
      9          7           0       -0.622940   -0.000001   -0.399311
     10          6           0       -0.369946   -2.338511   -0.585251
     11          1           0       -0.186816   -2.378590   -1.675421
     12          1           0       -0.780814   -3.315401   -0.255931
     13          6           0       -0.369955    2.338509   -0.585251
     14          1           0       -0.186825    2.378590   -1.675421
     15          1           0       -0.780826    3.315399   -0.255931
     16          7           0        0.962893   -2.091168    0.058549
     17          7           0        0.962886    2.091172    0.058549
     18          6           0        1.983755   -2.946516   -0.575751
     19          1           0        2.948685   -2.787545   -0.066861
     20          1           0        1.705827   -4.020107   -0.490871
     21          1           0        2.079444   -2.667786   -1.635861
     22          6           0        0.857354   -2.443889    1.495769
     23          1           0        0.653196   -3.532369    1.603739
     24          1           0        1.800944   -2.193877    2.004429
     25          1           0        0.037383   -1.865490    1.947869
     26          6           0        1.983744    2.946524   -0.575751
     27          1           0        1.705812    4.020113   -0.490871
     28          1           0        2.948675    2.787555   -0.066861
     29          1           0        2.079435    2.667804   -1.635861
     30          6           0        0.857335    2.443891    1.495779
     31          1           0        1.800936    2.193883    2.004429
     32          1           0        0.653183    3.532371    1.603739
     33          1           0        0.037376    1.865490    1.947869
     34         45           0        1.252930    0.000002   -0.066551
 ---------------------------------------------------------------------
 Rotational constants (GHZ):           0.5423588           0.4294447           0.2672706
 Standard basis: def2TZVPP (5D, 7F)
 There are   881 symmetry adapted cartesian basis functions of A   symmetry.
 There are   773 symmetry adapted basis functions of A   symmetry.
   773 basis functions,  1170 primitive gaussians,   881 cartesian basis functions
    65 alpha electrons       65 beta electrons
       nuclear repulsion energy      1349.5057282761 Hartrees.
 NAtoms=   34 NActive=   34 NUniq=   34 SFac= 1.00D+00 NAtFMM=   60 NAOKFM=F Big=F
 Integral buffers will be    131072 words long.
 Raffenetti 2 integral format.
 Two-electron integral symmetry is turned on.
 Nuclear repulsion after empirical dispersion term =     1349.4738261114 Hartrees.
 ------------------------------------------------------------------------------
 Polarizable Continuum Model (PCM)
 =================================
 Model                : PCM.
 Atomic radii         : UFF (Universal Force Field).
 Polarization charges : Total charges.
 Charge compensation  : None.
 Solution method      : On-the-fly selection.
 Cavity type          : Scaled VdW (van der Waals Surface) (Alpha=1.100).
 Cavity algorithm     : GePol (No added spheres)
                        Default sphere list used, NSphG=   34.
                        Lebedev-Laikov grids with approx.  5.0 points / Ang**2.
                        Smoothing algorithm: York/Karplus (Gamma=1.0000).
                        Polarization charges: spherical gaussians, with
                                              point-specific exponents (IZeta= 3).
                        Self-potential: point-specific (ISelfS= 7).
                        Self-field    : sphere-specific E.n sum rule (ISelfD= 2).
 1st derivatives      : Analytical E(r).r(x)/FMM algorithm (CHGder, D1EAlg=3).
                        Cavity 1st derivative terms included.
 Solvent              : Dichloromethane, Eps=   8.930000 Eps(inf)=   2.028346
 ------------------------------------------------------------------------------
 One-electron integrals computed using PRISM.
 PrsmSu:  requested number of processors reduced to:   5 ShMem   1 Linda.
   1 Symmetry operations used in ECPInt.
 ECPInt:  NShTT=   41905 NPrTT=  109675 LenC2=   38023 LenP2D=   76295.
 LDataN:  DoStor=T MaxTD1= 8 Len=  415
 NBasis=   773 RedAO= T EigKep=  2.07D-05  NBF=   773
 NBsUse=   773 1.00D-06 EigRej= -1.00D+00 NBFU=   773
 Defaulting to unpruned grid for atomic number  45.
 ExpMin= 3.70D-02 ExpMax= 2.70D+04 ExpMxC= 9.22D+02 IAcc=3 IRadAn=         5 AccDes= 0.00D+00
 Harris functional with IExCor= 4639 and IRadAn=       5 diagonalized for initial guess.
 HarFok:  IExCor= 4639 AccDes= 0.00D+00 IRadAn=         5 IDoV= 1 UseB2=F ITyADJ=14
 ICtDFT=  3500011 ScaDFX=  1.000000  1.000000  1.000000  1.000000
 Defaulting to unpruned grid for atomic number  45.
 FoFCou: FMM=F IPFlag=           0 FMFlag=      100000 FMFlg1=           0
         NFxFlg=           0 DoJE=T BraDBF=F KetDBF=T FulRan=T
         wScrn=  0.000000 ICntrl=       500 IOpCl=  0 I1Cent=   200000004 NGrid=           0
         NMat0=    1 NMatS0=      1 NMatT0=    0 NMatD0=    1 NMtDS0=    0 NMtDT0=    0
 Petite list used in FoFCou.
 Requested convergence on RMS density matrix=1.00D-08 within 128 cycles.
 Requested convergence on MAX density matrix=1.00D-06.
 Requested convergence on             energy=1.00D-06.
 No special actions if energy rises.
 Defaulting to unpruned grid for atomic number  45.
 Defaulting to unpruned grid for atomic number  45.
 Defaulting to unpruned grid for atomic number  45.
 Defaulting to unpruned grid for atomic number  45.
 Defaulting to unpruned grid for atomic number  45.
 Defaulting to unpruned grid for atomic number  45.
 Defaulting to unpruned grid for atomic number  45.
 Defaulting to unpruned grid for atomic number  45.
 Inv3:  Mode=1 IEnd=    17107632.
 Iteration    1 A*A^-1 deviation from unit magnitude is 2.89D-15 for    753.
 Iteration    1 A*A^-1 deviation from orthogonality  is 2.03D-15 for   1787    231.
 Iteration    1 A^-1*A deviation from unit magnitude is 3.00D-15 for   1633.
 Iteration    1 A^-1*A deviation from orthogonality  is 2.00D-15 for   2219    955.
 Restarting incremental Fock formation.
 Error on total polarization charges =  0.01939
 SCF Done:  E(RwB97XD) =  -780.148979929     A.U. after   21 cycles
            NFock= 21  Conv=0.45D-08     -V/T= 2.1040

 **********************************************************************

            Population analysis using the SCF Density.

 **********************************************************************

 Orbital symmetries:
       Occupied  (A) (A) (A) (A) (A) (A) (A) (A) (A) (A) (A) (A)
                 (A) (A) (A) (A) (A) (A) (A) (A) (A) (A) (A) (A)
                 (A) (A) (A) (A) (A) (A) (A) (A) (A) (A) (A) (A)
                 (A) (A) (A) (A) (A) (A) (A) (A) (A) (A) (A) (A)
                 (A) (A) (A) (A) (A) (A) (A) (A) (A) (A) (A) (A)
                 (A) (A) (A) (A) (A)
       Virtual   (A) (A) (A) (A) (A) (A) (A) (A) (A) (A) (A) (A)
                 (A) (A) (A) (A) (A) (A) (A) (A) (A) (A) (A) (A)
                 (A) (A) (A) (A) (A) (A) (A) (A) (A) (A) (A) (A)
                 (A) (A) (A) (A) (A) (A) (A) (A) (A) (A) (A) (A)
                 (A) (A) (A) (A) (A) (A) (A) (A) (A) (A) (A) (A)
                 (A) (A) (A) (A) (A) (A) (A) (A) (A) (A) (A) (A)
                 (A) (A) (A) (A) (A) (A) (A) (A) (A) (A) (A) (A)
                 (A) (A) (A) (A) (A) (A) (A) (A) (A) (A) (A) (A)
                 (A) (A) (A) (A) (A) (A) (A) (A) (A) (A) (A) (A)
                 (A) (A) (A) (A) (A) (A) (A) (A) (A) (A) (A) (A)
                 (A) (A) (A) (A) (A) (A) (A) (A) (A) (A) (A) (A)
                 (A) (A) (A) (A) (A) (A) (A) (A) (A) (A) (A) (A)
                 (A) (A) (A) (A) (A) (A) (A) (A) (A) (A) (A) (A)
                 (A) (A) (A) (A) (A) (A) (A) (A) (A) (A) (A) (A)
                 (A) (A) (A) (A) (A) (A) (A) (A) (A) (A) (A) (A)
                 (A) (A) (A) (A) (A) (A) (A) (A) (A) (A) (A) (A)
                 (A) (A) (A) (A) (A) (A) (A) (A) (A) (A) (A) (A)
                 (A) (A) (A) (A) (A) (A) (A) (A) (A) (A) (A) (A)
                 (A) (A) (A) (A) (A) (A) (A) (A) (A) (A) (A) (A)
                 (A) (A) (A) (A) (A) (A) (A) (A) (A) (A) (A) (A)
                 (A) (A) (A) (A) (A) (A) (A) (A) (A) (A) (A) (A)
                 (A) (A) (A) (A) (A) (A) (A) (A) (A) (A) (A) (A)
                 (A) (A) (A) (A) (A) (A) (A) (A) (A) (A) (A) (A)
                 (A) (A) (A) (A) (A) (A) (A) (A) (A) (A) (A) (A)
                 (A) (A) (A) (A) (A) (A) (A) (A) (A) (A) (A) (A)
                 (A) (A) (A) (A) (A) (A) (A) (A) (A) (A) (A) (A)
                 (A) (A) (A) (A) (A) (A) (A) (A) (A) (A) (A) (A)
                 (A) (A) (A) (A) (A) (A) (A) (A) (A) (A) (A) (A)
                 (A) (A) (A) (A) (A) (A) (A) (A) (A) (A) (A) (A)
                 (A) (A) (A) (A) (A) (A) (A) (A) (A) (A) (A) (A)
                 (A) (A) (A) (A) (A) (A) (A) (A) (A) (A) (A) (A)
                 (A) (A) (A) (A) (A) (A) (A) (A) (A) (A) (A) (A)
                 (A) (A) (A) (A) (A) (A) (A) (A) (A) (A) (A) (A)
                 (A) (A) (A) (A) (A) (A) (A) (A) (A) (A) (A) (A)
                 (A) (A) (A) (A) (A) (A) (A) (A) (A) (A) (A) (A)
                 (A) (A) (A) (A) (A) (A) (A) (A) (A) (A) (A) (A)
                 (A) (A) (A) (A) (A) (A) (A) (A) (A) (A) (A) (A)
                 (A) (A) (A) (A) (A) (A) (A) (A) (A) (A) (A) (A)
                 (A) (A) (A) (A) (A) (A) (A) (A) (A) (A) (A) (A)
                 (A) (A) (A) (A) (A) (A) (A) (A) (A) (A) (A) (A)
                 (A) (A) (A) (A) (A) (A) (A) (A) (A) (A) (A) (A)
                 (A) (A) (A) (A) (A) (A) (A) (A) (A) (A) (A) (A)
                 (A) (A) (A) (A) (A) (A) (A) (A) (A) (A) (A) (A)
                 (A) (A) (A) (A) (A) (A) (A) (A) (A) (A) (A) (A)
                 (A) (A) (A) (A) (A) (A) (A) (A) (A) (A) (A) (A)
                 (A) (A) (A) (A) (A) (A) (A) (A) (A) (A) (A) (A)
                 (A) (A) (A) (A) (A) (A) (A) (A) (A) (A) (A) (A)
                 (A) (A) (A) (A) (A) (A) (A) (A) (A) (A) (A) (A)
                 (A) (A) (A) (A) (A) (A) (A) (A) (A) (A) (A) (A)
                 (A) (A) (A) (A) (A) (A) (A) (A) (A) (A) (A) (A)
                 (A) (A) (A) (A) (A) (A) (A) (A) (A) (A) (A) (A)
                 (A) (A) (A) (A) (A) (A) (A) (A) (A) (A) (A) (A)
                 (A) (A) (A) (A) (A) (A) (A) (A) (A) (A) (A) (A)
                 (A) (A) (A) (A) (A) (A) (A) (A) (A) (A) (A) (A)
                 (A) (A) (A) (A) (A) (A) (A) (A) (A) (A) (A) (A)
                 (A) (A) (A) (A) (A) (A) (A) (A) (A) (A) (A) (A)
                 (A) (A) (A) (A) (A) (A) (A) (A) (A) (A) (A) (A)
                 (A) (A) (A) (A) (A) (A) (A) (A) (A) (A) (A) (A)
                 (A) (A) (A) (A) (A) (A) (A) (A) (A) (A) (A) (A)
 The electronic state is 1-A.
 Alpha  occ. eigenvalues --  -19.18145 -14.49044 -14.49043 -14.45362 -10.34146
 Alpha  occ. eigenvalues --  -10.33129 -10.33129 -10.33059 -10.33056 -10.31839
 Alpha  occ. eigenvalues --  -10.31839 -10.31661 -10.31661 -10.27197 -10.27197
 Alpha  occ. eigenvalues --   -3.26758  -2.03305  -2.02980  -1.99512  -1.09006
 Alpha  occ. eigenvalues --   -1.06883  -1.05368  -1.03311  -0.89723  -0.85354
 Alpha  occ. eigenvalues --   -0.82810  -0.81704  -0.81693  -0.79502  -0.72247
 Alpha  occ. eigenvalues --   -0.71677  -0.69430  -0.65794  -0.60372  -0.59642
 Alpha  occ. eigenvalues --   -0.58467  -0.57868  -0.57204  -0.56251  -0.56059
 Alpha  occ. eigenvalues --   -0.55559  -0.51855  -0.50821  -0.49917  -0.49174
 Alpha  occ. eigenvalues --   -0.48905  -0.48743  -0.47388  -0.46729  -0.46591
 Alpha  occ. eigenvalues --   -0.46284  -0.46103  -0.45697  -0.43922  -0.43384
 Alpha  occ. eigenvalues --   -0.42110  -0.41110  -0.36453  -0.33300  -0.30826
 Alpha  occ. eigenvalues --   -0.30729  -0.28437  -0.26173  -0.23963  -0.23641
 Alpha virt. eigenvalues --    0.03812   0.05155   0.05868   0.08302   0.09673
 Alpha virt. eigenvalues --    0.10302   0.10391   0.13534   0.14676   0.15262
 Alpha virt. eigenvalues --    0.15385   0.15786   0.16507   0.16719   0.17318
 Alpha virt. eigenvalues --    0.17409   0.17652   0.19565   0.19623   0.19967
 Alpha virt. eigenvalues --    0.20026   0.20525   0.21211   0.21582   0.22284
 Alpha virt. eigenvalues --    0.22369   0.23155   0.23510   0.23647   0.23926
 Alpha virt. eigenvalues --    0.24499   0.24908   0.25432   0.25956   0.27077
 Alpha virt. eigenvalues --    0.28188   0.29077   0.29665   0.31558   0.31932
 Alpha virt. eigenvalues --    0.32590   0.32988   0.33787   0.33787   0.34411
 Alpha virt. eigenvalues --    0.34715   0.35729   0.36220   0.36886   0.37278
 Alpha virt. eigenvalues --    0.38157   0.38445   0.39547   0.40147   0.41041
 Alpha virt. eigenvalues --    0.41487   0.41490   0.41733   0.41919   0.42452
 Alpha virt. eigenvalues --    0.43589   0.44490   0.45286   0.45396   0.46121
 Alpha virt. eigenvalues --    0.46305   0.48040   0.48192   0.48552   0.48601
 Alpha virt. eigenvalues --    0.49215   0.49295   0.50225   0.50465   0.50562
 Alpha virt. eigenvalues --    0.50839   0.51046   0.51818   0.51864   0.52190
 Alpha virt. eigenvalues --    0.52542   0.53124   0.53802   0.54166   0.54296
 Alpha virt. eigenvalues --    0.54880   0.55215   0.55805   0.56092   0.56797
 Alpha virt. eigenvalues --    0.58146   0.58200   0.59035   0.59327   0.60316
 Alpha virt. eigenvalues --    0.61928   0.61936   0.62147   0.62748   0.63887
 Alpha virt. eigenvalues --    0.65914   0.66311   0.67642   0.68135   0.68351
 Alpha virt. eigenvalues --    0.69216   0.69452   0.71080   0.71692   0.72967
 Alpha virt. eigenvalues --    0.73062   0.73783   0.74415   0.75588   0.76231
 Alpha virt. eigenvalues --    0.76532   0.76552   0.78884   0.79456   0.80261
 Alpha virt. eigenvalues --    0.82065   0.82252   0.84125   0.85070   0.85464
 Alpha virt. eigenvalues --    0.86079   0.86826   0.86903   0.88527   0.88932
 Alpha virt. eigenvalues --    0.90216   0.90562   0.92019   0.92336   0.92755
 Alpha virt. eigenvalues --    0.94414   0.94771   0.95905   0.96276   0.96765
 Alpha virt. eigenvalues --    0.96886   0.97270   0.98098   0.99445   1.00320
 Alpha virt. eigenvalues --    1.00653   1.01211   1.02213   1.02627   1.04473
 Alpha virt. eigenvalues --    1.04475   1.05671   1.06193   1.06655   1.06814
 Alpha virt. eigenvalues --    1.07781   1.08071   1.08700   1.09781   1.10041
 Alpha virt. eigenvalues --    1.10794   1.11075   1.11858   1.12821   1.13169
 Alpha virt. eigenvalues --    1.13442   1.14411   1.14600   1.15187   1.17507
 Alpha virt. eigenvalues --    1.18782   1.19503   1.19760   1.20839   1.21441
 Alpha virt. eigenvalues --    1.22449   1.22871   1.24418   1.25972   1.25987
 Alpha virt. eigenvalues --    1.26674   1.28189   1.28775   1.29190   1.29603
 Alpha virt. eigenvalues --    1.29636   1.30742   1.31575   1.32030   1.32323
 Alpha virt. eigenvalues --    1.33408   1.34217   1.34327   1.35848   1.37204
 Alpha virt. eigenvalues --    1.37665   1.37676   1.38303   1.39213   1.39949
 Alpha virt. eigenvalues --    1.41282   1.42454   1.43048   1.43895   1.44062
 Alpha virt. eigenvalues --    1.45002   1.46476   1.46512   1.46661   1.48650
 Alpha virt. eigenvalues --    1.48981   1.49607   1.49970   1.50679   1.51690
 Alpha virt. eigenvalues --    1.51896   1.52319   1.53691   1.54143   1.54964
 Alpha virt. eigenvalues --    1.55312   1.55532   1.55721   1.56254   1.57358
 Alpha virt. eigenvalues --    1.57598   1.58871   1.59323   1.59842   1.60446
 Alpha virt. eigenvalues --    1.61343   1.63121   1.63847   1.64747   1.65441
 Alpha virt. eigenvalues --    1.65917   1.66394   1.67360   1.68668   1.68905
 Alpha virt. eigenvalues --    1.69193   1.69730   1.70118   1.72607   1.72643
 Alpha virt. eigenvalues --    1.75037   1.75110   1.75425   1.76459   1.78469
 Alpha virt. eigenvalues --    1.78778   1.80185   1.82644   1.82855   1.83035
 Alpha virt. eigenvalues --    1.83705   1.84901   1.85621   1.86167   1.86442
 Alpha virt. eigenvalues --    1.88132   1.89547   1.89733   1.91114   1.92510
 Alpha virt. eigenvalues --    1.93668   1.93739   1.93903   1.94637   1.97561
 Alpha virt. eigenvalues --    1.97678   1.99189   2.00900   2.01808   2.05560
 Alpha virt. eigenvalues --    2.05785   2.06775   2.08207   2.08688   2.08921
 Alpha virt. eigenvalues --    2.10963   2.11888   2.15492   2.15865   2.17250
 Alpha virt. eigenvalues --    2.21159   2.21551   2.22041   2.22058   2.23745
 Alpha virt. eigenvalues --    2.23796   2.25831   2.27960   2.28880   2.28947
 Alpha virt. eigenvalues --    2.30290   2.31777   2.35314   2.35371   2.37869
 Alpha virt. eigenvalues --    2.39236   2.39354   2.41514   2.41634   2.42963
 Alpha virt. eigenvalues --    2.44498   2.45722   2.47114   2.50240   2.50819
 Alpha virt. eigenvalues --    2.56329   2.56785   2.60343   2.61084   2.61179
 Alpha virt. eigenvalues --    2.61869   2.63667   2.66350   2.67235   2.67396
 Alpha virt. eigenvalues --    2.68788   2.69505   2.70002   2.70655   2.71161
 Alpha virt. eigenvalues --    2.72576   2.74072   2.74954   2.75238   2.76279
 Alpha virt. eigenvalues --    2.76827   2.77764   2.80441   2.81165   2.82837
 Alpha virt. eigenvalues --    2.83374   2.85107   2.85548   2.85746   2.86234
 Alpha virt. eigenvalues --    2.87193   2.87663   2.89872   2.90424   2.90973
 Alpha virt. eigenvalues --    2.90995   2.92118   2.92744   2.93840   2.95180
 Alpha virt. eigenvalues --    2.95245   2.95880   2.96752   2.97472   2.98021
 Alpha virt. eigenvalues --    2.98845   2.99561   3.00470   3.01226   3.01633
 Alpha virt. eigenvalues --    3.02147   3.04414   3.04719   3.04978   3.05188
 Alpha virt. eigenvalues --    3.05926   3.06657   3.07311   3.08257   3.10036
 Alpha virt. eigenvalues --    3.10068   3.10825   3.11418   3.12193   3.12838
 Alpha virt. eigenvalues --    3.13659   3.13824   3.15197   3.15318   3.16354
 Alpha virt. eigenvalues --    3.16865   3.17841   3.18210   3.20019   3.20143
 Alpha virt. eigenvalues --    3.21594   3.22445   3.22583   3.23677   3.24207
 Alpha virt. eigenvalues --    3.26087   3.26339   3.26755   3.28496   3.29021
 Alpha virt. eigenvalues --    3.29441   3.30433   3.31312   3.31390   3.31796
 Alpha virt. eigenvalues --    3.33122   3.33127   3.33976   3.34547   3.36937
 Alpha virt. eigenvalues --    3.37057   3.37674   3.37711   3.38785   3.40086
 Alpha virt. eigenvalues --    3.40940   3.41806   3.42417   3.43796   3.45330
 Alpha virt. eigenvalues --    3.45386   3.45808   3.45828   3.47216   3.47639
 Alpha virt. eigenvalues --    3.47971   3.48944   3.49464   3.52099   3.52395
 Alpha virt. eigenvalues --    3.52845   3.52961   3.53898   3.54787   3.55356
 Alpha virt. eigenvalues --    3.56135   3.56439   3.57912   3.58397   3.59205
 Alpha virt. eigenvalues --    3.59991   3.61006   3.61401   3.62601   3.64097
 Alpha virt. eigenvalues --    3.64403   3.64879   3.66777   3.67219   3.68298
 Alpha virt. eigenvalues --    3.68769   3.68989   3.69083   3.69862   3.70969
 Alpha virt. eigenvalues --    3.72653   3.74788   3.75075   3.75344   3.75921
 Alpha virt. eigenvalues --    3.76418   3.76841   3.77569   3.79159   3.80965
 Alpha virt. eigenvalues --    3.81254   3.81499   3.82042   3.83670   3.86035
 Alpha virt. eigenvalues --    3.86100   3.86591   3.86671   3.87495   3.89147
 Alpha virt. eigenvalues --    3.90143   3.90364   3.91096   3.92429   3.93727
 Alpha virt. eigenvalues --    3.94643   3.94726   3.95845   3.96011   3.96844
 Alpha virt. eigenvalues --    3.97493   4.00077   4.00784   4.03376   4.04601
 Alpha virt. eigenvalues --    4.04943   4.05930   4.06075   4.07924   4.09064
 Alpha virt. eigenvalues --    4.10263   4.11230   4.12223   4.12537   4.14462
 Alpha virt. eigenvalues --    4.14661   4.15317   4.15643   4.16206   4.16944
 Alpha virt. eigenvalues --    4.17181   4.18494   4.18608   4.19574   4.19596
 Alpha virt. eigenvalues --    4.20890   4.20944   4.22126   4.22281   4.22411
 Alpha virt. eigenvalues --    4.22440   4.24827   4.25119   4.25130   4.25605
 Alpha virt. eigenvalues --    4.25763   4.26484   4.27483   4.28606   4.28886
 Alpha virt. eigenvalues --    4.29683   4.30668   4.30807   4.31792   4.32079
 Alpha virt. eigenvalues --    4.32950   4.33872   4.34271   4.34472   4.35270
 Alpha virt. eigenvalues --    4.35886   4.36102   4.36479   4.38282   4.38957
 Alpha virt. eigenvalues --    4.40703   4.41728   4.41765   4.43223   4.44313
 Alpha virt. eigenvalues --    4.45227   4.45406   4.46053   4.47459   4.47793
 Alpha virt. eigenvalues --    4.48063   4.48644   4.48810   4.50136   4.52235
 Alpha virt. eigenvalues --    4.52459   4.53916   4.54298   4.54327   4.55178
 Alpha virt. eigenvalues --    4.56993   4.57566   4.58078   4.58513   4.60034
 Alpha virt. eigenvalues --    4.61677   4.66482   4.67710   4.70639   4.72081
 Alpha virt. eigenvalues --    4.73530   4.74025   4.75065   4.76439   4.77881
 Alpha virt. eigenvalues --    4.79587   4.79612   4.80391   4.81992   4.82609
 Alpha virt. eigenvalues --    4.83853   4.85044   4.87864   4.88201   4.88598
 Alpha virt. eigenvalues --    4.89748   4.90892   4.92079   4.92908   4.94012
 Alpha virt. eigenvalues --    4.94984   4.99357   5.01195   5.01350   5.04756
 Alpha virt. eigenvalues --    5.05105   5.06823   5.07384   5.07518   5.08617
 Alpha virt. eigenvalues --    5.09335   5.10471   5.11612   5.12475   5.14758
 Alpha virt. eigenvalues --    5.15201   5.16084   5.17024   5.18279   5.18500
 Alpha virt. eigenvalues --    5.19862   5.20618   5.22404   5.22565   5.23954
 Alpha virt. eigenvalues --    5.24010   5.26410   5.26603   5.26811   5.27327
 Alpha virt. eigenvalues --    5.28597   5.30237   5.30269   5.30882   5.32914
 Alpha virt. eigenvalues --    5.33272   5.34072   5.34820   5.35301   5.35690
 Alpha virt. eigenvalues --    5.37010   5.37084   5.39208   5.39335   5.39726
 Alpha virt. eigenvalues --    5.40977   5.42058   5.43109   5.45334   5.47195
 Alpha virt. eigenvalues --    5.48347   5.49580   5.50780   5.51287   5.52396
 Alpha virt. eigenvalues --    5.53643   5.54011   5.54701   5.55809   5.56769
 Alpha virt. eigenvalues --    5.61677   5.62938   5.63915   5.64778   5.64929
 Alpha virt. eigenvalues --    5.66406   5.66575   5.69041   5.69549   5.70397
 Alpha virt. eigenvalues --    5.71943   5.72319   5.73205   5.74431   5.75209
 Alpha virt. eigenvalues --    5.76525   5.77995   5.78388   5.78840   5.79769
 Alpha virt. eigenvalues --    5.79955   5.81439   5.81742   5.85221   5.88424
 Alpha virt. eigenvalues --    5.93881   5.97641   6.02242   6.06945   6.08395
 Alpha virt. eigenvalues --    6.12795   6.15938   6.16310   6.22045   6.25176
 Alpha virt. eigenvalues --    6.30625   6.32272   6.33068   6.40677   6.52249
 Alpha virt. eigenvalues --    6.59199   6.79086   6.94961   6.97422   7.21846
 Alpha virt. eigenvalues --    7.26836  22.92188  23.12694  23.29606  23.42485
 Alpha virt. eigenvalues --   23.43755  23.51564  23.71099  23.72952  23.74819
 Alpha virt. eigenvalues --   23.82035  23.84028  30.99775  32.88646  32.95771
 Alpha virt. eigenvalues --   33.12792  44.12655 102.30792
          Condensed to atoms (all electrons):
               1          2          3          4          5          6
     1  C    5.551119  -0.169380  -0.050264   0.134516   0.043192  -0.016180
     2  C   -0.169380   5.551118   0.134517  -0.050263   0.043192  -0.006915
     3  C   -0.050264   0.134517   6.170733  -0.301076   0.229295   0.388574
     4  C    0.134516  -0.050263  -0.301076   6.170730   0.229296   0.024513
     5  C    0.043192   0.043192   0.229295   0.229296   4.549700  -0.035019
     6  H   -0.016180  -0.006915   0.388574   0.024513  -0.035019   0.537035
     7  H   -0.006915  -0.016180   0.024513   0.388574  -0.035019  -0.000187
     8  O    0.031964   0.031964  -0.157561  -0.157561   0.674648   0.008216
     9  N    0.362170   0.362170  -0.109067  -0.109067   0.004111   0.003606
    10  C    0.186729  -0.004241  -0.024714   0.001744  -0.002897  -0.002791
    11  H   -0.029152   0.001695   0.000661   0.000377  -0.000597   0.000253
    12  H   -0.057120  -0.000523  -0.003739  -0.000481   0.001507   0.000169
    13  C   -0.004241   0.186729   0.001744  -0.024714  -0.002897   0.000118
    14  H    0.001695  -0.029152   0.000377   0.000661  -0.000597   0.000005
    15  H   -0.000523  -0.057120  -0.000481  -0.003739   0.001507  -0.000006
    16  N   -0.020021   0.000651  -0.003092   0.000290   0.000105   0.000209
    17  N    0.000651  -0.020020   0.000290  -0.003092   0.000105  -0.000006
    18  C    0.016859   0.000331   0.001065   0.000017  -0.000097  -0.000021
    19  H   -0.000297   0.000032   0.000059   0.000004  -0.000002   0.000001
    20  H    0.000550  -0.000026  -0.000080  -0.000006   0.000006   0.000004
    21  H   -0.001412  -0.000002  -0.000125  -0.000010   0.000005  -0.000006
    22  C    0.001227  -0.000603   0.003751  -0.000165  -0.000188  -0.000092
    23  H   -0.004684  -0.000088  -0.001048  -0.000028   0.000032  -0.000020
    24  H   -0.000423   0.000103  -0.000137  -0.000002   0.000007  -0.000001
    25  H    0.015063  -0.000361   0.008577   0.000794  -0.000787   0.000252
    26  C    0.000331   0.016859   0.000017   0.001065  -0.000097   0.000001
    27  H   -0.000026   0.000550  -0.000006  -0.000080   0.000006  -0.000000
    28  H    0.000032  -0.000297   0.000004   0.000059  -0.000002   0.000000
    29  H   -0.000002  -0.001412  -0.000010  -0.000125   0.000005   0.000000
    30  C   -0.000603   0.001226  -0.000165   0.003751  -0.000188   0.000001
    31  H    0.000103  -0.000423  -0.000002  -0.000137   0.000007   0.000000
    32  H   -0.000088  -0.004684  -0.000028  -0.001048   0.000032  -0.000000
    33  H   -0.000361   0.015063   0.000794   0.008577  -0.000787   0.000007
    34  Rh  -0.081045  -0.081045  -0.026266  -0.026266   0.010674  -0.001241
               7          8          9         10         11         12
     1  C   -0.006915   0.031964   0.362170   0.186729  -0.029152  -0.057120
     2  C   -0.016180   0.031964   0.362170  -0.004241   0.001695  -0.000523
     3  C    0.024513  -0.157561  -0.109067  -0.024714   0.000661  -0.003739
     4  C    0.388574  -0.157561  -0.109067   0.001744   0.000377  -0.000481
     5  C   -0.035019   0.674648   0.004111  -0.002897  -0.000597   0.001507
     6  H   -0.000187   0.008216   0.003606  -0.002791   0.000253   0.000169
     7  H    0.537035   0.008216   0.003606   0.000118   0.000005  -0.000006
     8  O    0.008216   8.112696   0.001138  -0.000686  -0.000008   0.000016
     9  N    0.003606   0.001138   6.528588   0.002836  -0.007996   0.003702
    10  C    0.000118  -0.000686   0.002836   4.917786   0.428771   0.449266
    11  H    0.000005  -0.000008  -0.007996   0.428771   0.544034  -0.017578
    12  H   -0.000006   0.000016   0.003702   0.449266  -0.017578   0.544505
    13  C   -0.002791  -0.000686   0.002836   0.000210  -0.000233   0.000099
    14  H    0.000253  -0.000008  -0.007996  -0.000233   0.000004  -0.000006
    15  H    0.000169   0.000016   0.003702   0.000099  -0.000006   0.000000
    16  N   -0.000006   0.000005  -0.028759   0.247413  -0.032909  -0.029263
    17  N    0.000209   0.000005  -0.028759   0.000524   0.000009  -0.000029
    18  C    0.000001  -0.000001  -0.002256  -0.055683  -0.003474  -0.006540
    19  H    0.000000  -0.000000  -0.000126   0.008363   0.000552  -0.000549
    20  H   -0.000000   0.000000   0.000042  -0.009546  -0.003296   0.006199
    21  H    0.000000  -0.000000  -0.000159  -0.007251   0.002507  -0.000165
    22  C    0.000001   0.000007  -0.003204  -0.027170   0.005966  -0.015656
    23  H   -0.000000   0.000000   0.000704  -0.008803  -0.000435   0.007272
    24  H    0.000000  -0.000000   0.000054   0.007773  -0.000166  -0.000012
    25  H    0.000007  -0.000010  -0.006510  -0.018476   0.000674  -0.003270
    26  C   -0.000021  -0.000001  -0.002256  -0.000089   0.000004  -0.000001
    27  H    0.000004   0.000000   0.000042   0.000004  -0.000000   0.000000
    28  H    0.000001  -0.000000  -0.000126  -0.000012   0.000002   0.000000
    29  H   -0.000006  -0.000000  -0.000159   0.000005  -0.000003  -0.000000
    30  C   -0.000092   0.000007  -0.003204   0.000130  -0.000009   0.000009
    31  H   -0.000001  -0.000000   0.000054  -0.000005   0.000002   0.000000
    32  H   -0.000020   0.000000   0.000704   0.000006  -0.000001   0.000000
    33  H    0.000252  -0.000010  -0.006510  -0.000043   0.000007  -0.000010
    34  Rh  -0.001241   0.000350   0.268801  -0.011491  -0.011852   0.012635
              13         14         15         16         17         18
     1  C   -0.004241   0.001695  -0.000523  -0.020021   0.000651   0.016859
     2  C    0.186729  -0.029152  -0.057120   0.000651  -0.020020   0.000331
     3  C    0.001744   0.000377  -0.000481  -0.003092   0.000290   0.001065
     4  C   -0.024714   0.000661  -0.003739   0.000290  -0.003092   0.000017
     5  C   -0.002897  -0.000597   0.001507   0.000105   0.000105  -0.000097
     6  H    0.000118   0.000005  -0.000006   0.000209  -0.000006  -0.000021
     7  H   -0.002791   0.000253   0.000169  -0.000006   0.000209   0.000001
     8  O   -0.000686  -0.000008   0.000016   0.000005   0.000005  -0.000001
     9  N    0.002836  -0.007996   0.003702  -0.028759  -0.028759  -0.002256
    10  C    0.000210  -0.000233   0.000099   0.247413   0.000524  -0.055683
    11  H   -0.000233   0.000004  -0.000006  -0.032909   0.000009  -0.003474
    12  H    0.000099  -0.000006   0.000000  -0.029263  -0.000029  -0.006540
    13  C    4.917785   0.428770   0.449267   0.000524   0.247413  -0.000089
    14  H    0.428770   0.544034  -0.017578   0.000009  -0.032909   0.000004
    15  H    0.449267  -0.017578   0.544505  -0.000029  -0.029263  -0.000001
    16  N    0.000524   0.000009  -0.000029   6.411810  -0.007830   0.258788
    17  N    0.247413  -0.032909  -0.029263  -0.007830   6.411809   0.000300
    18  C   -0.000089   0.000004  -0.000001   0.258788   0.000300   4.802025
    19  H   -0.000012   0.000002   0.000000  -0.030540   0.000031   0.416757
    20  H    0.000004  -0.000000   0.000000  -0.022017  -0.000014   0.407303
    21  H    0.000005  -0.000003  -0.000000  -0.034263   0.000041   0.427887
    22  C    0.000130  -0.000009   0.000009   0.222318   0.001561  -0.040743
    23  H    0.000006  -0.000001   0.000000  -0.027071  -0.000030  -0.009320
    24  H   -0.000005   0.000002   0.000000  -0.028293   0.000089  -0.007966
    25  H   -0.000043   0.000007  -0.000010  -0.029163   0.000088   0.007851
    26  C   -0.055683  -0.003474  -0.006540   0.000300   0.258789  -0.000027
    27  H   -0.009546  -0.003296   0.006199  -0.000014  -0.022017   0.000002
    28  H    0.008363   0.000552  -0.000549   0.000031  -0.030540  -0.000016
    29  H   -0.007251   0.002507  -0.000165   0.000041  -0.034263  -0.000015
    30  C   -0.027170   0.005966  -0.015656   0.001561   0.222318  -0.000050
    31  H    0.007773  -0.000166  -0.000012   0.000089  -0.028294  -0.000005
    32  H   -0.008803  -0.000435   0.007272  -0.000030  -0.027071  -0.000000
    33  H   -0.018475   0.000674  -0.003270   0.000088  -0.029161   0.000004
    34  Rh  -0.011490  -0.011853   0.012635   0.224783   0.224783  -0.047796
              19         20         21         22         23         24
     1  C   -0.000297   0.000550  -0.001412   0.001227  -0.004684  -0.000423
     2  C    0.000032  -0.000026  -0.000002  -0.000603  -0.000088   0.000103
     3  C    0.000059  -0.000080  -0.000125   0.003751  -0.001048  -0.000137
     4  C    0.000004  -0.000006  -0.000010  -0.000165  -0.000028  -0.000002
     5  C   -0.000002   0.000006   0.000005  -0.000188   0.000032   0.000007
     6  H    0.000001   0.000004  -0.000006  -0.000092  -0.000020  -0.000001
     7  H    0.000000  -0.000000   0.000000   0.000001  -0.000000   0.000000
     8  O   -0.000000   0.000000  -0.000000   0.000007   0.000000  -0.000000
     9  N   -0.000126   0.000042  -0.000159  -0.003204   0.000704   0.000054
    10  C    0.008363  -0.009546  -0.007251  -0.027170  -0.008803   0.007773
    11  H    0.000552  -0.003296   0.002507   0.005966  -0.000435  -0.000166
    12  H   -0.000549   0.006199  -0.000165  -0.015656   0.007272  -0.000012
    13  C   -0.000012   0.000004   0.000005   0.000130   0.000006  -0.000005
    14  H    0.000002  -0.000000  -0.000003  -0.000009  -0.000001   0.000002
    15  H    0.000000   0.000000  -0.000000   0.000009   0.000000   0.000000
    16  N   -0.030540  -0.022017  -0.034263   0.222318  -0.027071  -0.028293
    17  N    0.000031  -0.000014   0.000041   0.001561  -0.000030   0.000089
    18  C    0.416757   0.407303   0.427887  -0.040743  -0.009320  -0.007966
    19  H    0.554653  -0.023396  -0.018175  -0.005519  -0.001912   0.002689
    20  H   -0.023396   0.558857  -0.022619  -0.012955   0.007976  -0.001258
    21  H   -0.018175  -0.022619   0.545960   0.007826  -0.000279   0.000088
    22  C   -0.005519  -0.012955   0.007826   4.828328   0.403495   0.420433
    23  H   -0.001912   0.007976  -0.000279   0.403495   0.568595  -0.022363
    24  H    0.002689  -0.001258   0.000088   0.420433  -0.022363   0.545653
    25  H    0.000205  -0.000437  -0.000172   0.422533  -0.022371  -0.016320
    26  C   -0.000016   0.000002  -0.000015  -0.000050  -0.000000  -0.000005
    27  H    0.000000  -0.000000   0.000000   0.000002   0.000000   0.000000
    28  H   -0.000002   0.000000   0.000000  -0.000003  -0.000000  -0.000002
    29  H    0.000000   0.000000  -0.000009  -0.000007   0.000000   0.000001
    30  C   -0.000003   0.000002  -0.000007  -0.000973   0.000043   0.000001
    31  H   -0.000002   0.000000   0.000001   0.000001  -0.000006   0.000048
    32  H   -0.000000   0.000000   0.000000   0.000043   0.000000  -0.000006
    33  H    0.000000   0.000000  -0.000002  -0.000205  -0.000018   0.000047
    34  Rh  -0.009511   0.012371  -0.005587  -0.044338   0.014338  -0.007279
              25         26         27         28         29         30
     1  C    0.015063   0.000331  -0.000026   0.000032  -0.000002  -0.000603
     2  C   -0.000361   0.016859   0.000550  -0.000297  -0.001412   0.001226
     3  C    0.008577   0.000017  -0.000006   0.000004  -0.000010  -0.000165
     4  C    0.000794   0.001065  -0.000080   0.000059  -0.000125   0.003751
     5  C   -0.000787  -0.000097   0.000006  -0.000002   0.000005  -0.000188
     6  H    0.000252   0.000001  -0.000000   0.000000   0.000000   0.000001
     7  H    0.000007  -0.000021   0.000004   0.000001  -0.000006  -0.000092
     8  O   -0.000010  -0.000001   0.000000  -0.000000  -0.000000   0.000007
     9  N   -0.006510  -0.002256   0.000042  -0.000126  -0.000159  -0.003204
    10  C   -0.018476  -0.000089   0.000004  -0.000012   0.000005   0.000130
    11  H    0.000674   0.000004  -0.000000   0.000002  -0.000003  -0.000009
    12  H   -0.003270  -0.000001   0.000000   0.000000  -0.000000   0.000009
    13  C   -0.000043  -0.055683  -0.009546   0.008363  -0.007251  -0.027170
    14  H    0.000007  -0.003474  -0.003296   0.000552   0.002507   0.005966
    15  H   -0.000010  -0.006540   0.006199  -0.000549  -0.000165  -0.015656
    16  N   -0.029163   0.000300  -0.000014   0.000031   0.000041   0.001561
    17  N    0.000088   0.258789  -0.022017  -0.030540  -0.034263   0.222318
    18  C    0.007851  -0.000027   0.000002  -0.000016  -0.000015  -0.000050
    19  H    0.000205  -0.000016   0.000000  -0.000002   0.000000  -0.000003
    20  H   -0.000437   0.000002  -0.000000   0.000000   0.000000   0.000002
    21  H   -0.000172  -0.000015   0.000000   0.000000  -0.000009  -0.000007
    22  C    0.422533  -0.000050   0.000002  -0.000003  -0.000007  -0.000973
    23  H   -0.022371  -0.000000   0.000000  -0.000000   0.000000   0.000043
    24  H   -0.016320  -0.000005   0.000000  -0.000002   0.000001   0.000001
    25  H    0.535342   0.000004   0.000000   0.000000  -0.000002  -0.000205
    26  C    0.000004   4.802022   0.407302   0.416757   0.427888  -0.040741
    27  H    0.000000   0.407302   0.558858  -0.023396  -0.022620  -0.012955
    28  H    0.000000   0.416757  -0.023396   0.554653  -0.018174  -0.005519
    29  H   -0.000002   0.427888  -0.022620  -0.018174   0.545958   0.007826
    30  C   -0.000205  -0.040741  -0.012955  -0.005519   0.007826   4.828324
    31  H    0.000047  -0.007966  -0.001258   0.002689   0.000088   0.420431
    32  H   -0.000018  -0.009320   0.007976  -0.001912  -0.000279   0.403495
    33  H    0.000521   0.007851  -0.000437   0.000205  -0.000172   0.422534
    34  Rh  -0.015243  -0.047796   0.012371  -0.009511  -0.005587  -0.044338
              31         32         33         34
     1  C    0.000103  -0.000088  -0.000361  -0.081045
     2  C   -0.000423  -0.004684   0.015063  -0.081045
     3  C   -0.000002  -0.000028   0.000794  -0.026266
     4  C   -0.000137  -0.001048   0.008577  -0.026266
     5  C    0.000007   0.000032  -0.000787   0.010674
     6  H    0.000000  -0.000000   0.000007  -0.001241
     7  H   -0.000001  -0.000020   0.000252  -0.001241
     8  O   -0.000000   0.000000  -0.000010   0.000350
     9  N    0.000054   0.000704  -0.006510   0.268801
    10  C   -0.000005   0.000006  -0.000043  -0.011491
    11  H    0.000002  -0.000001   0.000007  -0.011852
    12  H    0.000000   0.000000  -0.000010   0.012635
    13  C    0.007773  -0.008803  -0.018475  -0.011490
    14  H   -0.000166  -0.000435   0.000674  -0.011853
    15  H   -0.000012   0.007272  -0.003270   0.012635
    16  N    0.000089  -0.000030   0.000088   0.224783
    17  N   -0.028294  -0.027071  -0.029161   0.224783
    18  C   -0.000005  -0.000000   0.000004  -0.047796
    19  H   -0.000002  -0.000000   0.000000  -0.009511
    20  H    0.000000   0.000000   0.000000   0.012371
    21  H    0.000001   0.000000  -0.000002  -0.005587
    22  C    0.000001   0.000043  -0.000205  -0.044338
    23  H   -0.000006   0.000000  -0.000018   0.014338
    24  H    0.000048  -0.000006   0.000047  -0.007279
    25  H    0.000047  -0.000018   0.000521  -0.015243
    26  C   -0.007966  -0.009320   0.007851  -0.047796
    27  H   -0.001258   0.007976  -0.000437   0.012371
    28  H    0.002689  -0.001912   0.000205  -0.009511
    29  H    0.000088  -0.000279  -0.000172  -0.005587
    30  C    0.420431   0.403495   0.422534  -0.044338
    31  H    0.545656  -0.022363  -0.016320  -0.007278
    32  H   -0.022363   0.568593  -0.022370   0.014337
    33  H   -0.016320  -0.022370   0.535336  -0.015243
    34  Rh  -0.007278   0.014337  -0.015243  16.813909
 Mulliken charges:
               1
     1  C    0.096535
     2  C    0.096535
     3  C   -0.287108
     4  C   -0.287108
     5  C    0.291741
     6  H    0.099523
     7  H    0.099523
     8  O   -0.552717
     9  N   -0.232715
    10  C   -0.077646
    11  H    0.122191
    12  H    0.109566
    13  C   -0.077647
    14  H    0.122191
    15  H    0.109566
    16  N   -0.075715
    17  N   -0.075716
    18  C   -0.165095
    19  H    0.106712
    20  H    0.102336
    21  H    0.105940
    22  C   -0.165749
    23  H    0.096019
    24  H    0.107249
    25  H    0.121430
    26  C   -0.165095
    27  H    0.102336
    28  H    0.106712
    29  H    0.105941
    30  C   -0.165747
    31  H    0.107247
    32  H    0.096020
    33  H    0.121432
    34  Rh  -0.098689
 Sum of Mulliken charges =  -0.00000
 Mulliken charges with hydrogens summed into heavy atoms:
               1
     1  C    0.096535
     2  C    0.096535
     3  C   -0.187585
     4  C   -0.187585
     5  C    0.291741
     8  O   -0.552717
     9  N   -0.232715
    10  C    0.154112
    13  C    0.154111
    16  N   -0.075715
    17  N   -0.075716
    18  C    0.149894
    22  C    0.158949
    26  C    0.149894
    30  C    0.158952
    34  Rh  -0.098689
 Electronic spatial extent (au):  <R**2>=           4061.9093
 Charge=             -0.0000 electrons
 Dipole moment (field-independent basis, Debye):
    X=             14.4902    Y=              0.0000    Z=              0.3390  Tot=             14.4941
 Quadrupole moment (field-independent basis, Debye-Ang):
   XX=           -156.6355   YY=            -83.2164   ZZ=           -110.0720
   XY=             -0.0001   XZ=              5.7929   YZ=              0.0000
 Traceless Quadrupole moment (field-independent basis, Debye-Ang):
   XX=            -39.9942   YY=             33.4249   ZZ=              6.5693
   XY=             -0.0001   XZ=              5.7929   YZ=              0.0000
 Octapole moment (field-independent basis, Debye-Ang**2):
  XXX=            373.3046  YYY=              0.0005  ZZZ=              0.4910  XYY=             40.8144
  XXY=              0.0006  XXZ=            -13.4131  XZZ=             32.9960  YZZ=              0.0002
  YYZ=             -2.9236  XYZ=             -0.0001
 Hexadecapole moment (field-independent basis, Debye-Ang**3):
 XXXX=          -3915.4350 YYYY=          -2192.9776 ZZZZ=           -448.6046 XXXY=             -0.0025
 XXXZ=             94.2901 YYYX=              0.0005 YYYZ=             -0.0001 ZZZX=             -2.7061
 ZZZY=             -0.0004 XXYY=           -781.4420 XXZZ=           -532.2506 YYZZ=           -461.1981
 XXYZ=             -0.0001 YYXZ=             -2.8300 ZZXY=              0.0001
 N-N= 1.349473826111D+03 E-N=-4.492190679357D+03  KE= 7.066565960337D+02
 PrsmSu:  requested number of processors reduced to:   3 ShMem   1 Linda.
   1 Symmetry operations used in ECPInt.
 ECPInt:  NShTT=   41905 NPrTT=  109675 LenC2=   38023 LenP2D=   76295.
 LDataN:  DoStor=T MaxTD1= 9 Len=  602
 D1PCM: PCM CHGder 1st derivatives, ID1Alg=3 FixD1E=F DoIter=F DoCFld=F I1PDM=0.
 CoulSu:  requested number of processors reduced to:   5 ShMem   1 Linda.
 CoulSu:  requested number of processors reduced to:   5 ShMem   1 Linda.
 Calling FoFJK, ICntrl=      2127 FMM=F ISym2X=0 I1Cent= 0 IOpClX= 0 NMat=1 NMatS=1 NMatT=0.
 Defaulting to unpruned grid for atomic number  45.
 Defaulting to unpruned grid for atomic number  45.
 Defaulting to unpruned grid for atomic number  45.
 Defaulting to unpruned grid for atomic number  45.
 Defaulting to unpruned grid for atomic number  45.
 Defaulting to unpruned grid for atomic number  45.
 Defaulting to unpruned grid for atomic number  45.
 Defaulting to unpruned grid for atomic number  45.
 ***** Axes restored to original set *****
 -------------------------------------------------------------------
 Center     Atomic                   Forces (Hartrees/Bohr)
 Number     Number              X              Y              Z
 -------------------------------------------------------------------
      1        6          -0.000497177   -0.012094535   -0.005740744
      2        6          -0.000497184    0.012094491   -0.005740806
      3        6           0.002868106   -0.002641248   -0.000364796
      4        6           0.002868134    0.002641276   -0.000364786
      5        6          -0.023014351   -0.000000018   -0.004235064
      6        1          -0.004554995   -0.006912729    0.000179333
      7        1          -0.004554996    0.006912724    0.000179333
[...]
 00075565,-0.00007797,-0.00052354,0.00015831,0.00024815,0.00009815,-0.0
 0010647,0.00001604,0.00015063,0.00000592,0.00000697,0.00014865,-0.0022
 0254,0.00319643,-0.02346942,0.00000871,-0.00001944,0.00000341,0.000002
 43,-0.00000087,-0.00000259,0.00000281,0.00001187,0.00000309,-0.0000035
 8,-0.00000909,-0.00000031,0.00000626,0.00003054,-0.00001746,0.00000388
 ,0.00002226,0.00001453,0.00000451,0.00000135,-0.00000158,-0.00000089,0
 .00000296,0.00000040,0.00276583,-0.07066628,0.07974499,0.00009890,-0.0
 0635094,0.02888417,-0.00019070,0.00122943,-0.00592642,0.00206281,0.073
 12703,0.00003185,-0.00001896,-0.00002448,0.00000948,-0.00009680,0.0004
 6206,-0.00000249,0.00000104,-0.00000851,0.00008891,0.00002691,-0.00000
 601,-0.00002630,-0.00002959,-0.00007940,0.00000392,0.00000118,0.000003
 35,0.00000588,-0.00000308,0.00001070,0.00003286,0.00000409,0.00002506,
 0.00008398,0.00006178,0.00017366,0.00001812,-0.00000920,-0.00000560,-0
 .00000080,-0.00000271,0.00000268,-0.00000698,-0.00000077,0.00000212,0.
 00169655,0.00036272,0.00037348,-0.00040558,0.00007124,0.00062840,0.000
 01170,0.00003943,0.00000495,-0.00002207,-0.00021277,-0.00004144,-0.000
 98540,0.00199285,-0.01733805,-0.00001499,0.00001677,-0.00002363,0.0000
 0507,-0.00000376,-0.00000150,0.00000326,-0.00000688,0.00000127,0.00000
 009,0.00000031,0.00000825,0.00000557,-0.00002142,0.00001275,-0.0000087
 0,0.00000716,-0.00001575,0.00000229,-0.00000222,-0.00000398,-0.0000089
 1,0.00000884,-0.00001353,-0.00869429,0.07210397,-0.30113006,0.00061310
 ,-0.00002983,0.00009597,-0.00097994,0.00360167,-0.01006640,0.01184490,
 -0.07622701,0.32729391,-0.00014778,-0.00017557,-0.00003749,0.00024170,
 0.00084770,0.00164108,0.00010232,-0.00011260,-0.00000665,-0.00018825,-
 0.00047151,-0.00015415,0.00020094,0.00040254,-0.00007102,0.00000129,-0
 .00001582,0.00000100,0.00001429,0.00002576,0.00003763,-0.00020754,-0.0
 0010546,-0.00000400,0.00001768,-0.00034571,0.00006805,-0.00006499,-0.0
 0000444,0.00004541,0.00001020,-0.00000865,-0.00000059,0.00000696,-0.00
 000611,0.00000070,-0.00363749,-0.00549775,0.03786553,-0.00565243,-0.00
 001647,0.00336043,0.00074986,-0.00098681,0.00139003,0.00014314,0.00001
 821,0.00045503,-0.09436594,-0.00402384,-0.00783320,0.00003145,-0.00007
 886,-0.00001367,-0.00000927,0.00000603,-0.00000195,0.00000405,-0.00000
 147,0.00001395,-0.00000714,-0.00000626,0.00000557,0.00008636,0.0001253
 7,-0.00000488,-0.00000808,0.00002898,0.00004051,-0.00000657,0.00001184
 ,-0.00000013,-0.00001255,-0.00001290,-0.00000663,-0.00243912,0.0059178
 0,-0.03009762,0.00067653,0.00036815,0.00074943,0.00036951,0.00003119,-
 0.00170867,-0.00352981,-0.00276386,-0.00321867,0.62846748,0.00004788,0
 .00002004,-0.00005177,-0.00108996,-0.00129724,0.00085850,-0.00004811,0
 .00014013,-0.00003527,0.00017918,0.00050239,-0.00012587,-0.00025008,-0
 .00032639,-0.00001823,-0.00000003,0.00002107,0.00000802,-0.00001122,-0
 .00001355,-0.00003233,0.00023490,0.00008945,0.00003096,-0.00072850,-0.
 00000481,0.00026483,0.00013515,0.00018378,-0.00006082,-0.00001662,0.00
 003744,0.00002211,0.00002468,0.00001144,-0.00000023,0.00295874,-0.0018
 6872,-0.00554304,0.00172990,-0.00004073,-0.00161126,0.00150642,0.00194
 379,-0.00319061,0.00003735,-0.00013114,-0.00239123,-0.00679834,-0.0826
 3595,0.05243015,-0.00000093,0.00032503,-0.00006929,0.00000735,-0.00001
 839,-0.00000659,-0.00003786,0.00005888,-0.00000470,-0.00000038,0.00003
 054,0.00002142,-0.00012537,-0.00069674,0.00002460,-0.00004228,-0.00009
 124,-0.00021049,-0.00000875,-0.00001682,0.00003621,-0.00002071,0.00000
 892,0.00001094,-0.00177416,0.00131732,-0.02229699,-0.00144333,0.001012
 70,-0.00326016,0.00057255,0.00038850,0.00010960,-0.00251850,-0.0014465
 2,-0.00285380,0.01174878,0.56682241,0.00011401,0.00013105,0.00000212,0
 .00031185,0.00189710,0.00118495,-0.00020327,0.00000856,-0.00003128,-0.
 00100810,-0.00122200,-0.00024401,0.00074695,0.00051576,-0.00011912,-0.
 00004768,-0.00005136,0.00002946,-0.00001455,0.00003214,0.00008303,-0.0
 0091813,-0.00016261,-0.00005462,0.00078856,-0.00049313,-0.00066255,0.0
 0040750,-0.00009729,-0.00024347,0.00000684,-0.00000757,0.00001958,-0.0
 0013611,-0.00011331,0.00001378,0.01073490,0.00403178,-0.02555218,0.001
 26292,0.00067194,0.00032767,-0.00308192,0.00079092,0.00135026,0.000028
 14,-0.00178100,0.00019914,-0.00020373,0.01086619,-0.19047910,-0.000448
 96,-0.00008829,-0.00028875,0.00003768,0.00001320,-0.00000380,0.0000933
 4,-0.00025827,0.00007297,0.00000827,0.00001746,0.00001275,-0.00000488,
 -0.00002460,0.00060200,-0.00005647,-0.00017340,-0.00012990,0.00002414,
 -0.00000051,-0.00003037,-0.00001368,-0.00000233,-0.00003146,-0.0098082
 9,0.00285749,-0.03061429,0.00213213,0.00198013,0.00203618,0.00164445,0
 .00092068,0.00116397,-0.00117850,-0.00087827,0.00006169,-0.00482979,0.
 04843530,0.48939013,-0.00001737,-0.00010415,-0.00009012,0.00026033,0.0
 0061360,0.00005294,0.00009439,-0.00006152,0.00002425,-0.00001187,-0.00
 017443,0.00002057,0.00005368,0.00018356,-0.00000974,0.00000605,-0.0000
 1064,0.00001893,0.00002050,-0.00000064,-0.00000676,-0.00004304,-0.0000
 5676,-0.00000003,0.00024777,0.00011985,-0.00031407,-0.00001771,-0.0000
 2991,-0.00000395,0.00000305,-0.00001195,-0.00000088,0.00000128,-0.0000
 0212,0.00000612,0.00133233,-0.00018455,-0.00024454,0.00005552,-0.00011
 359,0.00014944,0.00023698,-0.00028478,-0.00016561,-0.00007572,-0.00010
 871,-0.00001525,0.00141766,-0.00133991,-0.00114434,-0.00001234,-0.0000
 0094,-0.00000768,0.00000692,-0.00000097,0.00000272,0.00000279,-0.00000
 064,0.00000229,0.00000377,-0.00000451,0.00000229,-0.00000657,0.0000087
 5,0.00002414,0.00000006,-0.00000688,-0.00000065,0.00000722,-0.00000936
 ,-0.00000213,-0.00000817,-0.00000628,0.00000175,0.00082041,-0.00011811
 ,-0.00098831,-0.00019773,0.00002412,0.00001722,0.00021637,0.00015146,-
 0.00004565,0.00034534,-0.00006084,0.00008466,-0.26642290,0.05581815,0.
 09972424,0.28223005,-0.00002086,0.00002304,-0.00002008,0.00023762,0.00
 025056,-0.00029373,0.00001423,-0.00002865,0.00000114,0.00001923,-0.000
 08002,0.00006680,0.00002857,0.00005244,0.00002093,-0.00000198,-0.00000
 294,0.00000123,-0.00000054,0.00000107,-0.00000145,-0.00003170,-0.00001
 604,-0.00001215,-0.00001012,-0.00005386,-0.00001879,-0.00002696,0.0000
 1762,0.00001501,0.00000414,-0.00000308,-0.00000213,0.00001169,0.000000
 83,-0.00000074,0.00083844,0.00025120,0.00162965,-0.00056283,0.00042966
 ,0.00027228,-0.00040868,0.00033646,0.00003974,0.00010533,0.00002233,-0
 .00007642,-0.00988806,0.00082342,0.00553910,0.00000534,-0.00001025,-0.
 00000172,0.00000131,-0.00000460,0.00000039,-0.00000004,0.00000597,0.00
 000566,-0.00000060,0.00000135,0.00000222,-0.00001184,-0.00001682,0.000
 00051,0.00000259,0.00000791,-0.00000728,0.00000936,-0.00001290,0.00000
 071,-0.00000994,-0.00000375,0.00000245,0.00016767,-0.00020352,-0.00046
 801,0.00022008,-0.00002280,0.00012364,-0.00010918,0.00016520,-0.000350
 50,-0.00012184,-0.00011351,0.00006799,0.05806784,-0.06336724,-0.026985
 36,-0.06064478,0.06341281,-0.00004835,-0.00002724,-0.00004119,-0.00025
 388,-0.00052172,-0.00019525,0.00001737,0.00006064,-0.00000778,0.000076
 52,0.00024961,0.00012309,-0.00005035,-0.00008003,0.00000966,0.00000054
 ,0.00000799,0.00000352,-0.00000377,-0.00001004,-0.00002700,0.00007831,
 0.00003460,0.00000751,0.00023471,0.00001355,0.00019941,0.00000646,0.00
 002419,0.00000155,-0.00000038,0.00000795,0.00000286,-0.00000090,0.0000
 0700,-0.00000240,-0.00206654,0.00070310,-0.00599403,0.00188462,-0.0000
 3165,-0.00088024,-0.00016969,-0.00005165,0.00005136,0.00003196,0.00017
 155,-0.00006431,0.03142669,-0.00485807,-0.01875901,0.00002633,0.000012
 12,0.00000830,-0.00000783,0.00000657,0.00000086,-0.00001062,0.00000712
 ,-0.00000604,-0.00000092,0.00000158,-0.00000398,-0.00000013,-0.0000362
 1,-0.00003037,-0.00000467,-0.00000065,-0.00000359,-0.00000213,-0.00000
 071,0.00001491,-0.00000302,0.00000175,0.00000276,0.00225445,0.00014696
 ,0.00102576,-0.00021439,-0.00005480,-0.00008691,-0.00084713,-0.0002013
 9,-0.00033510,-0.00014445,0.00024455,0.00030329,0.09078061,-0.02428304
 ,-0.09124295,-0.10749763,0.02425084,0.10700668,0.00003529,0.00000697,-
 0.00002006,-0.00032287,-0.00026343,-0.00009038,0.00001766,-0.00000888,
 0.00001596,0.00017266,0.00011758,0.00001959,-0.00011577,-0.00009042,-0
 .00002565,0.00000857,0.00000707,0.00000096,-0.00001507,0.00000284,0.00
 002481,0.00012502,0.00002487,0.00000958,-0.00013976,0.00043558,-0.0002
 2593,-0.00003398,-0.00003178,0.00000922,-0.00000433,-0.00000241,-0.000
 00387,0.00000691,0.00001342,0.00000147,0.00115844,-0.00223911,0.000511
 78,0.00000089,0.00006773,-0.00010127,-0.00005970,0.00027818,0.00002236
 ,-0.00013518,0.00014715,0.00013629,-0.00051543,0.00116292,-0.00147315,
 0.00003373,-0.00000356,0.00004190,0.00000118,-0.00000030,0.00000324,-0
 .00000424,0.00002283,-0.00001383,0.00000202,-0.00000388,-0.00000870,-0
 .00000808,0.00004228,-0.00005647,0.00001342,0.00001886,0.00002253,0.00
 000006,-0.00000259,-0.00000467,0.00000504,-0.00000033,0.00000299,0.000
 21919,0.00140049,-0.00014317,0.00001842,-0.00018115,-0.00019206,-0.000
 08997,0.00011704,0.00012669,-0.00005406,-0.00022567,0.00008732,-0.0596
 3602,0.04290796,-0.00279314,-0.00312950,0.02737737,-0.00249426,0.05586
 557,0.00009251,0.00031836,0.00010129,0.00025114,-0.00017648,0.00004203
 ,-0.00023095,0.00006362,-0.00003924,-0.00023739,-0.00016498,-0.0000778
 2,0.00044469,0.00001479,0.00003394,-0.00003448,-0.00001586,-0.00001791
 ,-0.00004172,0.00001800,0.00001315,-0.00045377,-0.00000049,-0.00004150
 ,-0.00028028,-0.00008654,0.00011477,0.00014645,0.00005902,-0.00006610,
 0.00001087,0.00001705,0.00000624,-0.00003317,-0.00004217,-0.00000859,0
 .00067288,0.00085993,-0.00118104,-0.00022759,0.00031933,-0.00006822,-0
 .00105067,-0.00005723,0.00062730,0.00016210,-0.00020926,-0.00026148,0.
 00195921,-0.01116245,0.00808557,-0.00013247,0.00004160,-0.00008704,0.0
 0000961,0.00000955,-0.00000532,0.00001299,-0.00007951,0.00001336,-0.00
 000385,0.00002226,-0.00000716,-0.00002898,-0.00009124,0.00017340,-0.00
 001886,-0.00005458,-0.00006450,0.00000688,0.00000791,0.00000065,-0.000
 00020,0.00001708,0.00000268,-0.00097488,0.00203219,-0.00124975,0.00084
 610,0.00042352,0.00080670,0.00009022,-0.00017749,0.00003060,-0.0000249
 6,0.00038418,-0.00003748,0.04271366,-0.28896651,0.01636155,0.00004612,
 -0.00545940,-0.00007705,-0.04821497,0.31560810,0.00001722,-0.00000394,
 0.00002022,0.00026704,-0.00011996,0.00002162,0.00000534,-0.00003107,-0
 .00000744,0.00010605,0.00007306,0.00001758,-0.00003485,-0.00003251,0.0
 0001599,0.00000591,0.00000306,-0.00000780,0.00001303,0.00000020,0.0000
 0577,0.00006433,0.00000740,0.00000144,-0.00023793,-0.00017309,0.000134
 19,-0.00014201,-0.00002713,0.00007128,0.00000674,-0.00000426,-0.000010
 25,0.00002182,0.00001320,-0.00000297,-0.00349768,0.00226309,0.00100547
 ,-0.00006912,-0.00025020,0.00025265,0.00062511,-0.00093442,0.00053536,
 -0.00003068,0.00043340,0.00069489,-0.00632762,0.03753217,-0.01648623,0
 .00009951,-0.00007034,0.00008488,-0.00000878,0.00000250,0.00000158,-0.
 00000865,0.00003736,-0.00001940,-0.00000420,-0.00001453,-0.00001575,0.
 00004051,0.00021049,-0.00012990,0.00002253,0.00006450,0.00008305,-0.00
 000065,0.00000728,-0.00000359,0.00000631,0.00000539,0.00000447,0.00133
 875,0.00354967,0.00180173,0.00019528,-0.00113039,0.00014557,-0.0000707
 3,-0.00029527,-0.00012218,0.00019426,-0.00042595,0.00023790,-0.0020307
 8,0.01234617,-0.05129870,0.00096054,-0.01252272,0.00185633,0.00410046,
 -0.02597552,0.06109682,0.00011056,0.00015593,0.00007846,0.00025491,-0.
 00052905,0.00019147,-0.00012310,0.00005517,-0.00002612,0.00004034,0.00
 022979,-0.00012092,-0.00004354,-0.00023546,0.00004131,-0.00000602,0.00
 000863,-0.00001862,-0.00000719,0.00000978,0.00000523,0.00003753,0.0000
 6390,-0.00000555,-0.00009767,-0.00001463,0.00009987,0.00002430,0.00000
 536,-0.00001269,-0.00000512,0.00001023,-0.00000194,-0.00000576,-0.0000
 0292,-0.00000615,0.00031457,0.00064875,0.00079904,0.00007310,0.0000190
 9,-0.00014892,0.00007801,0.00002935,0.00005469,-0.00000398,0.00007855,
 0.00009586,0.00009445,0.00101038,0.00085527,-0.00001130,0.00000126,0.0
 0001631,-0.00000027,0.00000121,-0.00000223,0.00000183,-0.00001090,-0.0
 0001006,-0.00000219,0.00000089,-0.00000890,-0.00001255,0.00002071,-0.0
 0001368,0.00000504,0.00000020,0.00000631,-0.00000817,0.00000994,-0.000
 00302,0.00001548,0.00002327,0.00000058,0.00061710,0.00067127,-0.000042
 24,-0.00005007,-0.00014037,0.00000380,0.00048410,0.00001583,0.00007404
 ,0.00032301,-0.00031760,-0.00012014,-0.19459609,-0.10451671,-0.0916297
 2,-0.01745230,-0.01477521,-0.01291701,0.00560762,0.00430657,0.00403075
 ,0.20390986,0.00000024,-0.00001236,-0.00001701,-0.00017638,0.00022779,
 0.00023294,0.00000807,-0.00003118,-0.00000770,0.00003542,-0.00005680,0
 .00001046,0.00001574,0.00005124,0.00002079,0.00000140,-0.00000457,-0.0
 0000201,0.00002169,-0.00001015,-0.00002715,-0.00000314,-0.00002090,0.0
 0000279,-0.00024752,0.00002097,0.00003940,-0.00002743,-0.00000235,0.00
 001054,0.00000573,0.00000024,-0.00000420,0.00000446,0.00000039,0.00000
 163,-0.00017230,0.00039685,-0.00032148,0.00014390,-0.00012665,0.000032
 84,-0.00009573,-0.00039650,0.00002437,-0.00002737,0.00014746,0.0000136
 0,0.00893923,0.00503352,0.00533689,0.00002036,0.00000499,0.00001241,0.
 00000124,0.00000258,0.00000080,-0.00000689,0.00000974,-0.00000604,-0.0
 0000196,0.00000296,-0.00000884,0.00001290,0.00000892,0.00000233,0.0000
 0033,0.00001708,-0.00000539,0.00000628,-0.00000375,-0.00000175,-0.0000
 2327,-0.00001495,-0.00000111,-0.00017539,0.00025109,0.00098514,0.00013
 065,0.00048807,0.00036473,-0.00013096,-0.00016225,0.00007981,0.0000543
 2,0.00049874,0.00035946,-0.10708367,-0.12463094,-0.06765030,0.00628811
 ,0.00409173,0.00442718,-0.02212299,-0.01395578,-0.01334696,0.11354136,
 0.12941251,0.00010090,0.00011725,-0.00004342,0.00072977,0.00026047,-0.
 00040935,-0.00005129,-0.00004579,-0.00002369,0.00005199,-0.00006917,0.
 00007406,0.00026753,0.00010576,0.00000676,-0.00000398,-0.00001454,0.00
 000622,-0.00000975,0.00000971,0.00000967,-0.00021154,-0.00003243,-0.00
 001999,-0.00015356,0.00015833,0.00033405,-0.00004549,0.00002375,0.0000
 3004,0.00001516,-0.00000430,-0.00000175,0.00001239,-0.00000889,-0.0000
 0744,-0.00147963,-0.00069170,0.00083086,-0.00014302,0.00000439,0.00023
 506,0.00022137,-0.00013683,-0.00012415,0.00001447,0.00018199,0.0000234
 1,-0.02646441,-0.01697391,-0.02023298,0.00001449,0.00001177,0.00000964
 ,0.00000362,0.00000176,0.00000273,-0.00000785,-0.00000259,-0.00001464,
 -0.00000325,-0.00000040,-0.00001353,-0.00000663,-0.00001094,-0.0000314
 6,0.00000299,-0.00000268,0.00000447,0.00000175,-0.00000245,0.00000276,
 0.00000058,0.00000111,0.00002226,0.00170557,0.00284182,-0.00596810,0.0
 0013961,-0.00005645,0.00004204,-0.00008376,0.00017672,0.00025899,-0.00
 139745,-0.00108458,-0.00101673,-0.08343259,-0.06126237,-0.10308551,0.0
 0919619,0.00778338,0.00742975,0.00250207,0.00102397,0.00214190,0.09868
 713,0.06828117,0.11981130,-0.01484790,-0.01376143,0.00277195,-0.014847
 91,0.01376142,0.00277194,-0.00132466,0.00283841,0.00019352,-0.00132466
 ,-0.00283840,0.00019353,0.00269316,0.,0.00004072,0.00036583,0.00012820
 ,0.00004543,0.00036583,-0.00012820,0.00004543,-0.00339572,0.,-0.000219
 38,-0.16337329,0.,0.02049576,-0.00493905,-0.01019383,-0.00055253,0.000
 32205,-0.00007627,-0.00019500,-0.00234308,0.00006417,0.00074703,-0.004
 93906,0.01019383,-0.00055252,0.00032205,0.00007627,-0.00019500,-0.0023
 4308,-0.00006417,0.00074703,-0.03509946,0.00446018,0.00250833,-0.03509
 946,-0.00446020,0.00250833,0.00257456,0.00845783,0.00108711,0.00033011
 ,0.00050094,0.00026806,-0.00096558,0.00223639,-0.00140260,0.00008894,0
 .00011853,-0.00013425,-0.00019180,-0.00152285,-0.00168900,0.00097225,-
 0.00021720,0.00034220,0.00003276,0.00048565,-0.00008052,0.00043352,-0.
 00106355,-0.00017339,0.00257457,-0.00845783,0.00108711,-0.00096558,-0.
 00223640,-0.00140260,0.00033010,-0.00050094,0.00026806,0.00008894,-0.0
 0011853,-0.00013425,-0.00019180,0.00152285,-0.00168900,0.00003276,-0.0
 0048565,-0.00008052,0.00097225,0.00021720,0.00034220,0.00043352,0.0010
 6355,-0.00017339,0.27325890,-0.01402486,-0.00036710,0.00111696,0.01402
 484,-0.00036708,-0.00111696,0.00052603,-0.00369174,-0.00013684,-0.0005
 2603,-0.00369174,0.00013684,0.,0.00166354,0.,-0.00053026,0.00015949,-0
 .00034459,0.00053027,0.00015948,0.00034459,0.,-0.00043858,0.,0.,-0.023
 09208,0.,-0.01413109,-0.00803985,0.00461210,0.00056165,0.00013849,-0.0
 0067471,0.00096706,0.00047879,0.00012200,0.01413109,-0.00803984,-0.004
 61210,-0.00056164,0.00013849,0.00067471,-0.00096706,0.00047880,-0.0001
 2201,-0.01226809,-0.03955199,-0.00084778,0.01226808,-0.03955198,0.0008
 4778,0.00439261,-0.00716800,0.00470916,-0.00006585,0.00017231,-0.00064
 049,-0.00033817,0.00186871,-0.00117643,-0.00074472,-0.00012000,-0.0008
 2887,-0.00140391,-0.00736092,-0.01045837,0.00075967,0.00048346,0.00119
 068,-0.00008325,-0.00049420,0.00014458,0.00037459,-0.00123774,0.000583
 33,-0.00439261,-0.00716800,-0.00470916,0.00033817,0.00186871,0.0011764
 3,0.00006585,0.00017231,0.00064049,0.00074472,-0.00012000,0.00082887,0
 .00140391,-0.00736092,0.01045837,0.00008325,-0.00049420,-0.00014458,-0
 .00075967,0.00048346,-0.00119068,-0.00037459,-0.00123774,-0.00058333,0
 .00000002,0.15132765,-0.00007119,0.00207252,0.00192548,-0.00007120,-0.
 00207251,0.00192549,0.00088307,-0.00151067,0.00110607,0.00088307,0.001
 51066,0.00110607,-0.00137784,0.,-0.00052432,-0.00020321,0.00000975,0.0
 0020875,-0.00020321,-0.00000975,0.00020875,0.00160172,0.,0.00014058,0.
 02261662,0.,-0.00638222,0.00115129,0.00421541,0.00027016,-0.00041334,0
 .00028312,0.00023363,0.00155748,0.00023672,0.00012332,0.00115128,-0.00
 421541,0.00027016,-0.00041334,-0.00028312,0.00023364,0.00155748,-0.000
 23672,0.00012332,0.00210508,0.00056071,-0.03263226,0.00210509,-0.00056
 070,-0.03263226,0.00122867,0.00608418,0.00017927,-0.00015995,-0.000127
 81,0.00019826,-0.00121037,0.00127741,-0.00004012,0.00030537,0.00061064
 ,0.00007357,-0.00300249,-0.01270927,-0.00243760,0.00000740,-0.00182852
 ,-0.00212649,0.00024904,-0.00093738,-0.00036744,0.00004781,-0.00116066
 ,-0.00028322,0.00122866,-0.00608418,0.00017927,-0.00121037,-0.00127741
 ,-0.00004012,-0.00015994,0.00012781,0.00019826,0.00030537,-0.00061064,
 0.00007357,-0.00300250,0.01270928,-0.00243762,0.00024904,0.00093738,-0
 .00036743,0.00000740,0.00182851,-0.00212649,0.00004782,0.00116066,-0.0
 0028321,-0.02778981,-0.00000002,0.07390317\\0.00003488,0.00000660,0.00
 000318,0.00003487,-0.00000660,0.00000318,-0.00002789,-0.00000277,0.000
 00269,-0.00002789,0.00000277,0.00000269,0.00004015,0.,0.00000698,-0.00
 000100,0.00000062,0.00000132,-0.00000100,-0.00000062,0.00000132,-0.000
 03179,0.,0.00000168,-0.00002468,0.,-0.00000517,-0.00001692,-0.00000048
 ,0.00001095,-0.00000373,0.00000039,0.00000711,0.00000126,0.00000184,-0
 .00000133,-0.00001693,0.00000048,0.00001096,-0.00000374,-0.00000039,0.
 00000711,0.00000125,-0.00000184,-0.00000133,0.00000032,0.00001950,-0.0
 0000748,0.00000031,-0.00001950,-0.00000749,0.00000820,-0.00002370,-0.0
 0000641,0.00000227,0.00000145,-0.00000227,-0.00000225,0.00000173,0.000
 00078,0.00000159,0.00000466,-0.00000147,0.00000918,-0.00000942,-0.0000
 0537,-0.00000222,0.00000265,0.00000343,0.00000249,0.00000181,-0.000008
 65,-0.00000029,0.00000171,0.00000260,0.00000820,0.00002371,-0.00000641
 ,-0.00000225,-0.00000173,0.00000077,0.00000227,-0.00000145,-0.00000227
 ,0.00000159,-0.00000466,-0.00000148,0.00000920,0.00000941,-0.00000536,
 0.00000249,-0.00000181,-0.00000865,-0.00000223,-0.00000265,0.00000343,
 -0.00000029,-0.00000171,0.00000260,0.00000459,0.,-0.00000164\\\@
 The archive entry for this job was punched.


 HICKORY, DICKORY, DOCK
 TWO MICE RAN UP THE CLOCK
 THE CLOCK STRUCK ONE...
 THE OTHER ESCAPED WITH MINOR INJURIES.
 Job cpu time:       3 days  1 hours 31 minutes 36.4 seconds.
 Elapsed time:       0 days  9 hours 41 minutes 16.2 seconds.
 File lengths (MBytes):  RWF=   1451 Int=      0 D2E=      0 Chk=     58 Scr=      1
 Normal termination of Gaussian 16 at Fri Mar  8 04:13:55 2024.
