 Entering Gaussian System, Link 0=/cm/shared/apps//g16/g16
 Input=ZRhMeH_sigma.gjf
 Output=ZRhMeH_sigma.log
 Initial command:
 /cm/shared/apps//g16/l1.exe "/local/mvanvleet/pbs.14055.josephine/Gau-2354875.inp" -scrdir="/local/mvanvleet/pbs.14055.josephine/"
 Entering Link 1 = /cm/shared/apps//g16/l1.exe PID=   2354878.
  
 Copyright (c) 1988-2019, Gaussian, Inc.  All Rights Reserved.
  
 This is part of the Gaussian(R) 16 program.  It is based on
 the Gaussian(R) 09 system (copyright 2009, Gaussian, Inc.),
 the Gaussian(R) 03 system (copyright 2003, Gaussian, Inc.),
 the Gaussian(R) 98 system (copyright 1998, Gaussian, Inc.),
 the Gaussian(R) 94 system (copyright 1995, Gaussian, Inc.),
 the Gaussian 92(TM) system (copyright 1992, Gaussian, Inc.),
 the Gaussian 90(TM) system (copyright 1990, Gaussian, Inc.),
 the Gaussian 88(TM) system (copyright 1988, Gaussian, Inc.),
 the Gaussian 86(TM) system (copyright 1986, Carnegie Mellon
 University), and the Gaussian 82(TM) system (copyright 1983,
 Carnegie Mellon University). Gaussian is a federally registered
 trademark of Gaussian, Inc.
  
 This software contains proprietary and confidential information,
 including trade secrets, belonging to Gaussian, Inc.
  
 This software is provided under written license and may be
 used, copied, transmitted, or stored only in accord with that
 written license.
  
 The following legend is applicable only to US Government
 contracts under FAR:
  
                    RESTRICTED RIGHTS LEGEND
  
 Use, reproduction and disclosure by the US Government is
 subject to restrictions as set forth in subparagraphs (a)
 and (c) of the Commercial Computer Software - Restricted
 Rights clause in FAR 52.227-19.
  
 Gaussian, Inc.
 340 Quinnipiac St., Bldg. 40, Wallingford CT 06492
  
  
 ---------------------------------------------------------------
 Warning -- This program may not be used in any manner that
 competes with the business of Gaussian, Inc. or will provide
 assistance to any competitor of Gaussian, Inc.  The licensee
 of this program is prohibited from giving any competitor of
 Gaussian, Inc. access to this program.  By using this program,
 the user acknowledges that Gaussian, Inc. is engaged in the
 business of creating and licensing software in the field of
 computational chemistry and represents and warrants to the
 licensee that it is not a competitor of Gaussian, Inc. and that
 it will not use this program in any manner prohibited above.
 ---------------------------------------------------------------
  

 Cite this work as:
 Gaussian 16, Revision C.01,
 M. J. Frisch, G. W. Trucks, H. B. Schlegel, G. E. Scuseria, 
 M. A. Robb, J. R. Cheeseman, G. Scalmani, V. Barone, 
 G. A. Petersson, H. Nakatsuji, X. Li, M. Caricato, A. V. Marenich, 
 J. Bloino, B. G. Janesko, R. Gomperts, B. Mennucci, H. P. Hratchian, 
 J. V. Ortiz, A. F. Izmaylov, J. L. Sonnenberg, D. Williams-Young, 
 F. Ding, F. Lipparini, F. Egidi, J. Goings, B. Peng, A. Petrone, 
 T. Henderson, D. Ranasinghe, V. G. Zakrzewski, J. Gao, N. Rega, 
 G. Zheng, W. Liang, M. Hada, M. Ehara, K. Toyota, R. Fukuda, 
 J. Hasegawa, M. Ishida, T. Nakajima, Y. Honda, O. Kitao, H. Nakai, 
 T. Vreven, K. Throssell, J. A. Montgomery, Jr., J. E. Peralta, 
 F. Ogliaro, M. J. Bearpark, J. J. Heyd, E. N. Brothers, K. N. Kudin, 
 V. N. Staroverov, T. A. Keith, R. Kobayashi, J. Normand, 
 K. Raghavachari, A. P. Rendell, J. C. Burant, S. S. Iyengar, 
 J. Tomasi, M. Cossi, J. M. Millam, M. Klene, C. Adamo, R. Cammi, 
 J. W. Ochterski, R. L. Martin, K. Morokuma, O. Farkas, 
 J. B. Foresman, and D. J. Fox, Gaussian, Inc., Wallingford CT, 2019.
 
 ******************************************
 Gaussian 16:  ES64L-G16RevC.01  3-Jul-2019
                 7-Mar-2024 
 ******************************************
 %nprocshared=8
 Will use up to    8 processors via shared memory.
 %chk=ZRhMeH_sigma.chk
 %mem=1GB
 ----------------------------------------------------------
 # wb97xd def2TZVPP SCRF=(solvent=dichloromethane) opt freq
 ----------------------------------------------------------
 1/18=20,19=15,26=3,38=1/1,3;
 2/9=110,12=2,17=6,18=5,40=1/2;
 3/5=44,7=202,11=2,25=1,30=1,70=2201,71=1,72=9,74=-58/1,2,3;
 4//1;
 5/5=2,38=5,53=9/2;
 6/7=2,8=2,9=2,10=2,28=1/1;
 7//1,2,3,16;
 1/18=20,19=15,26=3/3(2);
 2/9=110/2;
 99//99;
 2/9=110/2;
 3/5=44,7=202,11=2,25=1,30=1,70=2205,71=1,72=9,74=-58/1,2,3;
 4/5=5,16=3,69=1/1;
 5/5=2,38=5,53=9/2;
 7//1,2,3,16;
 1/18=20,19=15,26=3/3(-5);
 2/9=110/2;
 6/7=2,8=2,9=2,10=2,19=2,28=1/1;
 99/9=1/99;
 ------------
 ZRhMeH_sigma
 ------------
 Symbolic Z-matrix:
 Charge =  0 Multiplicity = 1
 C                     1.53315   1.17883  -0.30889 
 C                     1.53315  -1.17884  -0.30889 
 C                     2.86908   1.22959  -0.0018 
 C                     2.86908  -1.2296   -0.00179 
 C                     3.64916   0.        0.18844 
 H                     3.38795   2.18916   0.09015 
 H                     3.38795  -2.18917   0.09016 
 O                     4.8558    0.        0.47577 
 N                     0.86296   0.       -0.46087 
 C                     0.61531   2.33551  -0.6239 
 H                     0.46619   2.37492  -1.71929 
 H                     1.01272   3.31385  -0.28373 
 C                     0.61531  -2.33551  -0.62389 
 H                     0.46619  -2.37493  -1.71929 
 H                     1.01271  -3.31386  -0.28372 
 N                    -0.74266   2.0936   -0.02402 
 N                    -0.74267  -2.0936   -0.02402 
 C                    -3.39918   0.        0.5741 
 H                    -2.64004   0.00001   1.38713 
 H                    -4.01954   0.90277   0.66061 
 H                    -4.01952  -0.90278   0.66062 
 C                    -1.73852   2.93864  -0.71102 
 H                    -2.71873   2.8019   -0.22632 
 H                    -1.45228   4.0111   -0.6488 
 H                    -1.80644   2.63002  -1.76511 
 C                    -0.69718   2.46933   1.40926 
 H                    -0.48856   3.55709   1.51061 
 H                    -1.6685    2.23872   1.87598 
 H                     0.09642   1.89163   1.90785 
 C                    -1.73853  -2.93863  -0.71103 
 H                    -1.45228  -4.0111   -0.6488 
 H                    -2.71874  -2.8019   -0.22633 
 H                    -1.80644  -2.63002  -1.76511 
 C                    -0.6972   -2.46933   1.40926 
 H                    -1.66851  -2.23871   1.87597 
 H                    -0.48858  -3.55708   1.51061 
 H                     0.0964   -1.89163   1.90785 
 H                    -2.95363   0.00001  -0.47711 
 Rh                   -1.04436   0.       -0.1266 
 
 Add virtual bond connecting atoms Rh39       and H38        Dist= 3.67D+00.

 GradGradGradGradGradGradGradGradGradGradGradGradGradGradGradGradGradGrad
 Berny optimization.
 Initialization pass.
                           ----------------------------
                           !    Initial Parameters    !
                           ! (Angstroms and Degrees)  !
 --------------------------                            --------------------------
 ! Name  Definition              Value          Derivative Info.                !
 --------------------------------------------------------------------------------
 ! R1    R(1,3)                  1.3717         estimate D2E/DX2                !
 ! R2    R(1,9)                  1.3645         estimate D2E/DX2                !
 ! R3    R(1,10)                 1.5098         estimate D2E/DX2                !
 ! R4    R(2,4)                  1.3717         estimate D2E/DX2                !
 ! R5    R(2,9)                  1.3645         estimate D2E/DX2                !
 ! R6    R(2,13)                 1.5098         estimate D2E/DX2                !
 ! R7    R(3,5)                  1.4685         estimate D2E/DX2                !
 ! R8    R(3,6)                  1.0947         estimate D2E/DX2                !
 ! R9    R(4,5)                  1.4685         estimate D2E/DX2                !
 ! R10   R(4,7)                  1.0947         estimate D2E/DX2                !
 ! R11   R(5,8)                  1.2404         estimate D2E/DX2                !
 ! R12   R(9,39)                 1.9364         estimate D2E/DX2                !
 ! R13   R(10,11)                1.1062         estimate D2E/DX2                !
 ! R14   R(10,12)                1.1094         estimate D2E/DX2                !
 ! R15   R(10,16)                1.5041         estimate D2E/DX2                !
 ! R16   R(13,14)                1.1062         estimate D2E/DX2                !
 ! R17   R(13,15)                1.1094         estimate D2E/DX2                !
 ! R18   R(13,17)                1.5042         estimate D2E/DX2                !
 ! R19   R(16,22)                1.4757         estimate D2E/DX2                !
 ! R20   R(16,26)                1.4824         estimate D2E/DX2                !
 ! R21   R(16,39)                2.1177         estimate D2E/DX2                !
 ! R22   R(17,30)                1.4757         estimate D2E/DX2                !
 ! R23   R(17,34)                1.4824         estimate D2E/DX2                !
 ! R24   R(17,39)                2.1177         estimate D2E/DX2                !
 ! R25   R(18,19)                1.1123         estimate D2E/DX2                !
 ! R26   R(18,20)                1.0988         estimate D2E/DX2                !
 ! R27   R(18,21)                1.0988         estimate D2E/DX2                !
 ! R28   R(18,38)                1.1417         estimate D2E/DX2                !
 ! R29   R(22,23)                1.102          estimate D2E/DX2                !
 ! R30   R(22,24)                1.1117         estimate D2E/DX2                !
 ! R31   R(22,25)                1.1004         estimate D2E/DX2                !
 ! R32   R(26,27)                1.1122         estimate D2E/DX2                !
 ! R33   R(26,28)                1.102          estimate D2E/DX2                !
 ! R34   R(26,29)                1.101          estimate D2E/DX2                !
 ! R35   R(30,31)                1.1118         estimate D2E/DX2                !
 ! R36   R(30,32)                1.102          estimate D2E/DX2                !
 ! R37   R(30,33)                1.1004         estimate D2E/DX2                !
 ! R38   R(34,35)                1.102          estimate D2E/DX2                !
 ! R39   R(34,36)                1.1122         estimate D2E/DX2                !
 ! R40   R(34,37)                1.101          estimate D2E/DX2                !
 ! R41   R(38,39)                1.9412         estimate D2E/DX2                !
 ! A1    A(3,1,9)              122.3609         estimate D2E/DX2                !
 ! A2    A(3,1,10)             127.6194         estimate D2E/DX2                !
 ! A3    A(9,1,10)             109.8789         estimate D2E/DX2                !
 ! A4    A(4,2,9)              122.3607         estimate D2E/DX2                !
 ! A5    A(4,2,13)             127.6197         estimate D2E/DX2                !
 ! A6    A(9,2,13)             109.8789         estimate D2E/DX2                !
 ! A7    A(1,3,5)              121.0213         estimate D2E/DX2                !
 ! A8    A(1,3,6)              120.8534         estimate D2E/DX2                !
 ! A9    A(5,3,6)              118.1159         estimate D2E/DX2                !
 ! A10   A(2,4,5)              121.021          estimate D2E/DX2                !
 ! A11   A(2,4,7)              120.8534         estimate D2E/DX2                !
 ! A12   A(5,4,7)              118.1162         estimate D2E/DX2                !
 ! A13   A(3,5,4)              113.7099         estimate D2E/DX2                !
 ! A14   A(3,5,8)              123.1446         estimate D2E/DX2                !
 ! A15   A(4,5,8)              123.1443         estimate D2E/DX2                !
 ! A16   A(1,9,2)              119.5196         estimate D2E/DX2                !
 ! A17   A(1,9,39)             117.6815         estimate D2E/DX2                !
 ! A18   A(2,9,39)             117.6813         estimate D2E/DX2                !
 ! A19   A(1,10,11)            108.4118         estimate D2E/DX2                !
 ! A20   A(1,10,12)            113.1944         estimate D2E/DX2                !
 ! A21   A(1,10,16)            110.0239         estimate D2E/DX2                !
 ! A22   A(11,10,12)           108.693          estimate D2E/DX2                !
 ! A23   A(11,10,16)           106.1974         estimate D2E/DX2                !
 ! A24   A(12,10,16)           110.0564         estimate D2E/DX2                !
 ! A25   A(2,13,14)            108.4119         estimate D2E/DX2                !
 ! A26   A(2,13,15)            113.195          estimate D2E/DX2                !
 ! A27   A(2,13,17)            110.0246         estimate D2E/DX2                !
 ! A28   A(14,13,15)           108.6924         estimate D2E/DX2                !
 ! A29   A(14,13,17)           106.1971         estimate D2E/DX2                !
 ! A30   A(15,13,17)           110.0561         estimate D2E/DX2                !
 ! A31   A(10,16,22)           109.359          estimate D2E/DX2                !
 ! A32   A(10,16,26)           108.49           estimate D2E/DX2                !
 ! A33   A(10,16,39)           105.5631         estimate D2E/DX2                !
 ! A34   A(22,16,26)           109.0061         estimate D2E/DX2                !
 ! A35   A(22,16,39)           116.5779         estimate D2E/DX2                !
 ! A36   A(26,16,39)           107.5644         estimate D2E/DX2                !
 ! A37   A(13,17,30)           109.3593         estimate D2E/DX2                !
 ! A38   A(13,17,34)           108.4899         estimate D2E/DX2                !
 ! A39   A(13,17,39)           105.5629         estimate D2E/DX2                !
 ! A40   A(30,17,34)           109.0064         estimate D2E/DX2                !
 ! A41   A(30,17,39)           116.5777         estimate D2E/DX2                !
 ! A42   A(34,17,39)           107.5644         estimate D2E/DX2                !
 ! A43   A(19,18,20)           109.1328         estimate D2E/DX2                !
 ! A44   A(19,18,21)           109.1326         estimate D2E/DX2                !
 ! A45   A(19,18,38)           113.9938         estimate D2E/DX2                !
 ! A46   A(20,18,21)           110.4935         estimate D2E/DX2                !
 ! A47   A(20,18,38)           107.0261         estimate D2E/DX2                !
 ! A48   A(21,18,38)           107.0271         estimate D2E/DX2                !
 ! A49   A(16,22,23)           108.9309         estimate D2E/DX2                !
 ! A50   A(16,22,24)           110.6457         estimate D2E/DX2                !
 ! A51   A(16,22,25)           109.0856         estimate D2E/DX2                !
 ! A52   A(23,22,24)           108.9106         estimate D2E/DX2                !
 ! A53   A(23,22,25)           109.3663         estimate D2E/DX2                !
 ! A54   A(24,22,25)           109.8794         estimate D2E/DX2                !
 ! A55   A(16,26,27)           109.9833         estimate D2E/DX2                !
 ! A56   A(16,26,28)           109.232          estimate D2E/DX2                !
 ! A57   A(16,26,29)           109.0854         estimate D2E/DX2                !
 ! A58   A(27,26,28)           109.3532         estimate D2E/DX2                !
 ! A59   A(27,26,29)           109.6766         estimate D2E/DX2                !
 ! A60   A(28,26,29)           109.4953         estimate D2E/DX2                !
 ! A61   A(17,30,31)           110.6448         estimate D2E/DX2                !
 ! A62   A(17,30,32)           108.9311         estimate D2E/DX2                !
 ! A63   A(17,30,33)           109.086          estimate D2E/DX2                !
 ! A64   A(31,30,32)           108.9102         estimate D2E/DX2                !
 ! A65   A(31,30,33)           109.8794         estimate D2E/DX2                !
 ! A66   A(32,30,33)           109.3671         estimate D2E/DX2                !
 ! A67   A(17,34,35)           109.2319         estimate D2E/DX2                !
 ! A68   A(17,34,36)           109.9833         estimate D2E/DX2                !
 ! A69   A(17,34,37)           109.0851         estimate D2E/DX2                !
 ! A70   A(35,34,36)           109.354          estimate D2E/DX2                !
 ! A71   A(35,34,37)           109.4951         estimate D2E/DX2                !
 ! A72   A(36,34,37)           109.6765         estimate D2E/DX2                !
 ! A73   A(18,38,39)           102.5667         estimate D2E/DX2                !
 ! A74   A(9,39,16)             82.4169         estimate D2E/DX2                !
 ! A75   A(9,39,17)             82.4171         estimate D2E/DX2                !
 ! A76   A(9,39,38)            159.6568         estimate D2E/DX2                !
 ! A77   A(16,39,17)           162.6914         estimate D2E/DX2                !
 ! A78   A(16,39,38)            98.5611         estimate D2E/DX2                !
 ! A79   A(17,39,38)            98.5615         estimate D2E/DX2                !
 ! D1    D(9,1,3,5)             -0.3841         estimate D2E/DX2                !
 ! D2    D(9,1,3,6)            178.477          estimate D2E/DX2                !
 ! D3    D(10,1,3,5)          -175.6216         estimate D2E/DX2                !
 ! D4    D(10,1,3,6)             3.2395         estimate D2E/DX2                !
 ! D5    D(3,1,9,2)             -0.1996         estimate D2E/DX2                !
 ! D6    D(3,1,9,39)           153.945          estimate D2E/DX2                !
 ! D7    D(10,1,9,2)           175.7905         estimate D2E/DX2                !
 ! D8    D(10,1,9,39)          -30.065          estimate D2E/DX2                !
 ! D9    D(3,1,10,11)          102.2033         estimate D2E/DX2                !
 ! D10   D(3,1,10,12)          -18.4691         estimate D2E/DX2                !
 ! D11   D(3,1,10,16)         -142.0604         estimate D2E/DX2                !
 ! D12   D(9,1,10,11)          -73.52           estimate D2E/DX2                !
 ! D13   D(9,1,10,12)          165.8077         estimate D2E/DX2                !
 ! D14   D(9,1,10,16)           42.2164         estimate D2E/DX2                !
 ! D15   D(9,2,4,5)              0.3831         estimate D2E/DX2                !
 ! D16   D(9,2,4,7)           -178.477          estimate D2E/DX2                !
 ! D17   D(13,2,4,5)           175.6217         estimate D2E/DX2                !
 ! D18   D(13,2,4,7)            -3.2385         estimate D2E/DX2                !
 ! D19   D(4,2,9,1)              0.2001         estimate D2E/DX2                !
 ! D20   D(4,2,9,39)          -153.9445         estimate D2E/DX2                !
 ! D21   D(13,2,9,1)          -175.7908         estimate D2E/DX2                !
 ! D22   D(13,2,9,39)           30.0646         estimate D2E/DX2                !
 ! D23   D(4,2,13,14)         -102.2036         estimate D2E/DX2                !
 ! D24   D(4,2,13,15)           18.4683         estimate D2E/DX2                !
 ! D25   D(4,2,13,17)          142.0601         estimate D2E/DX2                !
 ! D26   D(9,2,13,14)           73.5205         estimate D2E/DX2                !
 ! D27   D(9,2,13,15)         -165.8075         estimate D2E/DX2                !
 ! D28   D(9,2,13,17)          -42.2158         estimate D2E/DX2                !
 ! D29   D(1,3,5,4)              0.8854         estimate D2E/DX2                !
 ! D30   D(1,3,5,8)           -179.4859         estimate D2E/DX2                !
 ! D31   D(6,3,5,4)           -178.006          estimate D2E/DX2                !
 ! D32   D(6,3,5,8)              1.6226         estimate D2E/DX2                !
 ! D33   D(2,4,5,3)             -0.885          estimate D2E/DX2                !
 ! D34   D(2,4,5,8)            179.4864         estimate D2E/DX2                !
 ! D35   D(7,4,5,3)            178.0055         estimate D2E/DX2                !
 ! D36   D(7,4,5,8)             -1.6231         estimate D2E/DX2                !
 ! D37   D(1,9,39,16)            8.5044         estimate D2E/DX2                !
 ! D38   D(1,9,39,17)         -163.1295         estimate D2E/DX2                !
 ! D39   D(1,9,39,38)          102.6866         estimate D2E/DX2                !
 ! D40   D(2,9,39,16)          163.1296         estimate D2E/DX2                !
 ! D41   D(2,9,39,17)           -8.5044         estimate D2E/DX2                !
 ! D42   D(2,9,39,38)         -102.6882         estimate D2E/DX2                !
 ! D43   D(1,10,16,22)        -159.9196         estimate D2E/DX2                !
 ! D44   D(1,10,16,26)          81.2992         estimate D2E/DX2                !
 ! D45   D(1,10,16,39)         -33.7533         estimate D2E/DX2                !
 ! D46   D(11,10,16,22)        -42.7951         estimate D2E/DX2                !
 ! D47   D(11,10,16,26)       -161.5764         estimate D2E/DX2                !
 ! D48   D(11,10,16,39)         83.3711         estimate D2E/DX2                !
 ! D49   D(12,10,16,22)         74.6785         estimate D2E/DX2                !
 ! D50   D(12,10,16,26)        -44.1027         estimate D2E/DX2                !
 ! D51   D(12,10,16,39)       -159.1552         estimate D2E/DX2                !
 ! D52   D(2,13,17,30)         159.9188         estimate D2E/DX2                !
 ! D53   D(2,13,17,34)         -81.2996         estimate D2E/DX2                !
 ! D54   D(2,13,17,39)          33.7527         estimate D2E/DX2                !
 ! D55   D(14,13,17,30)         42.7942         estimate D2E/DX2                !
 ! D56   D(14,13,17,34)        161.5758         estimate D2E/DX2                !
 ! D57   D(14,13,17,39)        -83.3719         estimate D2E/DX2                !
 ! D58   D(15,13,17,30)        -74.6783         estimate D2E/DX2                !
 ! D59   D(15,13,17,34)         44.1033         estimate D2E/DX2                !
 ! D60   D(15,13,17,39)        159.1556         estimate D2E/DX2                !
 ! D61   D(10,16,22,23)       -176.5929         estimate D2E/DX2                !
 ! D62   D(10,16,22,24)        -56.8989         estimate D2E/DX2                !
 ! D63   D(10,16,22,25)         64.0907         estimate D2E/DX2                !
 ! D64   D(26,16,22,23)        -58.1328         estimate D2E/DX2                !
 ! D65   D(26,16,22,24)         61.5613         estimate D2E/DX2                !
 ! D66   D(26,16,22,25)       -177.4491         estimate D2E/DX2                !
 ! D67   D(39,16,22,23)         63.8195         estimate D2E/DX2                !
 ! D68   D(39,16,22,24)       -176.4865         estimate D2E/DX2                !
 ! D69   D(39,16,22,25)        -55.4968         estimate D2E/DX2                !
 ! D70   D(10,16,26,27)         63.429          estimate D2E/DX2                !
 ! D71   D(10,16,26,28)       -176.5495         estimate D2E/DX2                !
 ! D72   D(10,16,26,29)        -56.8983         estimate D2E/DX2                !
 ! D73   D(22,16,26,27)        -55.5747         estimate D2E/DX2                !
 ! D74   D(22,16,26,28)         64.4468         estimate D2E/DX2                !
 ! D75   D(22,16,26,29)       -175.902          estimate D2E/DX2                !
 ! D76   D(39,16,26,27)        177.169          estimate D2E/DX2                !
 ! D77   D(39,16,26,28)        -62.8096         estimate D2E/DX2                !
 ! D78   D(39,16,26,29)         56.8416         estimate D2E/DX2                !
 ! D79   D(10,16,39,9)          14.9231         estimate D2E/DX2                !
 ! D80   D(10,16,39,17)         43.9196         estimate D2E/DX2                !
 ! D81   D(10,16,39,38)       -144.5514         estimate D2E/DX2                !
 ! D82   D(22,16,39,9)         136.5304         estimate D2E/DX2                !
 ! D83   D(22,16,39,17)        165.5269         estimate D2E/DX2                !
 ! D84   D(22,16,39,38)        -22.9441         estimate D2E/DX2                !
 ! D85   D(26,16,39,9)        -100.7646         estimate D2E/DX2                !
 ! D86   D(26,16,39,17)        -71.7681         estimate D2E/DX2                !
 ! D87   D(26,16,39,38)         99.7609         estimate D2E/DX2                !
 ! D88   D(13,17,30,31)         56.8991         estimate D2E/DX2                !
 ! D89   D(13,17,30,32)        176.5922         estimate D2E/DX2                !
 ! D90   D(13,17,30,33)        -64.0902         estimate D2E/DX2                !
 ! D91   D(34,17,30,31)        -61.5613         estimate D2E/DX2                !
 ! D92   D(34,17,30,32)         58.1318         estimate D2E/DX2                !
 ! D93   D(34,17,30,33)        177.4494         estimate D2E/DX2                !
 ! D94   D(39,17,30,31)        176.4865         estimate D2E/DX2                !
 ! D95   D(39,17,30,32)        -63.8204         estimate D2E/DX2                !
 ! D96   D(39,17,30,33)         55.4972         estimate D2E/DX2                !
 ! D97   D(13,17,34,35)        176.5488         estimate D2E/DX2                !
 ! D98   D(13,17,34,36)        -63.4289         estimate D2E/DX2                !
 ! D99   D(13,17,34,37)         56.8981         estimate D2E/DX2                !
 ! D100  D(30,17,34,35)        -64.4471         estimate D2E/DX2                !
 ! D101  D(30,17,34,36)         55.5752         estimate D2E/DX2                !
 ! D102  D(30,17,34,37)        175.9022         estimate D2E/DX2                !
 ! D103  D(39,17,34,35)         62.8091         estimate D2E/DX2                !
 ! D104  D(39,17,34,36)       -177.1686         estimate D2E/DX2                !
 ! D105  D(39,17,34,37)        -56.8416         estimate D2E/DX2                !
 ! D106  D(13,17,39,9)         -14.9226         estimate D2E/DX2                !
 ! D107  D(13,17,39,16)        -43.9191         estimate D2E/DX2                !
 ! D108  D(13,17,39,38)        144.552          estimate D2E/DX2                !
 ! D109  D(30,17,39,9)        -136.5299         estimate D2E/DX2                !
 ! D110  D(30,17,39,16)       -165.5264         estimate D2E/DX2                !
 ! D111  D(30,17,39,38)         22.9446         estimate D2E/DX2                !
 ! D112  D(34,17,39,9)         100.7649         estimate D2E/DX2                !
 ! D113  D(34,17,39,16)         71.7684         estimate D2E/DX2                !
 ! D114  D(34,17,39,38)        -99.7606         estimate D2E/DX2                !
 ! D115  D(19,18,38,39)          0.0012         estimate D2E/DX2                !
 ! D116  D(20,18,38,39)        120.7654         estimate D2E/DX2                !
 ! D117  D(21,18,38,39)       -120.7634         estimate D2E/DX2                !
 ! D118  D(18,38,39,9)        -179.9998         estimate D2E/DX2                !
 ! D119  D(18,38,39,16)        -88.7305         estimate D2E/DX2                !
 ! D120  D(18,38,39,17)         88.7293         estimate D2E/DX2                !
 --------------------------------------------------------------------------------
 Trust Radius=3.00D-01 FncErr=1.00D-07 GrdErr=1.00D-06 EigMax=2.50D+02 EigMin=1.00D-04
 Number of steps in this run=    234 maximum allowed number of steps=    234.
 GradGradGradGradGradGradGradGradGradGradGradGradGradGradGradGradGradGrad

                          Input orientation:                          
 ---------------------------------------------------------------------
 Center     Atomic      Atomic             Coordinates (Angstroms)
 Number     Number       Type             X           Y           Z
 ---------------------------------------------------------------------
      1          6           0        1.533150    1.178830   -0.308890
      2          6           0        1.533150   -1.178840   -0.308890
      3          6           0        2.869080    1.229590   -0.001800
      4          6           0        2.869080   -1.229600   -0.001790
      5          6           0        3.649160    0.000000    0.188440
      6          1           0        3.387950    2.189160    0.090150
      7          1           0        3.387950   -2.189170    0.090160
      8          8           0        4.855800    0.000000    0.475770
      9          7           0        0.862960    0.000000   -0.460870
     10          6           0        0.615310    2.335510   -0.623900
     11          1           0        0.466190    2.374920   -1.719290
     12          1           0        1.012720    3.313850   -0.283730
     13          6           0        0.615310   -2.335510   -0.623890
     14          1           0        0.466190   -2.374930   -1.719290
     15          1           0        1.012710   -3.313860   -0.283720
     16          7           0       -0.742660    2.093600   -0.024020
     17          7           0       -0.742670   -2.093600   -0.024020
     18          6           0       -3.399180    0.000000    0.574100
     19          1           0       -2.640040    0.000010    1.387130
     20          1           0       -4.019540    0.902770    0.660610
     21          1           0       -4.019520   -0.902780    0.660620
     22          6           0       -1.738520    2.938640   -0.711020
     23          1           0       -2.718730    2.801900   -0.226320
     24          1           0       -1.452280    4.011100   -0.648800
     25          1           0       -1.806440    2.630020   -1.765110
     26          6           0       -0.697180    2.469330    1.409260
     27          1           0       -0.488560    3.557090    1.510610
     28          1           0       -1.668500    2.238720    1.875980
     29          1           0        0.096420    1.891630    1.907850
     30          6           0       -1.738530   -2.938630   -0.711030
     31          1           0       -1.452280   -4.011100   -0.648800
     32          1           0       -2.718740   -2.801900   -0.226330
     33          1           0       -1.806440   -2.630020   -1.765110
     34          6           0       -0.697200   -2.469330    1.409260
     35          1           0       -1.668510   -2.238710    1.875970
     36          1           0       -0.488580   -3.557080    1.510610
     37          1           0        0.096400   -1.891630    1.907850
     38          1           0       -2.953630    0.000010   -0.477110
     39         45           0       -1.044360    0.000000   -0.126600
 ---------------------------------------------------------------------
                    Distance matrix (angstroms):
                    1          2          3          4          5
     1  C    0.000000
     2  C    2.357670   0.000000
     3  C    1.371711   2.771200   0.000000
     4  C    2.771201   1.371713   2.459190   0.000000
     5  C    2.472747   2.472751   1.468539   1.468546   0.000000
     6  H    2.149484   3.865610   1.094740   3.459133   2.206879
     7  H    3.865611   2.149486   3.459133   1.094740   2.206888
     8  O    3.611833   3.611836   2.384748   2.384751   1.240378
     9  N    1.364512   1.364521   2.397322   2.397329   2.860859
    10  C    1.509825   3.645863   2.586416   4.263392   3.913917
    11  H    2.135009   3.969489   3.167875   4.660070   4.405789
    12  H    2.197679   4.522803   2.805298   4.916147   4.260911
    13  C    3.645853   1.509815   4.263380   2.586412   3.913915
    14  H    3.969489   2.135009   4.660066   3.167881   4.405794
    15  H    4.522804   2.197681   4.916150   2.805305   4.260924
    16  N    2.469264   3.996164   3.713714   4.908036   4.869947
    17  N    3.996161   2.469270   4.908037   3.713722   4.869956
    18  C    5.147542   5.147544   6.413629   6.413630   7.058883
    19  H    4.656352   4.656360   5.813037   5.813041   6.402413
    20  H    5.643448   6.008777   6.928108   7.241468   7.736078
    21  H    6.008760   5.643430   7.241451   6.928088   7.736060
    22  C    3.736638   5.274389   4.965262   6.253576   6.202558
    23  H    4.551885   5.825083   5.809147   6.893985   6.969411
    24  H    4.129175   5.996983   5.179726   6.823321   6.543285
    25  H    3.921657   5.270754   5.189504   6.313989   6.363720
    26  C    3.097063   4.608205   4.030664   5.328354   5.145742
    27  H    3.613034   5.461403   4.356419   6.039330   5.614423
    28  H    4.018406   5.167585   5.013385   6.012063   6.011420
    29  H    2.736095   4.050422   3.431137   4.590909   4.376825
    30  C    5.274380   3.736639   6.253570   4.965267   6.202564
    31  H    5.996975   4.129168   6.823312   5.179722   6.543285
    32  H    5.825083   4.551891   6.893987   5.809155   6.969421
    33  H    5.270747   3.921653   6.313980   5.189505   6.363720
    34  C    4.608207   3.097074   5.328363   4.030676   5.145759
    35  H    5.167574   4.018403   6.012059   5.013383   6.011422
    36  H    5.461393   3.613032   6.039327   4.356420   5.614432
    37  H    4.050421   2.736102   4.590918   3.431146   4.376841
    38  H    4.642102   4.642109   5.970070   5.970077   6.636248
    39  Rh   2.840146   2.840150   4.103959   4.103962   4.704081
                    6          7          8          9         10
     6  H    0.000000
     7  H    4.378330   0.000000
     8  O    2.663777   2.663784   0.000000
     9  N    3.386978   3.386986   4.101227   0.000000
    10  C    2.866848   5.354451   4.964437   2.354255   0.000000
    11  H    3.441695   5.713292   5.452266   2.716853   1.106196
    12  H    2.654512   6.005393   5.131053   3.321959   1.109414
    13  C    5.354440   2.866848   4.964435   2.354254   4.671020
    14  H    5.713289   3.441700   5.452271   2.716862   4.838425
    15  H    6.005395   2.654520   5.131066   3.321969   5.673538
    16  N    4.133292   5.951226   5.997975   2.674325   1.504147
    17  N    5.951226   4.133303   5.997984   2.674331   4.671293
    18  C    7.147850   7.147853   8.255566   4.386000   4.796451
    19  H    6.543027   6.543035   7.551039   3.960570   4.482868
    20  H    7.539969   8.047137   8.923050   5.090336   5.018421
    21  H    8.047120   7.539949   8.923031   5.090320   5.798117
    22  C    5.242546   7.295000   7.316361   3.932668   2.431434
    23  H    6.145498   7.893192   8.106607   4.553478   3.389899
    24  H    5.224303   7.900458   7.559461   4.635146   2.661419
    25  H    5.533357   7.324500   7.504931   3.967839   2.693319
    26  C    4.301957   6.334819   6.148543   3.468287   2.423691
    27  H    4.349284   7.075628   6.502766   4.285584   2.695722
    28  H    5.362773   6.954355   7.038391   4.108652   3.387411
    29  H    3.771833   5.548972   5.317971   3.126769   2.622219
    30  C    7.294993   5.242556   7.316367   3.932668   5.776219
    31  H    7.900449   5.224301   7.559461   4.635146   6.674954
    32  H    7.893193   6.145508   8.106617   4.553485   6.137339
    33  H    7.324491   5.533359   7.504931   3.967839   5.641252
    34  C    6.334827   4.301972   6.148561   3.468296   5.379861
    35  H    6.954349   5.362775   7.038395   4.108647   5.691105
    36  H    7.075625   4.349292   6.502777   4.285582   6.363751
    37  H    5.548980   3.771847   5.317989   3.126774   4.954567
    38  H    6.732741   6.732751   7.867349   3.816625   4.267721
    39  Rh   4.948209   4.948214   5.930829   1.936390   2.907992
                   11         12         13         14         15
    11  H    0.000000
    12  H    1.800310   0.000000
    13  C    4.838418   5.673527   0.000000
    14  H    4.749850   5.892516   1.106206   0.000000
    15  H    5.892518   6.627710   1.109419   1.800315   0.000000
    16  N    2.101047   2.153559   4.671289   4.929809   5.691168
    17  N    4.929803   5.691165   1.504152   2.101054   2.153564
    18  C    5.083401   5.584115   4.796448   5.083406   5.584111
    19  H    4.993867   5.207299   4.482874   4.993881   5.207308
    20  H    5.287052   5.659393   5.798123   6.043924   6.632893
    21  H    6.043913   6.632888   5.018399   5.287040   5.659366
    22  C    2.489003   2.809392   5.776224   5.840495   6.844385
    23  H    3.543302   3.766843   6.137334   6.258773   7.164458
    24  H    2.739263   2.587597   6.674954   6.753359   7.737215
    25  H    2.287361   3.257265   5.641254   5.496951   6.743281
    26  C    3.339187   2.550135   5.379853   5.882866   6.263800
    27  H    3.569500   2.352161   6.363753   6.821485   7.258332
    28  H    4.183470   3.606826   5.691109   6.226446   6.533325
    29  H    3.677831   2.768635   4.954560   5.612166   5.721861
    30  C    5.840479   6.844375   2.431442   2.489003   2.809397
    31  H    6.753349   7.737208   2.661419   2.739257   2.587586
    32  H    6.258768   7.164460   3.389906   3.543305   3.766844
    33  H    5.496942   6.743274   2.693324   2.287360   3.257263
    34  C    5.882862   6.263802   2.423693   3.339193   2.550138
    35  H    6.226429   6.533316   3.387404   4.183467   3.606820
    36  H    6.821471   7.258322   2.695718   3.569498   2.352158
    37  H    5.612160   5.721860   2.622214   3.677835   2.768635
    38  H    4.344925   5.172124   4.267731   4.344942   5.172136
    39  Rh   3.233986   3.903571   2.907991   3.233994   3.903574
                   16         17         18         19         20
    16  N    0.000000
    17  N    4.187200   0.000000
    18  C    3.434823   3.434815   0.000000
    19  H    3.158245   3.158253   1.112345   0.000000
    20  H    3.553131   4.492753   1.098783   1.801618   0.000000
    21  H    4.492754   3.553101   1.098781   1.801614   1.805550
    22  C    1.475737   5.175628   3.611777   3.721628   3.350998
    23  H    2.108902   5.283149   2.992378   3.234192   2.466870
    24  H    2.137923   6.177480   4.623292   4.652379   4.238761
    25  H    2.109685   5.145443   3.863383   4.189088   3.710165
    26  C    1.482408   4.782958   3.754449   3.142091   3.748688
    27  H    2.135757   5.860884   4.690592   4.158958   4.498415
    28  H    2.118547   4.820390   3.114805   2.488913   2.964671
    29  H    2.115885   4.507577   4.192418   3.367134   4.413001
    30  C    5.175623   1.475736   3.611767   3.721640   4.673410
    31  H    6.177481   2.137920   4.623292   4.652396   5.696622
    32  H    5.283156   2.108903   2.992379   3.234215   4.025335
    33  H    5.145445   2.109679   3.863383   4.189101   4.823125
    34  C    4.782958   1.482408   3.754435   3.142094   4.792648
    35  H    4.820381   2.118537   3.114788   2.488916   4.107717
    36  H    5.860873   2.135749   4.690572   4.158956   5.751560
    37  H    4.507572   2.115881   4.192402   3.367129   5.128864
    38  H    3.078441   3.078447   1.141734   1.890431   1.801540
    39  Rh   2.117713   2.117711   2.456859   2.199448   3.207240
                   21         22         23         24         25
    21  H    0.000000
    22  C    4.673421   0.000000
    23  H    4.025341   1.102018   0.000000
    24  H    5.696623   1.111744   1.801263   0.000000
    25  H    4.823128   1.100439   1.797134   1.810790   0.000000
    26  C    4.792654   2.408366   2.621524   2.680082   3.366438
    27  H    5.751574   2.623075   2.925901   2.407890   3.650563
    28  H    4.107727   2.680925   2.416572   3.092345   3.664653
    29  H    5.128867   3.364776   3.648060   3.664299   4.201991
    30  C    3.350974   5.877270   5.843751   6.955901   5.667941
    31  H    4.238745   6.955910   6.942575   8.022200   6.743593
    32  H    2.466853   5.843762   5.603800   6.942577   5.718906
    33  H    3.710155   5.667953   5.718907   6.743593   5.260040
    34  C    3.748647   5.901362   5.877718   6.841179   6.108225
    35  H    2.964630   5.788123   5.561505   6.743986   6.081202
    36  H    4.498370   6.977992   6.958960   7.929005   7.123714
    37  H    4.412959   5.792833   5.874424   6.616426   6.128357
    38  H    1.801550   3.188535   2.822882   4.286301   3.145146
    39  Rh   3.207227   3.075550   3.265594   4.065466   3.191001
                   26         27         28         29         30
    26  C    0.000000
    27  H    1.112212   0.000000
    28  H    1.102030   1.806614   0.000000
    29  H    1.100968   1.809353   1.799008   0.000000
    30  C    5.901362   6.978000   5.788133   5.792839   0.000000
    31  H    6.841181   7.929017   6.743998   6.616430   1.111757
    32  H    5.877731   6.958981   5.561525   5.874442   1.102017
    33  H    6.108228   7.123727   6.081216   6.128363   1.100426
    34  C    4.938660   6.030882   4.829802   4.460538   2.408369
    35  H    4.829797   5.925966   4.477430   4.491737   2.680925
    36  H    6.030871   7.114170   5.925960   5.494403   2.623078
    37  H    4.460531   5.494409   4.491735   3.783260   3.364775
    38  H    3.840247   4.762396   3.492909   4.309184   3.188541
    39  Rh   2.928650   3.955030   3.067857   3.003103   3.075545
                   31         32         33         34         35
    31  H    0.000000
    32  H    1.801268   0.000000
    33  H    1.810790   1.797130   0.000000
    34  C    2.680077   2.621523   3.366431   0.000000
    35  H    3.092343   2.416574   3.664643   1.102019   0.000000
    36  H    2.407884   2.925897   3.650553   1.112202   1.806605
    37  H    3.664290   3.648058   4.201982   1.100968   1.798996
    38  H    4.286319   2.822900   3.145162   3.840248   3.492905
    39  Rh   4.065466   3.265599   3.191001   2.928648   3.067845
                   36         37         38         39
    36  H    0.000000
    37  H    1.809344   0.000000
    38  H    4.762393   4.309178   0.000000
    39  Rh   3.955018   3.003096   1.941177   0.000000
 Stoichiometry    C12H22N3ORh
 Framework group  C1[X(C12H22N3ORh)]
 Deg. of freedom   111
 Full point group                 C1      NOp   1
 Largest Abelian subgroup         C1      NOp   1
 Largest concise Abelian subgroup C1      NOp   1
                         Standard orientation:                         
 ---------------------------------------------------------------------
 Center     Atomic      Atomic             Coordinates (Angstroms)
 Number     Number       Type             X           Y           Z
 ---------------------------------------------------------------------
      1          6           0        1.533151    1.178828   -0.308889
      2          6           0        1.533147   -1.178842   -0.308889
      3          6           0        2.869081    1.229585   -0.001799
      4          6           0        2.869077   -1.229605   -0.001789
      5          6           0        3.649159   -0.000006    0.188441
      6          1           0        3.387953    2.189154    0.090151
      7          1           0        3.387945   -2.189176    0.090161
      8          8           0        4.855799   -0.000008    0.475771
      9          7           0        0.862959   -0.000001   -0.460869
     10          6           0        0.615313    2.335509   -0.623899
     11          1           0        0.466193    2.374920   -1.719289
     12          1           0        1.012725    3.313849   -0.283729
     13          6           0        0.615305   -2.335511   -0.623889
     14          1           0        0.466185   -2.374930   -1.719289
     15          1           0        1.012703   -3.313861   -0.283719
     16          7           0       -0.742657    2.093602   -0.024019
     17          7           0       -0.742674   -2.093598   -0.024019
     18          6           0       -3.399181    0.000006    0.574101
     19          1           0       -2.640041    0.000015    1.387131
     20          1           0       -4.019539    0.902777    0.660611
     21          1           0       -4.019522   -0.902773    0.660621
     22          6           0       -1.738516    2.938643   -0.711019
     23          1           0       -2.718726    2.801905   -0.226319
     24          1           0       -1.452274    4.011103   -0.648799
     25          1           0       -1.806436    2.630024   -1.765109
     26          6           0       -0.697176    2.469332    1.409261
     27          1           0       -0.488554    3.557091    1.510611
     28          1           0       -1.668497    2.238723    1.875981
     29          1           0        0.096423    1.891630    1.907851
     30          6           0       -1.738536   -2.938627   -0.711029
     31          1           0       -1.452288   -4.011097   -0.648799
     32          1           0       -2.718746   -2.801895   -0.226329
     33          1           0       -1.806445   -2.630016   -1.765109
     34          6           0       -0.697205   -2.469328    1.409261
     35          1           0       -1.668515   -2.238707    1.875971
     36          1           0       -0.488587   -3.557079    1.510611
     37          1           0        0.096396   -1.891630    1.907851
     38          1           0       -2.953631    0.000016   -0.477109
     39         45           0       -1.044361    0.000002   -0.126599
 ---------------------------------------------------------------------
 Rotational constants (GHZ):           0.5341794           0.3645951           0.2414046
 Standard basis: def2TZVPP (5D, 7F)
 There are   977 symmetry adapted cartesian basis functions of A   symmetry.
 There are   860 symmetry adapted basis functions of A   symmetry.
   860 basis functions,  1289 primitive gaussians,   977 cartesian basis functions
    70 alpha electrons       70 beta electrons
       nuclear repulsion energy      1528.4953350919 Hartrees.
 NAtoms=   39 NActive=   39 NUniq=   39 SFac= 1.00D+00 NAtFMM=   60 NAOKFM=F Big=F
 Integral buffers will be    131072 words long.
 Raffenetti 2 integral format.
 Two-electron integral symmetry is turned on.
 Nuclear repulsion after empirical dispersion term =     1528.4554984446 Hartrees.
 ------------------------------------------------------------------------------
 Polarizable Continuum Model (PCM)
 =================================
 Model                : PCM.
 Atomic radii         : UFF (Universal Force Field).
 Polarization charges : Total charges.
 Charge compensation  : None.
 Solution method      : On-the-fly selection.
 Cavity type          : Scaled VdW (van der Waals Surface) (Alpha=1.100).
 Cavity algorithm     : GePol (No added spheres)
                        Default sphere list used, NSphG=   39.
                        Lebedev-Laikov grids with approx.  5.0 points / Ang**2.
                        Smoothing algorithm: York/Karplus (Gamma=1.0000).
                        Polarization charges: spherical gaussians, with
                                              point-specific exponents (IZeta= 3).
                        Self-potential: point-specific (ISelfS= 7).
                        Self-field    : sphere-specific E.n sum rule (ISelfD= 2).
 1st derivatives      : Analytical E(r).r(x)/FMM algorithm (CHGder, D1EAlg=3).
                        Cavity 1st derivative terms included.
 Solvent              : Dichloromethane, Eps=   8.930000 Eps(inf)=   2.028346
 ------------------------------------------------------------------------------
 One-electron integrals computed using PRISM.
 PrsmSu:  requested number of processors reduced to:   5 ShMem   1 Linda.
   1 Symmetry operations used in ECPInt.
 ECPInt:  NShTT=   52650 NPrTT=  135371 LenC2=   47682 LenP2D=   93559.
 LDataN:  DoStor=T MaxTD1= 8 Len=  415
 NBasis=   860 RedAO= T EigKep=  1.96D-05  NBF=   860
 NBsUse=   860 1.00D-06 EigRej= -1.00D+00 NBFU=   860
 Defaulting to unpruned grid for atomic number  45.
 ExpMin= 3.70D-02 ExpMax= 2.70D+04 ExpMxC= 9.22D+02 IAcc=3 IRadAn=         5 AccDes= 0.00D+00
 Harris functional with IExCor= 4639 and IRadAn=       5 diagonalized for initial guess.
 HarFok:  IExCor= 4639 AccDes= 0.00D+00 IRadAn=         5 IDoV= 1 UseB2=F ITyADJ=14
 ICtDFT=  3500011 ScaDFX=  1.000000  1.000000  1.000000  1.000000
 Defaulting to unpruned grid for atomic number  45.
 FoFCou: FMM=F IPFlag=           0 FMFlag=      100000 FMFlg1=           0
         NFxFlg=           0 DoJE=T BraDBF=F KetDBF=T FulRan=T
         wScrn=  0.000000 ICntrl=       500 IOpCl=  0 I1Cent=   200000004 NGrid=           0
         NMat0=    1 NMatS0=      1 NMatT0=    0 NMatD0=    1 NMtDS0=    0 NMtDT0=    0
 Petite list used in FoFCou.
 Requested convergence on RMS density matrix=1.00D-08 within 128 cycles.
 Requested convergence on MAX density matrix=1.00D-06.
 Requested convergence on             energy=1.00D-06.
 No special actions if energy rises.
 Defaulting to unpruned grid for atomic number  45.
 Defaulting to unpruned grid for atomic number  45.
 Defaulting to unpruned grid for atomic number  45.
 Defaulting to unpruned grid for atomic number  45.
 Defaulting to unpruned grid for atomic number  45.
 Defaulting to unpruned grid for atomic number  45.
 Defaulting to unpruned grid for atomic number  45.
 Defaulting to unpruned grid for atomic number  45.
 Inv3:  Mode=1 IEnd=    19507500.
 Iteration    1 A*A^-1 deviation from unit magnitude is 3.22D-15 for   1503.
 Iteration    1 A*A^-1 deviation from orthogonality  is 2.11D-15 for   2385    867.
 Iteration    1 A^-1*A deviation from unit magnitude is 3.00D-15 for   1503.
 Iteration    1 A^-1*A deviation from orthogonality  is 1.89D-15 for   2465   1656.
 Error on total polarization charges =  0.01763
 SCF Done:  E(RwB97XD) =  -820.687733338     A.U. after   18 cycles
            NFock= 18  Conv=0.67D-08     -V/T= 2.0989

 **********************************************************************

            Population analysis using the SCF Density.

 **********************************************************************

 Orbital symmetries:
       Occupied  (A) (A) (A) (A) (A) (A) (A) (A) (A) (A) (A) (A)
                 (A) (A) (A) (A) (A) (A) (A) (A) (A) (A) (A) (A)
                 (A) (A) (A) (A) (A) (A) (A) (A) (A) (A) (A) (A)
                 (A) (A) (A) (A) (A) (A) (A) (A) (A) (A) (A) (A)
                 (A) (A) (A) (A) (A) (A) (A) (A) (A) (A) (A) (A)
                 (A) (A) (A) (A) (A) (A) (A) (A) (A) (A)
       Virtual   (A) (A) (A) (A) (A) (A) (A) (A) (A) (A) (A) (A)
                 (A) (A) (A) (A) (A) (A) (A) (A) (A) (A) (A) (A)
                 (A) (A) (A) (A) (A) (A) (A) (A) (A) (A) (A) (A)
                 (A) (A) (A) (A) (A) (A) (A) (A) (A) (A) (A) (A)
                 (A) (A) (A) (A) (A) (A) (A) (A) (A) (A) (A) (A)
                 (A) (A) (A) (A) (A) (A) (A) (A) (A) (A) (A) (A)
                 (A) (A) (A) (A) (A) (A) (A) (A) (A) (A) (A) (A)
                 (A) (A) (A) (A) (A) (A) (A) (A) (A) (A) (A) (A)
                 (A) (A) (A) (A) (A) (A) (A) (A) (A) (A) (A) (A)
                 (A) (A) (A) (A) (A) (A) (A) (A) (A) (A) (A) (A)
                 (A) (A) (A) (A) (A) (A) (A) (A) (A) (A) (A) (A)
                 (A) (A) (A) (A) (A) (A) (A) (A) (A) (A) (A) (A)
                 (A) (A) (A) (A) (A) (A) (A) (A) (A) (A) (A) (A)
                 (A) (A) (A) (A) (A) (A) (A) (A) (A) (A) (A) (A)
                 (A) (A) (A) (A) (A) (A) (A) (A) (A) (A) (A) (A)
                 (A) (A) (A) (A) (A) (A) (A) (A) (A) (A) (A) (A)
                 (A) (A) (A) (A) (A) (A) (A) (A) (A) (A) (A) (A)
                 (A) (A) (A) (A) (A) (A) (A) (A) (A) (A) (A) (A)
                 (A) (A) (A) (A) (A) (A) (A) (A) (A) (A) (A) (A)
                 (A) (A) (A) (A) (A) (A) (A) (A) (A) (A) (A) (A)
                 (A) (A) (A) (A) (A) (A) (A) (A) (A) (A) (A) (A)
                 (A) (A) (A) (A) (A) (A) (A) (A) (A) (A) (A) (A)
                 (A) (A) (A) (A) (A) (A) (A) (A) (A) (A) (A) (A)
                 (A) (A) (A) (A) (A) (A) (A) (A) (A) (A) (A) (A)
                 (A) (A) (A) (A) (A) (A) (A) (A) (A) (A) (A) (A)
                 (A) (A) (A) (A) (A) (A) (A) (A) (A) (A) (A) (A)
                 (A) (A) (A) (A) (A) (A) (A) (A) (A) (A) (A) (A)
                 (A) (A) (A) (A) (A) (A) (A) (A) (A) (A) (A) (A)
                 (A) (A) (A) (A) (A) (A) (A) (A) (A) (A) (A) (A)
                 (A) (A) (A) (A) (A) (A) (A) (A) (A) (A) (A) (A)
                 (A) (A) (A) (A) (A) (A) (A) (A) (A) (A) (A) (A)
                 (A) (A) (A) (A) (A) (A) (A) (A) (A) (A) (A) (A)
                 (A) (A) (A) (A) (A) (A) (A) (A) (A) (A) (A) (A)
                 (A) (A) (A) (A) (A) (A) (A) (A) (A) (A) (A) (A)
                 (A) (A) (A) (A) (A) (A) (A) (A) (A) (A) (A) (A)
                 (A) (A) (A) (A) (A) (A) (A) (A) (A) (A) (A) (A)
                 (A) (A) (A) (A) (A) (A) (A) (A) (A) (A) (A) (A)
                 (A) (A) (A) (A) (A) (A) (A) (A) (A) (A) (A) (A)
                 (A) (A) (A) (A) (A) (A) (A) (A) (A) (A) (A) (A)
                 (A) (A) (A) (A) (A) (A) (A) (A) (A) (A) (A) (A)
                 (A) (A) (A) (A) (A) (A) (A) (A) (A) (A) (A) (A)
                 (A) (A) (A) (A) (A) (A) (A) (A) (A) (A) (A) (A)
                 (A) (A) (A) (A) (A) (A) (A) (A) (A) (A) (A) (A)
                 (A) (A) (A) (A) (A) (A) (A) (A) (A) (A) (A) (A)
                 (A) (A) (A) (A) (A) (A) (A) (A) (A) (A) (A) (A)
                 (A) (A) (A) (A) (A) (A) (A) (A) (A) (A) (A) (A)
                 (A) (A) (A) (A) (A) (A) (A) (A) (A) (A) (A) (A)
                 (A) (A) (A) (A) (A) (A) (A) (A) (A) (A) (A) (A)
                 (A) (A) (A) (A) (A) (A) (A) (A) (A) (A) (A) (A)
                 (A) (A) (A) (A) (A) (A) (A) (A) (A) (A) (A) (A)
                 (A) (A) (A) (A) (A) (A) (A) (A) (A) (A) (A) (A)
                 (A) (A) (A) (A) (A) (A) (A) (A) (A) (A) (A) (A)
                 (A) (A) (A) (A) (A) (A) (A) (A) (A) (A) (A) (A)
                 (A) (A) (A) (A) (A) (A) (A) (A) (A) (A) (A) (A)
                 (A) (A) (A) (A) (A) (A) (A) (A) (A) (A) (A) (A)
                 (A) (A) (A) (A) (A) (A) (A) (A) (A) (A) (A) (A)
                 (A) (A) (A) (A) (A) (A) (A) (A) (A) (A) (A) (A)
                 (A) (A) (A) (A) (A) (A) (A) (A) (A) (A) (A) (A)
                 (A) (A) (A) (A) (A) (A) (A) (A) (A) (A) (A) (A)
                 (A) (A) (A) (A) (A) (A) (A) (A) (A) (A) (A) (A)
                 (A) (A) (A) (A) (A) (A) (A) (A) (A) (A) (A) (A)
                 (A) (A) (A) (A) (A) (A) (A) (A) (A) (A) (A) (A)
                 (A) (A) (A) (A) (A) (A) (A) (A) (A) (A) (A) (A)
                 (A) (A) (A) (A) (A) (A) (A) (A) (A) (A) (A) (A)
                 (A) (A) (A) (A) (A) (A) (A) (A) (A) (A) (A) (A)
                 (A) (A) (A) (A) (A) (A) (A) (A) (A) (A)
 The electronic state is 1-A.
 Alpha  occ. eigenvalues --  -19.18253 -14.49318 -14.49317 -14.44826 -10.34232
 Alpha  occ. eigenvalues --  -10.33192 -10.33191 -10.33078 -10.33076 -10.31881
 Alpha  occ. eigenvalues --  -10.31881 -10.31795 -10.31795 -10.29463 -10.27248
 Alpha  occ. eigenvalues --  -10.27248  -3.27719  -2.04119  -2.03993  -2.00522
 Alpha  occ. eigenvalues --   -1.09068  -1.06916  -1.05496  -1.03340  -0.89734
 Alpha  occ. eigenvalues --   -0.85382  -0.82952  -0.81820  -0.81810  -0.81262
 Alpha  occ. eigenvalues --   -0.79547  -0.72330  -0.71745  -0.69413  -0.65863
 Alpha  occ. eigenvalues --   -0.60491  -0.59702  -0.58522  -0.58001  -0.57265
 Alpha  occ. eigenvalues --   -0.56456  -0.56145  -0.55683  -0.52189  -0.51719
 Alpha  occ. eigenvalues --   -0.50895  -0.50445  -0.50323  -0.49580  -0.48981
 Alpha  occ. eigenvalues --   -0.48864  -0.48603  -0.47355  -0.46561  -0.46558
 Alpha  occ. eigenvalues --   -0.46287  -0.46179  -0.45748  -0.43887  -0.43203
 Alpha  occ. eigenvalues --   -0.41704  -0.41186  -0.36709  -0.33355  -0.30903
 Alpha  occ. eigenvalues --   -0.30623  -0.29242  -0.27167  -0.25115  -0.24114
 Alpha virt. eigenvalues --    0.04648   0.05851   0.07516   0.08174   0.08858
 Alpha virt. eigenvalues --    0.10283   0.10312   0.13156   0.14119   0.14755
 Alpha virt. eigenvalues --    0.15257   0.15704   0.15750   0.16279   0.16668
 Alpha virt. eigenvalues --    0.16875   0.17420   0.17509   0.18817   0.19388
 Alpha virt. eigenvalues --    0.19895   0.20060   0.20794   0.20949   0.21542
 Alpha virt. eigenvalues --    0.21905   0.22364   0.22492   0.23136   0.23228
 Alpha virt. eigenvalues --    0.23810   0.24468   0.24480   0.24538   0.25092
 Alpha virt. eigenvalues --    0.25596   0.26494   0.27051   0.28541   0.28598
 Alpha virt. eigenvalues --    0.28814   0.29701   0.31270   0.31600   0.32211
 Alpha virt. eigenvalues --    0.32401   0.32917   0.33815   0.34101   0.34256
 Alpha virt. eigenvalues --    0.35015   0.35348   0.36451   0.36781   0.37668
 Alpha virt. eigenvalues --    0.38511   0.38993   0.39771   0.40098   0.40671
 Alpha virt. eigenvalues --    0.41320   0.41339   0.41985   0.42111   0.42292
 Alpha virt. eigenvalues --    0.43080   0.43882   0.44505   0.45125   0.45914
 Alpha virt. eigenvalues --    0.46045   0.47220   0.47329   0.47594   0.48172
 Alpha virt. eigenvalues --    0.48912   0.49015   0.49028   0.49511   0.49985
 Alpha virt. eigenvalues --    0.50256   0.50421   0.50712   0.50822   0.51488
 Alpha virt. eigenvalues --    0.51675   0.52295   0.52408   0.53408   0.53905
 Alpha virt. eigenvalues --    0.54195   0.54312   0.54912   0.55030   0.55841
 Alpha virt. eigenvalues --    0.56654   0.57325   0.57602   0.57678   0.58398
 Alpha virt. eigenvalues --    0.58975   0.59031   0.59985   0.61167   0.61464
 Alpha virt. eigenvalues --    0.61801   0.62726   0.63316   0.63948   0.64496
 Alpha virt. eigenvalues --    0.64857   0.66064   0.66690   0.67392   0.68170
 Alpha virt. eigenvalues --    0.68179   0.69337   0.69800   0.69860   0.71824
 Alpha virt. eigenvalues --    0.72421   0.74028   0.74618   0.74769   0.75191
 Alpha virt. eigenvalues --    0.76116   0.76788   0.77006   0.78896   0.79451
 Alpha virt. eigenvalues --    0.80480   0.81742   0.82054   0.83527   0.83677
 Alpha virt. eigenvalues --    0.84652   0.85611   0.86690   0.86958   0.87234
 Alpha virt. eigenvalues --    0.88841   0.89053   0.89444   0.90240   0.91255
 Alpha virt. eigenvalues --    0.92049   0.92668   0.93577   0.94019   0.94147
 Alpha virt. eigenvalues --    0.95097   0.96301   0.96529   0.96637   0.96980
 Alpha virt. eigenvalues --    0.97440   0.98567   0.99090   1.00244   1.00312
 Alpha virt. eigenvalues --    1.00507   1.01564   1.02006   1.02404   1.03199
 Alpha virt. eigenvalues --    1.04165   1.05083   1.05917   1.06625   1.07442
 Alpha virt. eigenvalues --    1.07514   1.08064   1.08696   1.09213   1.09632
 Alpha virt. eigenvalues --    1.09861   1.09880   1.10936   1.11713   1.11949
 Alpha virt. eigenvalues --    1.12970   1.13599   1.13760   1.14317   1.14942
 Alpha virt. eigenvalues --    1.16067   1.16170   1.17938   1.18678   1.19355
 Alpha virt. eigenvalues --    1.20068   1.21424   1.22535   1.22654   1.22969
 Alpha virt. eigenvalues --    1.23468   1.23877   1.24087   1.26917   1.27849
 Alpha virt. eigenvalues --    1.28024   1.28951   1.29495   1.29700   1.29898
 Alpha virt. eigenvalues --    1.30575   1.30601   1.31829   1.32176   1.33842
 Alpha virt. eigenvalues --    1.33843   1.34590   1.35203   1.35564   1.36413
 Alpha virt. eigenvalues --    1.37123   1.37715   1.38133   1.38511   1.39478
 Alpha virt. eigenvalues --    1.40158   1.40774   1.42411   1.42723   1.42829
 Alpha virt. eigenvalues --    1.43680   1.44039   1.44457   1.45525   1.45828
 Alpha virt. eigenvalues --    1.47464   1.47539   1.48560   1.48688   1.49511
 Alpha virt. eigenvalues --    1.49939   1.50546   1.51354   1.51382   1.52112
 Alpha virt. eigenvalues --    1.53980   1.54354   1.54436   1.55583   1.55587
 Alpha virt. eigenvalues --    1.56137   1.56249   1.56663   1.57134   1.57433
 Alpha virt. eigenvalues --    1.58214   1.58471   1.59518   1.59851   1.60187
 Alpha virt. eigenvalues --    1.61587   1.62982   1.63368   1.63918   1.64777
 Alpha virt. eigenvalues --    1.64810   1.67184   1.67195   1.67659   1.67928
 Alpha virt. eigenvalues --    1.68440   1.69502   1.69748   1.70736   1.72197
 Alpha virt. eigenvalues --    1.73129   1.74172   1.74331   1.74335   1.75576
 Alpha virt. eigenvalues --    1.76053   1.76425   1.77678   1.79111   1.79527
 Alpha virt. eigenvalues --    1.82302   1.83330   1.83653   1.84262   1.85007
 Alpha virt. eigenvalues --    1.86181   1.86603   1.86786   1.87501   1.88204
 Alpha virt. eigenvalues --    1.90331   1.90838   1.93134   1.93272   1.93889
 Alpha virt. eigenvalues --    1.95068   1.95505   1.96868   1.97875   2.00173
 Alpha virt. eigenvalues --    2.02214   2.02853   2.03723   2.03832   2.05623
 Alpha virt. eigenvalues --    2.06439   2.07017   2.09384   2.10326   2.11242
 Alpha virt. eigenvalues --    2.14432   2.14722   2.15462   2.15877   2.15960
 Alpha virt. eigenvalues --    2.16696   2.20119   2.21478   2.22180   2.23205
 Alpha virt. eigenvalues --    2.23386   2.24897   2.25505   2.26994   2.28876
 Alpha virt. eigenvalues --    2.29352   2.29677   2.30270   2.31441   2.32513
 Alpha virt. eigenvalues --    2.35863   2.35907   2.40345   2.40586   2.40983
 Alpha virt. eigenvalues --    2.41504   2.43071   2.43388   2.45145   2.45956
 Alpha virt. eigenvalues --    2.46724   2.50239   2.53772   2.56289   2.56396
 Alpha virt. eigenvalues --    2.60101   2.61151   2.61393   2.62846   2.63385
 Alpha virt. eigenvalues --    2.66753   2.67134   2.67469   2.68071   2.68512
 Alpha virt. eigenvalues --    2.70226   2.70300   2.70724   2.71069   2.73088
 Alpha virt. eigenvalues --    2.74356   2.74462   2.75392   2.76091   2.76688
 Alpha virt. eigenvalues --    2.77046   2.77929   2.80290   2.80773   2.81848
 Alpha virt. eigenvalues --    2.83202   2.85100   2.85244   2.85557   2.85788
 Alpha virt. eigenvalues --    2.86593   2.86802   2.87390   2.87807   2.89354
 Alpha virt. eigenvalues --    2.90171   2.90495   2.90643   2.91626   2.92033
 Alpha virt. eigenvalues --    2.93234   2.94310   2.94661   2.95420   2.97062
 Alpha virt. eigenvalues --    2.97066   2.98082   2.98133   2.99278   2.99808
 Alpha virt. eigenvalues --    3.00032   3.00756   3.00932   3.01606   3.01909
 Alpha virt. eigenvalues --    3.02775   3.03278   3.04283   3.05085   3.05342
 Alpha virt. eigenvalues --    3.05556   3.06165   3.06936   3.07294   3.08648
 Alpha virt. eigenvalues --    3.10086   3.10504   3.11000   3.11127   3.11985
 Alpha virt. eigenvalues --    3.12483   3.12636   3.12788   3.14178   3.14914
 Alpha virt. eigenvalues --    3.15611   3.16713   3.17808   3.18380   3.18396
 Alpha virt. eigenvalues --    3.19945   3.19983   3.20601   3.21760   3.22668
 Alpha virt. eigenvalues --    3.22709   3.23225   3.24355   3.25356   3.26420
 Alpha virt. eigenvalues --    3.27249   3.27542   3.28972   3.29458   3.29730
 Alpha virt. eigenvalues --    3.30673   3.31267   3.31577   3.32520   3.33126
 Alpha virt. eigenvalues --    3.33496   3.34502   3.34954   3.36176   3.36710
 Alpha virt. eigenvalues --    3.37147   3.38039   3.38912   3.39237   3.39944
 Alpha virt. eigenvalues --    3.40362   3.41364   3.42797   3.43651   3.44103
 Alpha virt. eigenvalues --    3.44351   3.45686   3.46048   3.46094   3.46960
 Alpha virt. eigenvalues --    3.48012   3.48249   3.48589   3.49323   3.50001
 Alpha virt. eigenvalues --    3.51668   3.52171   3.52902   3.53565   3.53981
 Alpha virt. eigenvalues --    3.54749   3.55375   3.56011   3.56275   3.56938
 Alpha virt. eigenvalues --    3.57058   3.58660   3.58989   3.59339   3.59476
 Alpha virt. eigenvalues --    3.60004   3.60822   3.61143   3.61758   3.63593
 Alpha virt. eigenvalues --    3.64338   3.65565   3.66096   3.67103   3.67718
 Alpha virt. eigenvalues --    3.67928   3.68297   3.68319   3.68716   3.68787
 Alpha virt. eigenvalues --    3.69782   3.70150   3.71380   3.73212   3.75117
 Alpha virt. eigenvalues --    3.75924   3.75978   3.76517   3.77520   3.78277
 Alpha virt. eigenvalues --    3.78343   3.80167   3.81076   3.81688   3.81806
 Alpha virt. eigenvalues --    3.82974   3.83128   3.85544   3.86331   3.86699
 Alpha virt. eigenvalues --    3.86818   3.88387   3.89064   3.89930   3.90152
 Alpha virt. eigenvalues --    3.90583   3.91670   3.92852   3.93906   3.94713
 Alpha virt. eigenvalues --    3.95242   3.95418   3.96776   3.97017   3.97292
 Alpha virt. eigenvalues --    3.99555   4.00826   4.00937   4.01595   4.02582
 Alpha virt. eigenvalues --    4.04222   4.04304   4.04862   4.06192   4.07486
 Alpha virt. eigenvalues --    4.08272   4.08869   4.09379   4.10928   4.12423
 Alpha virt. eigenvalues --    4.13034   4.14128   4.14373   4.15083   4.16302
 Alpha virt. eigenvalues --    4.16386   4.17046   4.17575   4.18113   4.18600
 Alpha virt. eigenvalues --    4.19285   4.19808   4.20050   4.20304   4.21189
 Alpha virt. eigenvalues --    4.21704   4.21772   4.21790   4.22978   4.23351
 Alpha virt. eigenvalues --    4.24199   4.24772   4.25251   4.25376   4.25913
 Alpha virt. eigenvalues --    4.26305   4.26461   4.26847   4.27123   4.27517
 Alpha virt. eigenvalues --    4.28291   4.29437   4.30350   4.31123   4.31356
 Alpha virt. eigenvalues --    4.31900   4.32888   4.33502   4.34428   4.34712
 Alpha virt. eigenvalues --    4.35072   4.35790   4.36092   4.36894   4.37328
 Alpha virt. eigenvalues --    4.39123   4.39513   4.40586   4.41219   4.41832
 Alpha virt. eigenvalues --    4.43418   4.43617   4.45629   4.45640   4.46941
 Alpha virt. eigenvalues --    4.47749   4.47883   4.48689   4.48868   4.49468
 Alpha virt. eigenvalues --    4.51236   4.51893   4.52936   4.53207   4.53866
 Alpha virt. eigenvalues --    4.55263   4.55578   4.55849   4.56739   4.58991
 Alpha virt. eigenvalues --    4.59306   4.60590   4.60761   4.61930   4.62806
 Alpha virt. eigenvalues --    4.64655   4.66681   4.66854   4.69353   4.71031
 Alpha virt. eigenvalues --    4.73499   4.74150   4.75319   4.76019   4.76423
 Alpha virt. eigenvalues --    4.77529   4.78313   4.80413   4.81563   4.81842
 Alpha virt. eigenvalues --    4.82389   4.83017   4.84188   4.85218   4.86897
 Alpha virt. eigenvalues --    4.87333   4.88661   4.90478   4.91375   4.92696
 Alpha virt. eigenvalues --    4.92899   4.94086   4.95375   4.99397   4.99516
 Alpha virt. eigenvalues --    5.00753   5.01242   5.04917   5.05157   5.06939
 Alpha virt. eigenvalues --    5.07651   5.08508   5.08687   5.09446   5.09700
 Alpha virt. eigenvalues --    5.10910   5.11602   5.12851   5.14409   5.14832
 Alpha virt. eigenvalues --    5.15934   5.16167   5.16949   5.18396   5.19231
 Alpha virt. eigenvalues --    5.19749   5.21121   5.22292   5.22432   5.22901
 Alpha virt. eigenvalues --    5.23020   5.24511   5.24711   5.26559   5.26669
 Alpha virt. eigenvalues --    5.27095   5.28289   5.28938   5.29575   5.30459
 Alpha virt. eigenvalues --    5.30490   5.31275   5.31998   5.32811   5.34634
 Alpha virt. eigenvalues --    5.34909   5.35018   5.35282   5.36148   5.36375
 Alpha virt. eigenvalues --    5.37991   5.38567   5.39540   5.40392   5.40954
 Alpha virt. eigenvalues --    5.41569   5.42470   5.43686   5.44259   5.45678
 Alpha virt. eigenvalues --    5.47150   5.47370   5.48679   5.49852   5.51253
 Alpha virt. eigenvalues --    5.51991   5.52669   5.52937   5.54284   5.54816
 Alpha virt. eigenvalues --    5.55127   5.57366   5.57738   5.61679   5.62836
 Alpha virt. eigenvalues --    5.63792   5.64444   5.65860   5.66629   5.66676
 Alpha virt. eigenvalues --    5.67533   5.68453   5.69409   5.69542   5.69970
 Alpha virt. eigenvalues --    5.71961   5.72352   5.74794   5.75806   5.76353
 Alpha virt. eigenvalues --    5.77305   5.77919   5.79292   5.79506   5.79836
 Alpha virt. eigenvalues --    5.80587   5.81299   5.81952   5.83308   5.85423
 Alpha virt. eigenvalues --    5.88581   5.95456   5.98924   6.03472   6.10716
 Alpha virt. eigenvalues --    6.12787   6.15031   6.17339   6.17654   6.21461
 Alpha virt. eigenvalues --    6.25052   6.30504   6.31942   6.34168   6.37738
 Alpha virt. eigenvalues --    6.52116   6.59059   6.78920   6.94862   6.97417
 Alpha virt. eigenvalues --    7.21732   7.26752  22.92622  23.12208  23.29743
 Alpha virt. eigenvalues --   23.42797  23.45320  23.52242  23.70957  23.73868
 Alpha virt. eigenvalues --   23.76090  23.81597  23.85651  23.91703  31.09946
 Alpha virt. eigenvalues --   32.89226  32.97025  33.10765  44.12530 102.33299
          Condensed to atoms (all electrons):
               1          2          3          4          5          6
     1  C    5.542505  -0.154917  -0.058875   0.123431   0.047070  -0.015878
     2  C   -0.154917   5.542517   0.123431  -0.058884   0.047071  -0.007260
     3  C   -0.058875   0.123431   6.182161  -0.287868   0.223150   0.389856
     4  C    0.123431  -0.058884  -0.287868   6.182173   0.223143   0.025013
     5  C    0.047070   0.047071   0.223150   0.223143   4.550749  -0.036504
     6  H   -0.015878  -0.007260   0.389856   0.025013  -0.036504   0.537508
     7  H   -0.007260  -0.015878   0.025013   0.389856  -0.036503  -0.000175
     8  O    0.031932   0.031932  -0.156705  -0.156705   0.674175   0.008259
     9  N    0.341246   0.341242  -0.106812  -0.106810   0.002171   0.003909
    10  C    0.184602  -0.003434  -0.033868   0.000174  -0.001420  -0.003904
    11  H   -0.028011   0.001050   0.000982   0.000365  -0.000573   0.000272
    12  H   -0.056799  -0.000433  -0.004593  -0.000471   0.001492   0.000186
    13  C   -0.003435   0.184605   0.000174  -0.033870  -0.001420   0.000091
    14  H    0.001050  -0.028012   0.000365   0.000981  -0.000573   0.000006
    15  H   -0.000433  -0.056798  -0.000471  -0.004592   0.001492  -0.000007
    16  N   -0.017650   0.002561  -0.001982   0.000390   0.000046   0.000260
    17  N    0.002561  -0.017648   0.000390  -0.001982   0.000046  -0.000006
    18  C    0.001908   0.001908   0.000159   0.000159  -0.000021   0.000001
    19  H   -0.000332  -0.000332  -0.000074  -0.000074   0.000017  -0.000001
    20  H   -0.000028  -0.000028  -0.000000  -0.000001   0.000000  -0.000000
    21  H   -0.000028  -0.000028  -0.000001  -0.000000   0.000000   0.000000
    22  C    0.014486  -0.000005   0.000881  -0.000025  -0.000079  -0.000024
    23  H   -0.000291   0.000009   0.000063   0.000004  -0.000003   0.000001
    24  H    0.000645  -0.000009  -0.000101  -0.000007   0.000005   0.000005
    25  H   -0.001266   0.000054  -0.000081  -0.000005   0.000003  -0.000006
    26  C    0.002320  -0.000340   0.004079  -0.000058  -0.000218  -0.000096
    27  H   -0.004986  -0.000028  -0.001019  -0.000034   0.000039  -0.000033
    28  H   -0.000086   0.000107   0.000056   0.000032  -0.000002   0.000001
    29  H    0.014290  -0.000710   0.006605   0.000460  -0.000749   0.000282
    30  C   -0.000005   0.014486  -0.000025   0.000881  -0.000079   0.000001
    31  H   -0.000009   0.000645  -0.000007  -0.000101   0.000005  -0.000000
    32  H    0.000009  -0.000291   0.000004   0.000063  -0.000003   0.000000
    33  H    0.000054  -0.001266  -0.000005  -0.000081   0.000003   0.000000
    34  C   -0.000340   0.002320  -0.000058   0.004078  -0.000218   0.000002
    35  H    0.000107  -0.000086   0.000032   0.000056  -0.000002   0.000000
    36  H   -0.000028  -0.004986  -0.000034  -0.001019   0.000039  -0.000000
    37  H   -0.000710   0.014290   0.000460   0.006605  -0.000749   0.000007
    38  H    0.000078   0.000078  -0.000007  -0.000007   0.000004  -0.000000
    39  Rh  -0.061551  -0.061552  -0.017864  -0.017864   0.008992  -0.001359
               7          8          9         10         11         12
     1  C   -0.007260   0.031932   0.341246   0.184602  -0.028011  -0.056799
     2  C   -0.015878   0.031932   0.341242  -0.003434   0.001050  -0.000433
     3  C    0.025013  -0.156705  -0.106812  -0.033868   0.000982  -0.004593
     4  C    0.389856  -0.156705  -0.106810   0.000174   0.000365  -0.000471
     5  C   -0.036503   0.674175   0.002171  -0.001420  -0.000573   0.001492
     6  H   -0.000175   0.008259   0.003909  -0.003904   0.000272   0.000186
     7  H    0.537505   0.008259   0.003909   0.000091   0.000006  -0.000007
     8  O    0.008259   8.110070   0.001139  -0.000700  -0.000007   0.000017
     9  N    0.003909   0.001139   6.655468   0.019003  -0.009377   0.004337
    10  C    0.000091  -0.000700   0.019003   4.924632   0.427476   0.451412
    11  H    0.000006  -0.000007  -0.009377   0.427476   0.541552  -0.017805
    12  H   -0.000007   0.000017   0.004337   0.451412  -0.017805   0.544017
    13  C   -0.003904  -0.000700   0.019003   0.000649  -0.000263   0.000110
    14  H    0.000272  -0.000007  -0.009377  -0.000263  -0.000020  -0.000005
    15  H    0.000187   0.000017   0.004337   0.000110  -0.000005  -0.000000
    16  N   -0.000006   0.000005  -0.042671   0.246188  -0.031238  -0.028724
    17  N    0.000260   0.000005  -0.042671   0.000041   0.000026  -0.000036
    18  C    0.000001  -0.000000  -0.007484  -0.001084   0.000100  -0.000034
    19  H   -0.000001  -0.000000   0.000606   0.000374  -0.000036   0.000021
    20  H    0.000000   0.000000   0.000131  -0.000042   0.000009  -0.000001
    21  H   -0.000000   0.000000   0.000131   0.000034  -0.000000   0.000000
    22  C    0.000001  -0.000001  -0.001795  -0.049252  -0.004501  -0.006833
    23  H    0.000000  -0.000000  -0.000180   0.007550   0.000575  -0.000517
    24  H   -0.000000   0.000000   0.000168  -0.008399  -0.003169   0.006173
    25  H    0.000000  -0.000000  -0.000259  -0.006772   0.001939  -0.000236
    26  C    0.000002   0.000005  -0.003217  -0.031857   0.005647  -0.016372
    27  H   -0.000000   0.000000   0.000637  -0.007429  -0.000238   0.007554
    28  H    0.000000  -0.000000  -0.000335   0.006882  -0.000168  -0.000058
    29  H    0.000007  -0.000006  -0.003647  -0.016575   0.000499  -0.002958
    30  C   -0.000024  -0.000001  -0.001795  -0.000019  -0.000000   0.000001
    31  H    0.000005   0.000000   0.000168   0.000005  -0.000000  -0.000000
    32  H    0.000001  -0.000000  -0.000180  -0.000016   0.000001   0.000000
    33  H   -0.000006  -0.000000  -0.000259  -0.000009   0.000002  -0.000000
    34  C   -0.000096   0.000005  -0.003217   0.000117  -0.000000   0.000009
    35  H    0.000001  -0.000000  -0.000335  -0.000044   0.000002  -0.000000
    36  H   -0.000033   0.000000   0.000637   0.000008  -0.000000   0.000000
    37  H    0.000282  -0.000006  -0.003647  -0.000030   0.000004  -0.000006
    38  H   -0.000000  -0.000000  -0.001374   0.000090  -0.000143   0.000016
    39  Rh  -0.001359   0.000264   0.219711  -0.011833  -0.007301   0.010978
              13         14         15         16         17         18
     1  C   -0.003435   0.001050  -0.000433  -0.017650   0.002561   0.001908
     2  C    0.184605  -0.028012  -0.056798   0.002561  -0.017648   0.001908
     3  C    0.000174   0.000365  -0.000471  -0.001982   0.000390   0.000159
     4  C   -0.033870   0.000981  -0.004592   0.000390  -0.001982   0.000159
     5  C   -0.001420  -0.000573   0.001492   0.000046   0.000046  -0.000021
     6  H    0.000091   0.000006  -0.000007   0.000260  -0.000006   0.000001
     7  H   -0.003904   0.000272   0.000187  -0.000006   0.000260   0.000001
     8  O   -0.000700  -0.000007   0.000017   0.000005   0.000005  -0.000000
     9  N    0.019003  -0.009377   0.004337  -0.042671  -0.042671  -0.007484
    10  C    0.000649  -0.000263   0.000110   0.246188   0.000041  -0.001084
    11  H   -0.000263  -0.000020  -0.000005  -0.031238   0.000026   0.000100
    12  H    0.000110  -0.000005  -0.000000  -0.028724  -0.000036  -0.000034
    13  C    4.924637   0.427474   0.451411   0.000041   0.246188  -0.001084
    14  H    0.427474   0.541557  -0.017806   0.000026  -0.031239   0.000100
    15  H    0.451411  -0.017806   0.544018  -0.000036  -0.028724  -0.000034
    16  N    0.000041   0.000026  -0.000036   6.412772  -0.006525   0.001929
    17  N    0.246188  -0.031239  -0.028724  -0.006525   6.412770   0.001930
    18  C   -0.001084   0.000100  -0.000034   0.001929   0.001930   4.853318
    19  H    0.000374  -0.000036   0.000021   0.000070   0.000070   0.339862
    20  H    0.000034  -0.000000   0.000000  -0.000575   0.000186   0.426970
    21  H   -0.000042   0.000009  -0.000001   0.000186  -0.000575   0.426971
    22  C   -0.000019  -0.000000   0.000001   0.254296   0.000401  -0.003461
    23  H   -0.000016   0.000001   0.000000  -0.029650   0.000041   0.002300
    24  H    0.000005  -0.000000  -0.000000  -0.022756  -0.000015  -0.000042
    25  H   -0.000009   0.000002  -0.000000  -0.033759   0.000015   0.000075
    26  C    0.000117  -0.000000   0.000009   0.222904   0.001608  -0.004506
    27  H    0.000008  -0.000000   0.000000  -0.025594  -0.000028  -0.000185
    28  H   -0.000044   0.000002  -0.000000  -0.029116   0.000088   0.001685
    29  H   -0.000030   0.000004  -0.000006  -0.030278   0.000079   0.000697
    30  C   -0.049252  -0.004501  -0.006833   0.000401   0.254296  -0.003461
    31  H   -0.008400  -0.003169   0.006174  -0.000015  -0.022758  -0.000042
    32  H    0.007550   0.000575  -0.000517   0.000041  -0.029649   0.002300
    33  H   -0.006772   0.001939  -0.000236   0.000015  -0.033758   0.000075
    34  C   -0.031857   0.005647  -0.016372   0.001608   0.222904  -0.004506
    35  H    0.006882  -0.000168  -0.000058   0.000088  -0.029116   0.001685
    36  H   -0.007428  -0.000238   0.007554  -0.000028  -0.025594  -0.000185
    37  H   -0.016576   0.000499  -0.002958   0.000079  -0.030278   0.000697
    38  H    0.000090  -0.000143   0.000016  -0.001762  -0.001762   0.297276
    39  Rh  -0.011831  -0.007300   0.010978   0.202104   0.202104  -0.015399
              19         20         21         22         23         24
     1  C   -0.000332  -0.000028  -0.000028   0.014486  -0.000291   0.000645
     2  C   -0.000332  -0.000028  -0.000028  -0.000005   0.000009  -0.000009
     3  C   -0.000074  -0.000000  -0.000001   0.000881   0.000063  -0.000101
     4  C   -0.000074  -0.000001  -0.000000  -0.000025   0.000004  -0.000007
     5  C    0.000017   0.000000   0.000000  -0.000079  -0.000003   0.000005
     6  H   -0.000001  -0.000000   0.000000  -0.000024   0.000001   0.000005
     7  H   -0.000001   0.000000  -0.000000   0.000001   0.000000  -0.000000
     8  O   -0.000000   0.000000   0.000000  -0.000001  -0.000000   0.000000
     9  N    0.000606   0.000131   0.000131  -0.001795  -0.000180   0.000168
    10  C    0.000374  -0.000042   0.000034  -0.049252   0.007550  -0.008399
    11  H   -0.000036   0.000009  -0.000000  -0.004501   0.000575  -0.003169
    12  H    0.000021  -0.000001   0.000000  -0.006833  -0.000517   0.006173
    13  C    0.000374   0.000034  -0.000042  -0.000019  -0.000016   0.000005
    14  H   -0.000036  -0.000000   0.000009  -0.000000   0.000001  -0.000000
    15  H    0.000021   0.000000  -0.000001   0.000001   0.000000  -0.000000
    16  N    0.000070  -0.000575   0.000186   0.254296  -0.029650  -0.022756
    17  N    0.000070   0.000186  -0.000575   0.000401   0.000041  -0.000015
    18  C    0.339862   0.426970   0.426971  -0.003461   0.002300  -0.000042
    19  H    0.555147  -0.012594  -0.012595  -0.000972  -0.000826   0.000030
    20  H   -0.012594   0.514935  -0.015715  -0.001339   0.000348  -0.000114
    21  H   -0.012595  -0.015715   0.514935   0.000049   0.000094   0.000008
    22  C   -0.000972  -0.001339   0.000049   4.801762   0.417741   0.408176
    23  H   -0.000826   0.000348   0.000094   0.417741   0.558820  -0.023432
    24  H    0.000030  -0.000114   0.000008   0.408176  -0.023432   0.553134
    25  H    0.000048   0.000206  -0.000037   0.430042  -0.017374  -0.020998
    26  C   -0.002216   0.000265   0.000002  -0.037426  -0.005186  -0.012312
    27  H    0.000241  -0.000074   0.000003  -0.008965  -0.001790   0.007536
    28  H   -0.001335  -0.000142   0.000121  -0.008643   0.002479  -0.001321
    29  H   -0.000134   0.000032  -0.000012   0.006925   0.000120  -0.000406
    30  C   -0.000972   0.000049  -0.001339  -0.000079  -0.000010   0.000002
    31  H    0.000030   0.000008  -0.000114   0.000002   0.000000  -0.000000
    32  H   -0.000826   0.000094   0.000348  -0.000010  -0.000004   0.000000
    33  H    0.000048  -0.000037   0.000206  -0.000009   0.000001   0.000000
    34  C   -0.002216   0.000002   0.000265  -0.000054   0.000001   0.000003
    35  H   -0.001335   0.000121  -0.000142   0.000002  -0.000001   0.000000
    36  H    0.000241   0.000003  -0.000074   0.000000  -0.000000   0.000000
    37  H   -0.000134  -0.000012   0.000032  -0.000011  -0.000001  -0.000000
[...]
 .00000347,0.00004428,-0.00006801,0.00004727,-0.00000862,0.00005664,0.0
 0000853,0.00000051,-0.00000159,0.00000323,0.00000062,0.00000085,0.0000
 0049,0.00000528,-0.00001743,-0.00000500,0.00003507,-0.00002507,-0.0000
 2728,-0.00004021,0.00001361,0.00002082,0.00000243,-0.00000456,-0.00000
 239,0.00001495,0.00000416,0.00000130,0.00079342,0.00014587,0.00154861,
 -0.00055570,0.00043899,0.00022141,-0.00039649,0.00035529,0.00002942,0.
 00008734,0.00002015,-0.00007473,-0.00995404,0.00053876,0.00519262,0.00
 022238,-0.00009993,0.00018011,0.00029343,-0.00069592,0.00013294,-0.000
 04606,0.00001596,-0.00010535,0.00007773,-0.00012122,0.00008722,0.00001
 554,-0.00000621,0.00000700,-0.00000057,-0.00001016,0.00000045,0.000000
 59,0.00001365,0.00000411,-0.00000068,0.00000023,0.00000323,-0.00000789
 ,-0.00001031,-0.00001076,0.00000419,0.00001472,-0.00000312,0.00000984,
 -0.00000973,-0.00000105,-0.00001303,-0.00000480,0.00000188,0.00024917,
 -0.00016763,-0.00049991,0.00019686,-0.00002925,0.00011644,-0.00008529,
 0.00021552,-0.00036956,-0.00010696,-0.00012629,0.00006009,0.05313176,-
 0.06023871,-0.02318638,-0.05560032,0.06107967,-0.00001812,-0.00001934,
 -0.00004361,-0.00028070,-0.00054042,-0.00018740,0.00001151,0.00006120,
 -0.00000075,0.00009430,0.00025410,0.00013257,-0.00005205,-0.00008702,0
 .00000532,0.00000135,0.00000719,0.00000390,-0.00000350,-0.00000984,-0.
 00002431,0.00008042,0.00003439,0.00000993,0.00018461,0.00015862,0.0001
 2568,0.00001077,0.00002026,-0.00000136,0.00000022,0.00000676,0.0000018
 2,-0.00000164,0.00000645,-0.00000185,-0.00190569,0.00079838,-0.0060885
 2,0.00191519,-0.00003089,-0.00082266,-0.00017849,-0.00005653,0.0000502
 8,0.00002047,0.00017440,-0.00004451,0.03211583,-0.00426481,-0.01813700
 ,0.00005977,-0.00007251,-0.00023352,0.00005613,0.00035761,0.00019599,0
 .00000484,-0.00007579,0.00009218,-0.00023490,0.00014802,-0.00011870,0.
 00002321,0.00000674,0.00000717,-0.00000542,0.00001017,0.00000049,-0.00
 001063,0.00000596,-0.00000550,-0.00000115,0.00000295,-0.00000413,0.000
 00088,-0.00002359,-0.00002402,-0.00000160,-0.00000024,-0.00000260,0.00
 000233,0.00000106,0.00001253,-0.00000511,-0.00000060,0.00000332,0.0023
 0052,0.00020584,0.00103993,-0.00022796,-0.00004465,-0.00007873,-0.0008
 3785,-0.00028684,-0.00044367,-0.00014449,0.00024371,0.00031858,0.08706
 307,-0.02049085,-0.08663596,-0.10365287,0.01991811,0.10198577,0.000035
 01,0.00004962,-0.00001012,-0.00029987,-0.00028165,-0.00009260,-0.00000
 486,-0.00000351,0.00000268,0.00014690,0.00011258,0.00000851,-0.0000912
 0,-0.00009617,-0.00002332,0.00000566,0.00000706,-0.00000245,-0.0000168
 1,0.00000270,0.00002027,0.00009856,0.00002697,0.00001258,-0.00021318,0
 .00027860,-0.00003230,-0.00004004,-0.00002227,0.00001466,-0.00000294,-
 0.00000217,-0.00000263,0.00000899,0.00001290,0.00000012,0.00117583,-0.
 00232149,0.00062479,0.00001620,0.00005471,-0.00010251,-0.00006275,0.00
 024507,0.00005942,-0.00010093,0.00014593,0.00009632,-0.00054203,0.0005
 9638,-0.00105533,0.00007155,0.00004534,0.00012364,-0.00005179,-0.00013
 958,-0.00011466,-0.00001755,0.00000750,-0.00004380,0.00002469,-0.00004
 161,0.00004317,0.00003566,0.00000002,0.00004017,-0.00000026,-0.0000029
 1,0.00000222,-0.00000419,0.00002380,-0.00001144,0.00000176,-0.00000400
 ,-0.00000711,-0.00001028,0.00002625,-0.00006042,0.00001133,0.00001847,
 0.00001947,-0.00000091,-0.00000418,-0.00000159,0.00000560,-0.00000004,
 0.00000476,0.00017238,0.00125161,-0.00013760,0.00001846,-0.00017133,-0
 .00020069,-0.00009560,0.00014608,0.00014153,-0.00005624,-0.00023011,0.
 00007643,-0.06198582,0.04890332,-0.00350487,-0.00373578,0.02772707,-0.
 00270565,0.05856838,0.00010316,0.00029623,0.00010687,0.00022574,-0.000
 19947,0.00004123,-0.00020926,0.00006270,-0.00004204,-0.00020970,-0.000
 14682,-0.00007744,0.00040323,0.00001032,0.00004205,-0.00002949,-0.0000
 1497,-0.00001658,-0.00004207,0.00001738,0.00001460,-0.00040945,0.00000
 059,-0.00005417,-0.00029892,0.00004417,0.00008024,0.00016214,0.0000439
 3,-0.00007481,0.00000740,0.00001560,0.00000743,-0.00003759,-0.00003990
 ,-0.00000601,0.00073008,0.00083144,-0.00120564,-0.00022822,0.00034247,
 -0.00008489,-0.00105685,-0.00000920,0.00063430,0.00011780,-0.00025838,
 -0.00026412,0.00204748,-0.01102698,0.00787788,-0.00007599,0.00007712,-
 0.00011853,-0.00005553,0.00004293,0.00003214,0.00003546,-0.00001193,-0
 .00001392,0.00004817,0.00001916,-0.00001685,-0.00013797,0.00004132,-0.
 00010016,0.00001002,0.00001314,-0.00000280,0.00001104,-0.00007769,0.00
 001403,-0.00000079,0.00002220,-0.00000719,-0.00002942,-0.00009451,0.00
 017289,-0.00001847,-0.00005986,-0.00006329,0.00000677,0.00001471,0.000
 00022,0.00000546,0.00001944,0.00000141,-0.00094437,0.00198260,-0.00119
 789,0.00076555,0.00038849,0.00072314,0.00009177,-0.00018183,0.00003502
 ,-0.00002728,0.00036028,-0.00003011,0.04874282,-0.28822538,0.01757949,
 0.00006285,-0.00466433,-0.00012621,-0.05476057,0.31429167,-0.00000050,
 -0.00003688,0.00000836,0.00026794,-0.00007174,0.00000870,0.00003113,-0
 .00004154,0.00000078,0.00011345,0.00006536,0.00003117,-0.00005987,-0.0
 0001946,0.00000914,0.00000807,0.00000357,-0.00000458,0.00001551,0.0000
 0006,0.00000796,0.00008816,0.00000408,0.00000688,-0.00012829,-0.000187
 26,0.00004176,-0.00015318,-0.00002599,0.00007544,0.00000642,-0.0000045
 7,-0.00001147,0.00002755,0.00001605,-0.00000350,-0.00345881,0.00224913
 ,0.00094322,-0.00009236,-0.00025227,0.00025293,0.00065884,-0.00085394,
 0.00046592,-0.00001615,0.00048762,0.00068770,-0.00684457,0.03740270,-0
 .01653765,-0.00004877,-0.00012215,-0.00013738,0.00011996,0.00006170,0.
 00002979,-0.00000572,0.00000330,0.00004910,-0.00006603,0.00001614,-0.0
 0001661,0.00010622,-0.00007132,0.00009978,-0.00000963,0.00000084,0.000
 00087,-0.00001067,0.00004185,-0.00002197,-0.00000409,-0.00001556,-0.00
 001705,0.00004160,0.00020332,-0.00014793,0.00001947,0.00006329,0.00008
 966,-0.00000733,0.00000312,-0.00000260,0.00001251,0.00000827,0.0000033
 9,0.00119751,0.00349349,0.00181619,0.00021767,-0.00116162,0.00009388,-
 0.00007486,-0.00027793,-0.00012199,0.00019424,-0.00042962,0.00024164,-
 0.00259449,0.01336636,-0.05150511,0.00110590,-0.01185348,0.00183570,0.
 00458814,-0.02701721,0.06141784,0.00010187,0.00014913,0.00007687,0.000
 21559,-0.00054550,0.00023200,-0.00010939,0.00004996,-0.00002849,0.0000
 6251,0.00023641,-0.00011649,-0.00007606,-0.00024535,0.00003493,-0.0000
 0401,0.00000991,-0.00001776,-0.00000708,0.00001025,0.00000828,0.000068
 83,0.00006698,-0.00000072,-0.00027815,-0.00003235,0.00013867,0.0000326
 2,0.00000229,-0.00001540,-0.00000785,0.00001000,-0.00000139,-0.0000056
 1,-0.00000082,-0.00000617,0.00033882,0.00062155,0.00069364,0.00007547,
 0.00003146,-0.00015374,0.00006541,0.00005074,0.00002658,0.00000036,0.0
 0007173,0.00008946,0.00046250,0.00135074,0.00118254,-0.00010050,0.0000
 2290,-0.00014015,0.00006220,-0.00010309,-0.00001036,0.00001056,0.00003
 632,-0.00001176,0.00009068,-0.00000101,0.00001369,-0.00001291,-0.00000
 028,0.00001841,-0.00000242,0.00000061,-0.00000155,0.00000093,-0.000010
 65,-0.00001076,-0.00000068,0.00000039,-0.00000986,-0.00001988,0.000019
 81,-0.00002480,0.00000560,-0.00000546,0.00001251,-0.00001304,0.0000130
 2,-0.00000511,0.00003081,0.00003020,0.00000007,0.00051983,0.00058885,0
 .00007004,-0.00004217,-0.00015110,-0.00001406,0.00049196,0.00003941,0.
 00007080,0.00036843,-0.00029694,-0.00010295,-0.18475445,-0.10464778,-0
 .09174975,-0.01706084,-0.01553309,-0.01365428,0.00591159,0.00480992,0.
 00450384,0.19326993,-0.00001234,-0.00001557,-0.00000788,-0.00021601,0.
 00022505,0.00024471,0.00001004,-0.00003712,-0.00001099,0.00005019,-0.0
 0005190,0.00001963,0.00000293,0.00004755,0.00001352,0.00000204,-0.0000
 0410,-0.00000224,0.00002312,-0.00001027,-0.00002610,0.00000942,-0.0000
 1968,0.00000655,-0.00028595,0.00006278,0.00013005,-0.00003452,-0.00000
 343,0.00001231,0.00000582,-0.00000019,-0.00000476,0.00000584,0.0000017
 1,0.00000233,-0.00017472,0.00036936,-0.00034558,0.00014397,-0.00012287
 ,0.00002927,-0.00010294,-0.00037622,0.00004265,-0.00002292,0.00015971,
 -0.00000012,0.00875541,0.00537205,0.00562864,-0.00000930,-0.00000268,0
 .00002581,-0.00000698,0.00002695,-0.00001866,-0.00000168,-0.00000520,-
 0.00001194,-0.00002501,0.00000229,0.00000760,0.00002556,0.00000401,0.0
 0001205,0.00000035,0.00000099,0.00000122,-0.00000792,0.00001331,-0.000
 00452,-0.00000182,0.00000331,-0.00000842,0.00002094,0.00000123,0.00000
 187,0.00000004,0.00001944,-0.00000827,0.00000664,-0.00000479,0.0000006
 0,-0.00003020,-0.00001070,-0.00000246,-0.00017631,0.00028248,0.0010403
 9,0.00010653,0.00047037,0.00037992,-0.00010306,-0.00017583,0.00007667,
 0.00005538,0.00049223,0.00036299,-0.10702450,-0.13032797,-0.07259363,0
 .00564082,0.00383303,0.00422473,-0.02132917,-0.01439067,-0.01381632,0.
 11360052,0.13533010,0.00010060,0.00014900,-0.00002899,0.00076306,0.000
 21115,-0.00038206,-0.00006523,-0.00004521,-0.00003146,0.00003623,-0.00
 006526,0.00007313,0.00028611,0.00010393,0.00002220,-0.00000705,-0.0000
 1467,0.00000412,-0.00001257,0.00001065,0.00000892,-0.00022929,-0.00003
 144,-0.00003212,-0.00017955,0.00013133,0.00020734,-0.00005394,0.000027
 10,0.00002942,0.00001622,-0.00000427,-0.00000132,0.00001407,-0.0000101
 0,-0.00000699,-0.00145537,-0.00067964,0.00083000,-0.00013976,0.0000140
 7,0.00021377,0.00021874,-0.00011156,-0.00011050,0.00002038,0.00019496,
 0.00001273,-0.02556625,-0.01763909,-0.02080967,0.00003599,0.00001856,-
 0.00008502,0.00002861,0.00003697,-0.00001118,0.00001195,-0.00000165,0.
 00000921,0.00001350,-0.00001327,-0.00001392,0.00001709,0.00001209,0.00
 000617,0.00000266,0.00000134,0.00000217,-0.00000846,0.00000109,-0.0000
 1274,-0.00000331,0.00000073,-0.00001362,-0.00000591,-0.00000997,-0.000
 03096,0.00000476,-0.00000141,0.00000339,0.00000410,-0.00000188,0.00000
 332,0.00000007,0.00000246,0.00001998,0.00176967,0.00290196,-0.00591440
 ,0.00014044,-0.00006905,0.00004263,-0.00006618,0.00017417,0.00024791,-
 0.00134386,-0.00112300,-0.00103121,-0.08379621,-0.06601809,-0.10735548
 ,0.00841223,0.00764015,0.00732742,0.00253199,0.00119672,0.00229898,0.0
 9872186,0.07351196,0.12477691,-0.00121350,-0.00087341,-0.00025153,-0.0
 0121330,0.00087347,-0.00025155,0.00083170,-0.00059629,0.00016911,0.000
 83176,0.00059625,0.00016914,-0.00133953,-0.00000003,-0.00016695,0.0000
 2325,0.00004685,0.00001608,0.00002326,-0.00004684,0.00001608,0.0013955
 3,0.,0.00016830,-0.00227135,-0.00000082,-0.00076952,-0.00041437,-0.000
 15592,0.00017900,-0.00002503,0.00001982,-0.00003564,0.00009883,0.00010
 140,0.00002261,-0.00041439,0.00015601,0.00017901,-0.00002502,-0.000019
 82,-0.00003565,0.00009881,-0.00010141,0.00002261,-0.00017312,0.0001968
 3,0.00006576,-0.00017373,-0.00019707,0.00006605,-0.09112103,0.00000071
 ,0.05819290,0.01887639,0.00000337,-0.01887955,-0.00965071,-0.00190875,
 0.01642518,-0.00964237,0.00190535,0.01640200,0.00063111,-0.00044281,0.
 00025324,-0.00018582,0.00017456,0.00013580,-0.00021431,0.00019116,-0.0
 0007144,0.00003021,-0.00003680,-0.00014209,0.00020348,0.00006132,-0.00
 033480,-0.00002768,0.00024539,0.00008784,0.00004815,0.00009095,0.00006
 145,-0.00011600,0.00001362,-0.00011318,0.00062960,0.00044263,0.0002540
 1,-0.00021395,-0.00019116,-0.00007166,-0.00018473,-0.00017410,0.000135
 43,0.00003026,0.00003676,-0.00014218,0.00020352,-0.00006142,-0.0003347
 8,0.00004793,-0.00009083,0.00006150,-0.00002767,-0.00024540,0.00008785
 ,-0.00011596,-0.00001362,-0.00011317,0.11261243,0.00008335,-0.00011642
 ,-0.00015132,-0.00008323,-0.00011624,0.00015129,0.00010581,-0.00002925
 ,0.00003450,-0.00010580,-0.00002931,-0.00003447,0.,0.00015850,0.,0.000
 00692,0.00000071,0.00002576,-0.00000691,0.00000071,-0.00002574,0.,-0.0
 0004250,0.,0.00000057,0.00147454,-0.00000030,-0.00013391,0.00001512,0.
 00007992,0.00000443,0.00001327,0.00000587,0.00004094,0.00001542,0.0000
 0277,0.00013396,0.00001512,-0.00007994,-0.00000445,0.00001325,-0.00000
 585,-0.00004097,0.00001543,-0.00000279,-0.00068554,0.00092327,-0.00053
 643,0.00068543,0.00092327,0.00053632,0.00000311,-0.03237322,-0.0000121
 5,0.00001109,-0.00349177,-0.00000970,0.00974003,0.00051196,-0.02014102
 ,-0.00975024,0.00051378,0.02015410,-0.00016167,0.00010220,0.00014684,0
 .00018803,-0.00016320,-0.00016423,0.00014909,0.00011384,-0.00004237,-0
 .00007229,-0.00008724,0.00003638,-0.00003762,-0.00008801,-0.00012699,0
 .00002630,-0.00000111,0.00001164,0.00003044,0.00002329,-0.00000608,0.0
 0003235,-0.00000603,0.00006754,0.00015892,0.00010231,-0.00014558,-0.00
 014854,0.00011390,0.00004207,-0.00018624,-0.00016283,0.00016347,0.0000
 7243,-0.00008733,-0.00003654,0.00003777,-0.00008803,0.00012698,-0.0000
 3044,0.00002325,0.00000614,-0.00002635,-0.00000108,-0.00001165,-0.0000
 3236,-0.00000602,-0.00006751,-0.00000212,0.03633775,0.00071973,-0.0000
 2458,0.00013942,0.00071973,0.00002455,0.00013943,-0.00003651,0.0002619
 4,-0.00011477,-0.00003653,-0.00026195,-0.00011478,0.00000595,0.0000000
 2,0.00003642,0.00007088,-0.00000015,-0.00002116,0.00007088,0.00000015,
 -0.00002116,-0.00003785,0.,-0.00000573,0.00249116,0.00000006,0.0025575
 5,0.00011215,0.00010435,0.00013360,-0.00001567,-0.00002574,-0.00000597
 ,0.00001982,0.00001871,-0.00004041,0.00011220,-0.00010439,0.00013358,-
 0.00001566,0.00002576,-0.00000598,0.00001982,-0.00001872,-0.00004040,-
 0.00004811,-0.00016695,-0.00023582,-0.00004781,0.00016719,-0.00023559,
 0.08524106,-0.00001186,-0.20051836,0.01016932,0.00000301,-0.01110178,0
 .00027651,0.00030731,-0.00113064,0.00028358,-0.00030609,-0.00114128,-0
 .00014640,0.00028595,0.00020986,0.00011885,-0.00013614,-0.00006315,0.0
 0013912,-0.00001735,0.00000717,-0.00000515,0.00000385,0.00010551,-0.00
 016734,-0.00008800,-0.00013691,0.00005000,-0.00010477,0.00002602,-0.00
 001599,0.00002218,-0.00004588,0.00011265,-0.00004071,0.00007846,-0.000
 14423,-0.00028569,0.00020884,0.00013863,0.00001731,0.00000744,0.000117
 27,0.00013565,-0.00006251,-0.00000521,-0.00000387,0.00010565,-0.000167
 46,0.00008802,-0.00013688,-0.00001604,-0.00002208,-0.00004598,0.000050
 02,0.00010477,0.00002602,0.00011266,0.00004070,0.00007842,-0.06990574,
 0.00000854,0.22494027,-0.01342644,-0.01383291,0.00214749,-0.01342602,0
 .01383304,0.00214782,-0.00054689,0.00270509,0.00031649,-0.00054707,-0.
 00270511,0.00031636,0.00158202,0.00000005,-0.00008070,0.00045773,0.000
 14687,0.00012251,0.00045774,-0.00014689,0.00012250,-0.00222286,0.,-0.0
 0018771,-0.14935231,0.00000008,0.01439154,-0.00437696,-0.01099852,-0.0
 0152705,0.00025110,0.00006926,-0.00011716,-0.00271634,-0.00001690,0.00
 082210,-0.00437767,0.01099901,-0.00152671,0.00025116,-0.00006923,-0.00
 011723,-0.00271640,0.00001691,0.00082212,-0.03741626,0.00491653,0.0017
 0965,-0.03741796,-0.00492128,0.00171277,-0.01740494,-0.00001405,0.0223
 9100,-0.00939715,0.00000371,0.01341046,0.00100781,0.00047374,-0.001556
 73,0.00099569,-0.00046861,-0.00155114,0.00243337,0.00802297,0.00116388
 ,0.00035101,0.00051350,0.00008090,-0.00073957,0.00189508,-0.00118078,0
 .00008601,0.00019046,0.00004128,-0.00034991,-0.00116570,-0.00102343,0.
 00105220,-0.00043071,0.00016301,0.00030974,0.00068520,-0.00008499,0.00
 042439,-0.00111343,-0.00010417,0.00243291,-0.00802299,0.00116474,-0.00
 073956,-0.00189525,-0.00118092,0.00035192,-0.00051372,0.00008054,0.000
 08608,-0.00019049,0.00004111,-0.00034972,0.00116536,-0.00102381,0.0003
 0923,-0.00068507,-0.00008482,0.00105216,0.00043048,0.00016336,0.000424
 48,0.00111340,-0.00010421,-0.01785264,-0.00000230,-0.03034030,0.301059
 93,-0.01566431,0.00056638,0.00093427,0.01566454,0.00056578,-0.00093392
 ,0.00012260,-0.00405446,-0.00019382,-0.00012255,-0.00405447,0.00019355
 ,-0.00000002,0.00112089,0.00000009,-0.00067371,0.00016130,-0.00046385,
 0.00067377,0.00016129,0.00046375,0.00000002,-0.00028432,-0.00000001,0.
 00000086,-0.04150637,0.00000184,-0.01395214,-0.00769866,0.00407834,0.0
 0051556,0.00009482,-0.00055420,0.00105337,0.00052414,0.00020210,0.0139
 5208,-0.00769851,-0.00407839,-0.00051548,0.00009486,0.00055421,-0.0010
 5341,0.00052408,-0.00020207,-0.00586810,-0.04094597,-0.00170386,0.0058
 6580,-0.04094797,0.00170542,0.00000213,-0.02439627,0.00001681,-0.00000
 487,-0.00143331,-0.00000373,0.00584859,0.00227567,-0.00295440,-0.00585
 874,0.00227945,0.00295215,0.00400669,-0.00880245,0.00413131,-0.0008086
 3,0.00039157,-0.00051362,-0.00064569,0.00128984,-0.00076628,-0.0007008
 9,-0.00005316,-0.00097047,-0.00113145,-0.00741139,-0.00997491,0.000244
 56,0.00046512,0.00122003,-0.00049190,-0.00069083,0.00052344,0.00021741
 ,-0.00115275,0.00043328,-0.00400593,-0.00880246,-0.00413156,0.00064537
 ,0.00128964,0.00076629,0.00080867,0.00039023,0.00051347,0.00070092,-0.
 00005315,0.00097052,0.00113176,-0.00741128,0.00997397,0.00049073,-0.00
 069088,-0.00052265,-0.00024485,0.00046511,-0.00121973,-0.00021732,-0.0
 0115274,-0.00043330,0.00000218,-0.00452131,-0.00000096,0.00001240,0.20
 110249,-0.00118032,0.00191547,0.00141288,-0.00118033,-0.00191595,0.001
 41311,0.00060394,-0.00152995,0.00166008,0.00060368,0.00152992,0.001660
 13,-0.00094306,0.00000019,-0.00078180,-0.00029301,-0.00000046,0.000356
 66,-0.00029304,0.00000045,0.00035662,0.00117999,-0.00000005,0.00017788
 ,0.01687773,0.00000238,-0.01626145,0.00111164,0.00420393,0.00010379,-0
 .00038468,0.00028030,0.00023727,0.00151143,0.00020924,0.00013969,0.001
 11197,-0.00420436,0.00010367,-0.00038470,-0.00028025,0.00023732,0.0015
 1147,-0.00020926,0.00013967,0.00213126,0.00089399,-0.03305580,0.002133
 06,-0.00089044,-0.03305637,0.01463873,0.00001793,0.02170321,-0.0089228
 3,-0.00000536,-0.01010793,-0.00056083,-0.00011256,-0.00421212,-0.00055
 379,0.00010714,-0.00420504,0.00158662,0.00642706,-0.00006861,-0.000054
 15,-0.00014991,0.00007297,-0.00107018,0.00150461,-0.00002620,0.0002359
 1,0.00065380,0.00026231,-0.00279430,-0.01306727,-0.00264798,-0.0003519
 0,-0.00185538,-0.00201471,-0.00043458,-0.00117213,-0.00020334,0.000068
 85,-0.00104559,-0.00034646,0.00158585,-0.00642681,-0.00006894,-0.00106
 998,-0.00150441,-0.00002614,-0.00005397,0.00014993,0.00007288,0.000235
 92,-0.00065381,0.00026232,-0.00279444,0.01306687,-0.00264738,-0.000433
 55,0.00117216,-0.00020381,-0.00035182,0.00185546,-0.00201499,0.0000687
 0,0.00104568,-0.00034648,-0.00155154,0.00000056,-0.01370851,-0.0215397
 7,-0.00001310,0.09563162\\0.00004118,-0.00001755,0.00003400,0.00004000
 ,0.00001729,0.00003416,-0.00004831,-0.00000541,-0.00000565,-0.00004838
 ,0.00000575,-0.00000560,0.00010524,0.,0.00001672,-0.00000397,-0.000000
 35,-0.00000329,-0.00000404,0.00000034,-0.00000344,-0.00009063,-0.00000
 004,-0.00001095,-0.00001656,0.00000357,0.00000020,-0.00001006,0.000018
 46,-0.00001841,0.00000670,0.00000309,0.00000205,-0.00000233,-0.0000184
 2,-0.00000850,-0.00000980,-0.00001856,-0.00001840,0.00000648,-0.000003
 11,0.00000218,-0.00000220,0.00001831,-0.00000856,-0.00000527,-0.000009
 65,0.00001637,-0.00000372,0.00001021,0.00001521,0.00004594,0.00001528,
 -0.00004748,0.00001348,0.00000272,-0.00001182,0.00000044,-0.00000957,0
 .,0.00001184,0.00000418,-0.00000648,0.00001272,-0.00001182,-0.00000950
 ,0.00000351,0.00000018,0.00000057,-0.00000319,-0.00000701,-0.00000184,
 0.00000048,0.00000618,0.00000847,-0.00000160,0.00001354,-0.00000038,-0
 .00000519,-0.00001238,0.00000339,0.00000618,0.00000584,0.00000024,-0.0
 0000390,0.00000567,-0.00000729,0.00001218,0.00001172,-0.00000950,-0.00
 000300,0.00000708,-0.00000190,0.00000282,0.00000121,0.00000103,0.00000
 053,-0.00000610,0.00000850,-0.00000074,-0.00001391,-0.00000054,0.00000
 686,-0.00000691,0.00000030,-0.00000534,0.00001254,0.00000329,-0.000004
 04,-0.00000561,-0.00000718,-0.00008333,-0.00000424,0.00000666,0.000039
 03,-0.00001252,0.00003338\\\@
 The archive entry for this job was punched.


 THERE ONCE WAS A GIRL NAMED IRENE,
 WHO LIVED ON DISTILLED KEROSENE,
      BUT SHE STARTED ABSORBIN'
      A NEW HYDROCARBON,
 AND SINCE THEN HAS NEVER BENZENE.
 Job cpu time:       4 days 17 hours 37 minutes 42.9 seconds.
 Elapsed time:       0 days 14 hours 54 minutes 42.2 seconds.
 File lengths (MBytes):  RWF=   1938 Int=      0 D2E=      0 Chk=     70 Scr=      1
 Normal termination of Gaussian 16 at Fri Mar  8 11:20:30 2024.
