 Entering Gaussian System, Link 0=/cm/shared/apps//g16/g16
 Input=ZRhMeH.gjf
 Output=ZRhMeH.log
 Initial command:
 /cm/shared/apps//g16/l1.exe "/local/mvanvleet/pbs.14054.josephine/Gau-2354794.inp" -scrdir="/local/mvanvleet/pbs.14054.josephine/"
 Entering Link 1 = /cm/shared/apps//g16/l1.exe PID=   2354797.
  
 Copyright (c) 1988-2019, Gaussian, Inc.  All Rights Reserved.
  
 This is part of the Gaussian(R) 16 program.  It is based on
 the Gaussian(R) 09 system (copyright 2009, Gaussian, Inc.),
 the Gaussian(R) 03 system (copyright 2003, Gaussian, Inc.),
 the Gaussian(R) 98 system (copyright 1998, Gaussian, Inc.),
 the Gaussian(R) 94 system (copyright 1995, Gaussian, Inc.),
 the Gaussian 92(TM) system (copyright 1992, Gaussian, Inc.),
 the Gaussian 90(TM) system (copyright 1990, Gaussian, Inc.),
 the Gaussian 88(TM) system (copyright 1988, Gaussian, Inc.),
 the Gaussian 86(TM) system (copyright 1986, Carnegie Mellon
 University), and the Gaussian 82(TM) system (copyright 1983,
 Carnegie Mellon University). Gaussian is a federally registered
 trademark of Gaussian, Inc.
  
 This software contains proprietary and confidential information,
 including trade secrets, belonging to Gaussian, Inc.
  
 This software is provided under written license and may be
 used, copied, transmitted, or stored only in accord with that
 written license.
  
 The following legend is applicable only to US Government
 contracts under FAR:
  
                    RESTRICTED RIGHTS LEGEND
  
 Use, reproduction and disclosure by the US Government is
 subject to restrictions as set forth in subparagraphs (a)
 and (c) of the Commercial Computer Software - Restricted
 Rights clause in FAR 52.227-19.
  
 Gaussian, Inc.
 340 Quinnipiac St., Bldg. 40, Wallingford CT 06492
  
  
 ---------------------------------------------------------------
 Warning -- This program may not be used in any manner that
 competes with the business of Gaussian, Inc. or will provide
 assistance to any competitor of Gaussian, Inc.  The licensee
 of this program is prohibited from giving any competitor of
 Gaussian, Inc. access to this program.  By using this program,
 the user acknowledges that Gaussian, Inc. is engaged in the
 business of creating and licensing software in the field of
 computational chemistry and represents and warrants to the
 licensee that it is not a competitor of Gaussian, Inc. and that
 it will not use this program in any manner prohibited above.
 ---------------------------------------------------------------
  

 Cite this work as:
 Gaussian 16, Revision C.01,
 M. J. Frisch, G. W. Trucks, H. B. Schlegel, G. E. Scuseria, 
 M. A. Robb, J. R. Cheeseman, G. Scalmani, V. Barone, 
 G. A. Petersson, H. Nakatsuji, X. Li, M. Caricato, A. V. Marenich, 
 J. Bloino, B. G. Janesko, R. Gomperts, B. Mennucci, H. P. Hratchian, 
 J. V. Ortiz, A. F. Izmaylov, J. L. Sonnenberg, D. Williams-Young, 
 F. Ding, F. Lipparini, F. Egidi, J. Goings, B. Peng, A. Petrone, 
 T. Henderson, D. Ranasinghe, V. G. Zakrzewski, J. Gao, N. Rega, 
 G. Zheng, W. Liang, M. Hada, M. Ehara, K. Toyota, R. Fukuda, 
 J. Hasegawa, M. Ishida, T. Nakajima, Y. Honda, O. Kitao, H. Nakai, 
 T. Vreven, K. Throssell, J. A. Montgomery, Jr., J. E. Peralta, 
 F. Ogliaro, M. J. Bearpark, J. J. Heyd, E. N. Brothers, K. N. Kudin, 
 V. N. Staroverov, T. A. Keith, R. Kobayashi, J. Normand, 
 K. Raghavachari, A. P. Rendell, J. C. Burant, S. S. Iyengar, 
 J. Tomasi, M. Cossi, J. M. Millam, M. Klene, C. Adamo, R. Cammi, 
 J. W. Ochterski, R. L. Martin, K. Morokuma, O. Farkas, 
 J. B. Foresman, and D. J. Fox, Gaussian, Inc., Wallingford CT, 2019.
 
 ******************************************
 Gaussian 16:  ES64L-G16RevC.01  3-Jul-2019
                 7-Mar-2024 
 ******************************************
 %nprocshared=8
 Will use up to    8 processors via shared memory.
 %chk=ZRhMeH.chk
 %mem=1GB
 ----------------------------------------------------------
 # wb97xd def2TZVPP SCRF=(solvent=dichloromethane) opt freq
 ----------------------------------------------------------
 1/18=20,19=15,26=3,38=1/1,3;
 2/9=110,12=2,17=6,18=5,40=1/2;
 3/5=44,7=202,11=2,25=1,30=1,70=2201,71=1,72=9,74=-58/1,2,3;
 4//1;
 5/5=2,38=5,53=9/2;
 6/7=2,8=2,9=2,10=2,28=1/1;
 7//1,2,3,16;
 1/18=20,19=15,26=3/3(2);
 2/9=110/2;
 99//99;
 2/9=110/2;
 3/5=44,7=202,11=2,25=1,30=1,70=2205,71=1,72=9,74=-58/1,2,3;
 4/5=5,16=3,69=1/1;
 5/5=2,38=5,53=9/2;
 7//1,2,3,16;
 1/18=20,19=15,26=3/3(-5);
 2/9=110/2;
 6/7=2,8=2,9=2,10=2,19=2,28=1/1;
 99/9=1/99;
 ------
 ZRhMeH
 ------
 Symbolic Z-matrix:
 Charge =  0 Multiplicity = 1
 C                     1.51181   1.18135  -0.38925 
 C                     1.51182  -1.18134  -0.38925 
 C                     2.81966   1.23658   0.01348 
 C                     2.81966  -1.23656   0.01348 
 C                     3.5873    0.00001   0.23635 
 H                     3.3274    2.19241   0.1772 
 H                     3.32741  -2.1924    0.17721 
 O                     4.77147   0.00001   0.5977 
 N                     0.86014   0.       -0.60563 
 C                     0.57829   2.3314   -0.70206 
 H                     0.40153   2.35296  -1.79341 
 H                     0.97642   3.31606  -0.38431 
 C                     0.57829  -2.3314   -0.70205 
 H                     0.40154  -2.35297  -1.7934 
 H                     0.97643  -3.31605  -0.38429 
 N                    -0.76845   2.09813  -0.0609 
 N                    -0.76844  -2.09813  -0.0609 
 C                    -2.79168   0.00002   1.04029 
 H                    -2.39208   0.00013   2.08004 
 H                    -3.44736   0.88771   0.93664 
 H                    -3.44729  -0.88773   0.93678 
 C                    -1.78058   2.95542  -0.70948 
 H                    -2.74827   2.8044   -0.20767 
 H                    -1.48738   4.024    -0.63449 
 H                    -1.87003   2.66575  -1.76701 
 C                    -0.6691    2.45861   1.37438 
 H                    -0.38858   3.52774   1.47647 
 H                    -1.63797   2.28252   1.86342 
 H                     0.10669   1.8356    1.85062 
 C                    -1.78056  -2.95543  -0.70949 
 H                    -1.48736  -4.024    -0.63451 
 H                    -2.74826  -2.80442  -0.20769 
 H                    -1.87001  -2.66576  -1.76702 
 C                    -0.66909  -2.45863   1.37438 
 H                    -1.63798  -2.28261   1.86341 
 H                    -0.38852  -3.52775   1.47645 
 H                     0.10666  -1.83559   1.85064 
 H                    -2.35382  -0.00001  -1.01973 
 Rh                   -1.09885   0.       -0.14422 
 

 GradGradGradGradGradGradGradGradGradGradGradGradGradGradGradGradGradGrad
 Berny optimization.
 Initialization pass.
                           ----------------------------
                           !    Initial Parameters    !
                           ! (Angstroms and Degrees)  !
 --------------------------                            --------------------------
 ! Name  Definition              Value          Derivative Info.                !
 --------------------------------------------------------------------------------
 ! R1    R(1,3)                  1.3696         estimate D2E/DX2                !
 ! R2    R(1,9)                  1.3664         estimate D2E/DX2                !
 ! R3    R(1,10)                 1.5139         estimate D2E/DX2                !
 ! R4    R(2,4)                  1.3696         estimate D2E/DX2                !
 ! R5    R(2,9)                  1.3664         estimate D2E/DX2                !
 ! R6    R(2,13)                 1.5139         estimate D2E/DX2                !
 ! R7    R(3,5)                  1.4724         estimate D2E/DX2                !
 ! R8    R(3,6)                  1.0946         estimate D2E/DX2                !
 ! R9    R(4,5)                  1.4724         estimate D2E/DX2                !
 ! R10   R(4,7)                  1.0946         estimate D2E/DX2                !
 ! R11   R(5,8)                  1.2381         estimate D2E/DX2                !
 ! R12   R(9,39)                 2.0126         estimate D2E/DX2                !
 ! R13   R(10,11)                1.1058         estimate D2E/DX2                !
 ! R14   R(10,12)                1.1086         estimate D2E/DX2                !
 ! R15   R(10,16)                1.5097         estimate D2E/DX2                !
 ! R16   R(13,14)                1.1058         estimate D2E/DX2                !
 ! R17   R(13,15)                1.1086         estimate D2E/DX2                !
 ! R18   R(13,17)                1.5097         estimate D2E/DX2                !
 ! R19   R(16,22)                1.4765         estimate D2E/DX2                !
 ! R20   R(16,26)                1.4832         estimate D2E/DX2                !
 ! R21   R(16,39)                2.1256         estimate D2E/DX2                !
 ! R22   R(17,30)                1.4765         estimate D2E/DX2                !
 ! R23   R(17,34)                1.4832         estimate D2E/DX2                !
 ! R24   R(17,39)                2.1256         estimate D2E/DX2                !
 ! R25   R(18,19)                1.1139         estimate D2E/DX2                !
 ! R26   R(18,20)                1.1084         estimate D2E/DX2                !
 ! R27   R(18,21)                1.1084         estimate D2E/DX2                !
 ! R28   R(18,39)                2.0661         estimate D2E/DX2                !
 ! R29   R(22,23)                1.1005         estimate D2E/DX2                !
 ! R30   R(22,24)                1.1106         estimate D2E/DX2                !
 ! R31   R(22,25)                1.1001         estimate D2E/DX2                !
 ! R32   R(26,27)                1.11           estimate D2E/DX2                !
 ! R33   R(26,28)                1.0995         estimate D2E/DX2                !
 ! R34   R(26,29)                1.1031         estimate D2E/DX2                !
 ! R35   R(30,31)                1.1106         estimate D2E/DX2                !
 ! R36   R(30,32)                1.1005         estimate D2E/DX2                !
 ! R37   R(30,33)                1.1001         estimate D2E/DX2                !
 ! R38   R(34,35)                1.0995         estimate D2E/DX2                !
 ! R39   R(34,36)                1.11           estimate D2E/DX2                !
 ! R40   R(34,37)                1.1031         estimate D2E/DX2                !
 ! R41   R(38,39)                1.5302         estimate D2E/DX2                !
 ! A1    A(3,1,9)              122.4701         estimate D2E/DX2                !
 ! A2    A(3,1,10)             128.2407         estimate D2E/DX2                !
 ! A3    A(9,1,10)             109.2668         estimate D2E/DX2                !
 ! A4    A(4,2,9)              122.4703         estimate D2E/DX2                !
 ! A5    A(4,2,13)             128.241          estimate D2E/DX2                !
 ! A6    A(9,2,13)             109.2663         estimate D2E/DX2                !
 ! A7    A(1,3,5)              120.5634         estimate D2E/DX2                !
 ! A8    A(1,3,6)              121.4758         estimate D2E/DX2                !
 ! A9    A(5,3,6)              117.9607         estimate D2E/DX2                !
 ! A10   A(2,4,5)              120.5638         estimate D2E/DX2                !
 ! A11   A(2,4,7)              121.4757         estimate D2E/DX2                !
 ! A12   A(5,4,7)              117.9604         estimate D2E/DX2                !
 ! A13   A(3,5,4)              114.2415         estimate D2E/DX2                !
 ! A14   A(3,5,8)              122.8758         estimate D2E/DX2                !
 ! A15   A(4,5,8)              122.8758         estimate D2E/DX2                !
 ! A16   A(1,9,2)              119.6652         estimate D2E/DX2                !
 ! A17   A(1,9,39)             115.3352         estimate D2E/DX2                !
 ! A18   A(2,9,39)             115.3357         estimate D2E/DX2                !
 ! A19   A(1,10,11)            108.5001         estimate D2E/DX2                !
 ! A20   A(1,10,12)            113.2067         estimate D2E/DX2                !
 ! A21   A(1,10,16)            110.178          estimate D2E/DX2                !
 ! A22   A(11,10,12)           108.8424         estimate D2E/DX2                !
 ! A23   A(11,10,16)           106.2343         estimate D2E/DX2                !
 ! A24   A(12,10,16)           109.6255         estimate D2E/DX2                !
 ! A25   A(2,13,14)            108.4998         estimate D2E/DX2                !
 ! A26   A(2,13,15)            113.206          estimate D2E/DX2                !
 ! A27   A(2,13,17)            110.1783         estimate D2E/DX2                !
 ! A28   A(14,13,15)           108.8425         estimate D2E/DX2                !
 ! A29   A(14,13,17)           106.2347         estimate D2E/DX2                !
 ! A30   A(15,13,17)           109.6259         estimate D2E/DX2                !
 ! A31   A(10,16,22)           109.5867         estimate D2E/DX2                !
 ! A32   A(10,16,26)           108.2804         estimate D2E/DX2                !
 ! A33   A(10,16,39)           105.9338         estimate D2E/DX2                !
 ! A34   A(22,16,26)           109.2617         estimate D2E/DX2                !
 ! A35   A(22,16,39)           116.7019         estimate D2E/DX2                !
 ! A36   A(26,16,39)           106.7529         estimate D2E/DX2                !
 ! A37   A(13,17,30)           109.5861         estimate D2E/DX2                !
 ! A38   A(13,17,34)           108.28           estimate D2E/DX2                !
 ! A39   A(13,17,39)           105.9341         estimate D2E/DX2                !
 ! A40   A(30,17,34)           109.2614         estimate D2E/DX2                !
 ! A41   A(30,17,39)           116.7021         estimate D2E/DX2                !
 ! A42   A(34,17,39)           106.7536         estimate D2E/DX2                !
 ! A43   A(19,18,20)           107.4223         estimate D2E/DX2                !
 ! A44   A(19,18,21)           107.4235         estimate D2E/DX2                !
 ! A45   A(19,18,39)           103.9584         estimate D2E/DX2                !
 ! A46   A(20,18,21)           106.4267         estimate D2E/DX2                !
 ! A47   A(20,18,39)           115.535          estimate D2E/DX2                !
 ! A48   A(21,18,39)           115.5355         estimate D2E/DX2                !
 ! A49   A(16,22,23)           108.8323         estimate D2E/DX2                !
 ! A50   A(16,22,24)           110.3665         estimate D2E/DX2                !
 ! A51   A(16,22,25)           108.9727         estimate D2E/DX2                !
 ! A52   A(23,22,24)           109.4749         estimate D2E/DX2                !
 ! A53   A(23,22,25)           109.3116         estimate D2E/DX2                !
 ! A54   A(24,22,25)           109.8595         estimate D2E/DX2                !
 ! A55   A(16,26,27)           109.878          estimate D2E/DX2                !
 ! A56   A(16,26,28)           109.4188         estimate D2E/DX2                !
 ! A57   A(16,26,29)           109.125          estimate D2E/DX2                !
 ! A58   A(27,26,28)           109.6359         estimate D2E/DX2                !
 ! A59   A(27,26,29)           109.059          estimate D2E/DX2                !
 ! A60   A(28,26,29)           109.7097         estimate D2E/DX2                !
 ! A61   A(17,30,31)           110.3671         estimate D2E/DX2                !
 ! A62   A(17,30,32)           108.8326         estimate D2E/DX2                !
 ! A63   A(17,30,33)           108.9729         estimate D2E/DX2                !
 ! A64   A(31,30,32)           109.4749         estimate D2E/DX2                !
 ! A65   A(31,30,33)           109.859          estimate D2E/DX2                !
 ! A66   A(32,30,33)           109.3112         estimate D2E/DX2                !
 ! A67   A(17,34,35)           109.4189         estimate D2E/DX2                !
 ! A68   A(17,34,36)           109.8777         estimate D2E/DX2                !
 ! A69   A(17,34,37)           109.125          estimate D2E/DX2                !
 ! A70   A(35,34,36)           109.6352         estimate D2E/DX2                !
 ! A71   A(35,34,37)           109.7103         estimate D2E/DX2                !
 ! A72   A(36,34,37)           109.0593         estimate D2E/DX2                !
 ! A73   A(9,39,16)             81.8184         estimate D2E/DX2                !
 ! A74   A(9,39,17)             81.8182         estimate D2E/DX2                !
 ! A75   A(9,39,18)            158.2723         estimate D2E/DX2                !
 ! A76   A(9,39,38)            131.8455         estimate D2E/DX2                !
 ! A77   A(16,39,17)           161.5507         estimate D2E/DX2                !
 ! A78   A(16,39,18)            96.0199         estimate D2E/DX2                !
 ! A79   A(16,39,38)            98.622          estimate D2E/DX2                !
 ! A80   A(17,39,18)            96.0212         estimate D2E/DX2                !
 ! A81   A(17,39,38)            98.6214         estimate D2E/DX2                !
 ! A82   A(18,39,38)            69.8823         estimate D2E/DX2                !
 ! D1    D(9,1,3,5)             -0.1627         estimate D2E/DX2                !
 ! D2    D(9,1,3,6)            179.6861         estimate D2E/DX2                !
 ! D3    D(10,1,3,5)          -178.249          estimate D2E/DX2                !
 ! D4    D(10,1,3,6)             1.5997         estimate D2E/DX2                !
 ! D5    D(3,1,9,2)              1.4837         estimate D2E/DX2                !
 ! D6    D(3,1,9,39)           146.026          estimate D2E/DX2                !
 ! D7    D(10,1,9,2)           179.8916         estimate D2E/DX2                !
 ! D8    D(10,1,9,39)          -35.5661         estimate D2E/DX2                !
 ! D9    D(3,1,10,11)          109.2593         estimate D2E/DX2                !
 ! D10   D(3,1,10,12)          -11.6715         estimate D2E/DX2                !
 ! D11   D(3,1,10,16)         -134.8256         estimate D2E/DX2                !
 ! D12   D(9,1,10,11)          -69.0305         estimate D2E/DX2                !
 ! D13   D(9,1,10,12)          170.0387         estimate D2E/DX2                !
 ! D14   D(9,1,10,16)           46.8847         estimate D2E/DX2                !
 ! D15   D(9,2,4,5)              0.1624         estimate D2E/DX2                !
 ! D16   D(9,2,4,7)           -179.6866         estimate D2E/DX2                !
 ! D17   D(13,2,4,5)           178.2496         estimate D2E/DX2                !
 ! D18   D(13,2,4,7)            -1.5994         estimate D2E/DX2                !
 ! D19   D(4,2,9,1)             -1.4836         estimate D2E/DX2                !
 ! D20   D(4,2,9,39)          -146.0257         estimate D2E/DX2                !
 ! D21   D(13,2,9,1)          -179.8922         estimate D2E/DX2                !
 ! D22   D(13,2,9,39)           35.5656         estimate D2E/DX2                !
 ! D23   D(4,2,13,14)         -109.259          estimate D2E/DX2                !
 ! D24   D(4,2,13,15)           11.6711         estimate D2E/DX2                !
 ! D25   D(4,2,13,17)          134.8254         estimate D2E/DX2                !
 ! D26   D(9,2,13,14)           69.0316         estimate D2E/DX2                !
 ! D27   D(9,2,13,15)         -170.0383         estimate D2E/DX2                !
 ! D28   D(9,2,13,17)          -46.884          estimate D2E/DX2                !
 ! D29   D(1,3,5,4)             -1.0741         estimate D2E/DX2                !
 ! D30   D(1,3,5,8)            179.8545         estimate D2E/DX2                !
 ! D31   D(6,3,5,4)            179.0719         estimate D2E/DX2                !
 ! D32   D(6,3,5,8)              0.0006         estimate D2E/DX2                !
 ! D33   D(2,4,5,3)              1.0743         estimate D2E/DX2                !
 ! D34   D(2,4,5,8)           -179.8544         estimate D2E/DX2                !
 ! D35   D(7,4,5,3)           -179.0715         estimate D2E/DX2                !
 ! D36   D(7,4,5,8)             -0.0002         estimate D2E/DX2                !
 ! D37   D(1,9,39,16)           12.6735         estimate D2E/DX2                !
 ! D38   D(1,9,39,17)         -158.7759         estimate D2E/DX2                !
 ! D39   D(1,9,39,18)          -73.0498         estimate D2E/DX2                !
 ! D40   D(1,9,39,38)          106.9492         estimate D2E/DX2                !
 ! D41   D(2,9,39,16)          158.7758         estimate D2E/DX2                !
 ! D42   D(2,9,39,17)          -12.6736         estimate D2E/DX2                !
 ! D43   D(2,9,39,18)           73.0525         estimate D2E/DX2                !
 ! D44   D(2,9,39,38)         -106.9485         estimate D2E/DX2                !
 ! D45   D(1,10,16,22)        -161.5596         estimate D2E/DX2                !
 ! D46   D(1,10,16,26)          79.3429         estimate D2E/DX2                !
 ! D47   D(1,10,16,39)         -34.8622         estimate D2E/DX2                !
 ! D48   D(11,10,16,22)        -44.2306         estimate D2E/DX2                !
 ! D49   D(11,10,16,26)       -163.3281         estimate D2E/DX2                !
 ! D50   D(11,10,16,39)         82.4669         estimate D2E/DX2                !
 ! D51   D(12,10,16,22)         73.2181         estimate D2E/DX2                !
 ! D52   D(12,10,16,26)        -45.8793         estimate D2E/DX2                !
 ! D53   D(12,10,16,39)       -160.0844         estimate D2E/DX2                !
 ! D54   D(2,13,17,30)         161.5593         estimate D2E/DX2                !
 ! D55   D(2,13,17,34)         -79.3442         estimate D2E/DX2                !
 ! D56   D(2,13,17,39)          34.8618         estimate D2E/DX2                !
 ! D57   D(14,13,17,30)         44.2304         estimate D2E/DX2                !
 ! D58   D(14,13,17,34)        163.3269         estimate D2E/DX2                !
 ! D59   D(14,13,17,39)        -82.4672         estimate D2E/DX2                !
 ! D60   D(15,13,17,30)        -73.2188         estimate D2E/DX2                !
 ! D61   D(15,13,17,34)         45.8777         estimate D2E/DX2                !
 ! D62   D(15,13,17,39)        160.0836         estimate D2E/DX2                !
 ! D63   D(10,16,22,23)       -177.8403         estimate D2E/DX2                !
 ! D64   D(10,16,22,24)        -57.6846         estimate D2E/DX2                !
 ! D65   D(10,16,22,25)         63.0333         estimate D2E/DX2                !
 ! D66   D(26,16,22,23)        -59.3497         estimate D2E/DX2                !
 ! D67   D(26,16,22,24)         60.806          estimate D2E/DX2                !
 ! D68   D(26,16,22,25)       -178.4761         estimate D2E/DX2                !
 ! D69   D(39,16,22,23)         61.8186         estimate D2E/DX2                !
 ! D70   D(39,16,22,24)       -178.0257         estimate D2E/DX2                !
 ! D71   D(39,16,22,25)        -57.3078         estimate D2E/DX2                !
 ! D72   D(10,16,26,27)         60.3424         estimate D2E/DX2                !
 ! D73   D(10,16,26,28)       -179.2371         estimate D2E/DX2                !
 ! D74   D(10,16,26,29)        -59.1886         estimate D2E/DX2                !
 ! D75   D(22,16,26,27)        -58.9601         estimate D2E/DX2                !
 ! D76   D(22,16,26,28)         61.4605         estimate D2E/DX2                !
 ! D77   D(22,16,26,29)       -178.4911         estimate D2E/DX2                !
 ! D78   D(39,16,26,27)        174.0063         estimate D2E/DX2                !
 ! D79   D(39,16,26,28)        -65.5731         estimate D2E/DX2                !
 ! D80   D(39,16,26,29)         54.4754         estimate D2E/DX2                !
 ! D81   D(10,16,39,9)          13.2139         estimate D2E/DX2                !
 ! D82   D(10,16,39,17)         40.9269         estimate D2E/DX2                !
 ! D83   D(10,16,39,18)        171.4235         estimate D2E/DX2                !
 ! D84   D(10,16,39,38)       -118.0774         estimate D2E/DX2                !
 ! D85   D(22,16,39,9)         135.4795         estimate D2E/DX2                !
 ! D86   D(22,16,39,17)        163.1925         estimate D2E/DX2                !
 ! D87   D(22,16,39,18)        -66.3109         estimate D2E/DX2                !
 ! D88   D(22,16,39,38)          4.1883         estimate D2E/DX2                !
 ! D89   D(26,16,39,9)        -102.038          estimate D2E/DX2                !
 ! D90   D(26,16,39,17)        -74.3251         estimate D2E/DX2                !
 ! D91   D(26,16,39,18)         56.1715         estimate D2E/DX2                !
 ! D92   D(26,16,39,38)        126.6707         estimate D2E/DX2                !
 ! D93   D(13,17,30,31)         57.684          estimate D2E/DX2                !
 ! D94   D(13,17,30,32)        177.8401         estimate D2E/DX2                !
 ! D95   D(13,17,30,33)        -63.0338         estimate D2E/DX2                !
 ! D96   D(34,17,30,31)        -60.8056         estimate D2E/DX2                !
 ! D97   D(34,17,30,32)         59.3505         estimate D2E/DX2                !
 ! D98   D(34,17,30,33)        178.4766         estimate D2E/DX2                !
 ! D99   D(39,17,30,31)        178.0253         estimate D2E/DX2                !
 ! D100  D(39,17,30,32)        -61.8186         estimate D2E/DX2                !
 ! D101  D(39,17,30,33)         57.3074         estimate D2E/DX2                !
 ! D102  D(13,17,34,35)        179.2411         estimate D2E/DX2                !
 ! D103  D(13,17,34,36)        -60.3392         estimate D2E/DX2                !
 ! D104  D(13,17,34,37)         59.1919         estimate D2E/DX2                !
 ! D105  D(30,17,34,35)        -61.4575         estimate D2E/DX2                !
 ! D106  D(30,17,34,36)         58.9621         estimate D2E/DX2                !
 ! D107  D(30,17,34,37)        178.4933         estimate D2E/DX2                !
 ! D108  D(39,17,34,35)         65.5766         estimate D2E/DX2                !
 ! D109  D(39,17,34,36)       -174.0037         estimate D2E/DX2                !
 ! D110  D(39,17,34,37)        -54.4726         estimate D2E/DX2                !
 ! D111  D(13,17,39,9)         -13.2137         estimate D2E/DX2                !
 ! D112  D(13,17,39,16)        -40.9267         estimate D2E/DX2                !
 ! D113  D(13,17,39,18)       -171.4232         estimate D2E/DX2                !
 ! D114  D(13,17,39,38)        118.0776         estimate D2E/DX2                !
 ! D115  D(30,17,39,9)        -135.479          estimate D2E/DX2                !
 ! D116  D(30,17,39,16)       -163.192          estimate D2E/DX2                !
 ! D117  D(30,17,39,18)         66.3116         estimate D2E/DX2                !
 ! D118  D(30,17,39,38)         -4.1877         estimate D2E/DX2                !
 ! D119  D(34,17,39,9)         102.0382         estimate D2E/DX2                !
 ! D120  D(34,17,39,16)         74.3252         estimate D2E/DX2                !
 ! D121  D(34,17,39,18)        -56.1712         estimate D2E/DX2                !
 ! D122  D(34,17,39,38)       -126.6705         estimate D2E/DX2                !
 ! D123  D(19,18,39,9)           0.0043         estimate D2E/DX2                !
 ! D124  D(19,18,39,16)        -82.9924         estimate D2E/DX2                !
 ! D125  D(19,18,39,17)         83.0036         estimate D2E/DX2                !
 ! D126  D(19,18,39,38)       -179.9949         estimate D2E/DX2                !
 ! D127  D(20,18,39,9)         117.4342         estimate D2E/DX2                !
 ! D128  D(20,18,39,16)         34.4375         estimate D2E/DX2                !
 ! D129  D(20,18,39,17)       -159.5665         estimate D2E/DX2                !
 ! D130  D(20,18,39,38)        -62.565          estimate D2E/DX2                !
 ! D131  D(21,18,39,9)        -117.4273         estimate D2E/DX2                !
 ! D132  D(21,18,39,16)        159.576          estimate D2E/DX2                !
 ! D133  D(21,18,39,17)        -34.4279         estimate D2E/DX2                !
 ! D134  D(21,18,39,38)         62.5735         estimate D2E/DX2                !
 --------------------------------------------------------------------------------
 Trust Radius=3.00D-01 FncErr=1.00D-07 GrdErr=1.00D-06 EigMax=2.50D+02 EigMin=1.00D-04
 Number of steps in this run=    234 maximum allowed number of steps=    234.
 GradGradGradGradGradGradGradGradGradGradGradGradGradGradGradGradGradGrad

                          Input orientation:                          
 ---------------------------------------------------------------------
 Center     Atomic      Atomic             Coordinates (Angstroms)
 Number     Number       Type             X           Y           Z
 ---------------------------------------------------------------------
      1          6           0        1.511810    1.181350   -0.389250
      2          6           0        1.511820   -1.181340   -0.389250
      3          6           0        2.819660    1.236580    0.013480
      4          6           0        2.819660   -1.236560    0.013480
      5          6           0        3.587300    0.000010    0.236350
      6          1           0        3.327400    2.192410    0.177200
      7          1           0        3.327410   -2.192400    0.177210
      8          8           0        4.771470    0.000010    0.597700
      9          7           0        0.860140    0.000000   -0.605630
     10          6           0        0.578290    2.331400   -0.702060
     11          1           0        0.401530    2.352960   -1.793410
     12          1           0        0.976420    3.316060   -0.384310
     13          6           0        0.578290   -2.331400   -0.702050
     14          1           0        0.401540   -2.352970   -1.793400
     15          1           0        0.976430   -3.316050   -0.384290
     16          7           0       -0.768450    2.098130   -0.060900
     17          7           0       -0.768440   -2.098130   -0.060900
     18          6           0       -2.791680    0.000020    1.040290
     19          1           0       -2.392080    0.000130    2.080040
     20          1           0       -3.447360    0.887710    0.936640
     21          1           0       -3.447290   -0.887730    0.936780
     22          6           0       -1.780580    2.955420   -0.709480
     23          1           0       -2.748270    2.804400   -0.207670
     24          1           0       -1.487380    4.024000   -0.634490
     25          1           0       -1.870030    2.665750   -1.767010
     26          6           0       -0.669100    2.458610    1.374380
     27          1           0       -0.388580    3.527740    1.476470
     28          1           0       -1.637970    2.282520    1.863420
     29          1           0        0.106690    1.835600    1.850620
     30          6           0       -1.780560   -2.955430   -0.709490
     31          1           0       -1.487360   -4.024000   -0.634510
     32          1           0       -2.748260   -2.804420   -0.207690
     33          1           0       -1.870010   -2.665760   -1.767020
     34          6           0       -0.669090   -2.458630    1.374380
     35          1           0       -1.637980   -2.282610    1.863410
     36          1           0       -0.388520   -3.527750    1.476450
     37          1           0        0.106660   -1.835590    1.850640
     38          1           0       -2.353820   -0.000010   -1.019730
     39         45           0       -1.098850    0.000000   -0.144220
 ---------------------------------------------------------------------
                    Distance matrix (angstroms):
                    1          2          3          4          5
     1  C    0.000000
     2  C    2.362690   0.000000
     3  C    1.369567   2.778304   0.000000
     4  C    2.778300   1.369557   2.473140   0.000000
     5  C    2.468724   2.468720   1.472429   1.472429   0.000000
     6  H    2.153944   3.872904   1.094630   3.470222   2.208544
     7  H    3.872915   2.153947   3.470234   1.094645   2.208552
     8  O    3.604860   3.604855   2.383271   2.383271   1.238076
     9  N    1.366412   1.366408   2.398363   2.398353   2.854178
    10  C    1.513910   3.648105   2.595066   4.273883   3.920476
    11  H    2.139406   3.961778   3.218464   4.690081   4.450329
    12  H    2.200830   4.529159   2.807135   4.927689   4.265923
    13  C    3.648111   1.513922   4.273898   2.595072   3.920486
    14  H    3.961787   2.139410   4.690095   3.218461   4.450333
    15  H    4.529157   2.200830   4.927693   2.807133   4.265922
    16  N    2.479493   4.007788   3.690845   4.899002   4.843864
    17  N    4.007785   2.479497   4.899009   3.690840   4.843864
    18  C    4.686059   4.686076   5.836999   5.837003   6.429441
    19  H    4.767917   4.767987   5.741229   5.741281   6.257170
    20  H    5.141748   5.534656   6.344247   6.681339   7.124946
    21  H    5.534629   5.141725   6.681305   6.344196   7.124896
    22  C    3.753625   5.296719   4.963798   6.265587   6.200256
    23  H    4.562406   5.836734   5.788680   6.883321   6.942709
    24  H    4.139558   6.012562   5.171090   6.829638   6.534771
    25  H    3.941891   5.304266   5.215924   6.355420   6.395473
    26  C    3.081907   4.595219   3.939144   5.260967   5.045470
    27  H    3.549358   5.409978   4.205063   5.927200   5.458058
    28  H    4.025942   5.195577   4.938293   5.972995   5.929642
    29  H    2.723862   4.011650   3.330783   4.491487   4.253223
    30  C    5.296716   3.753627   6.265593   4.963791   6.200255
    31  H    6.012557   4.139559   6.829642   5.171086   6.534771
    32  H    5.836739   4.562415   6.883337   5.788682   6.942717
    33  H    5.304264   3.941894   6.355426   5.215918   6.395471
    34  C    4.595233   3.081920   5.260989   3.939147   5.045481
    35  H    5.195640   4.025980   5.973064   4.938321   5.929690
    36  H    5.409964   3.549334   5.927187   4.205027   5.458029
    37  H    4.011668   2.723899   4.491520   3.330820   4.253259
    38  H    4.090992   4.090992   5.418632   5.418623   6.072450
    39  Rh   2.875965   2.875970   4.112021   4.112015   4.701578
                    6          7          8          9         10
     6  H    0.000000
     7  H    4.384810   0.000000
     8  O    2.658717   2.658718   0.000000
     9  N    3.392176   3.392179   4.092249   0.000000
    10  C    2.889640   5.366148   4.970665   2.350354   0.000000
    11  H    3.531260   5.753644   5.509098   2.675363   1.105782
    12  H    2.665519   6.015446   5.134485   3.325471   1.108615
    13  C    5.366148   2.889650   4.970672   2.350354   4.662800
    14  H    5.753642   3.531261   5.509098   2.675365   4.813064
    15  H    6.015435   2.665517   5.134480   3.325463   5.670378
    16  N    4.103848   5.936448   5.960417   2.711307   1.509705
    17  N    5.936441   4.103848   5.960415   2.711301   4.673917
    18  C    6.557030   6.557048   7.576089   4.005601   4.452843
    19  H    6.413996   6.414087   7.315311   4.217791   4.690202
    20  H    6.940920   7.480730   8.273576   4.660599   4.579895
    21  H    7.480685   6.940870   8.273516   4.660584   5.408686
    22  C    5.240214   7.306013   7.305650   3.964681   2.440025
    23  H    6.118531   7.875915   8.065960   4.587336   3.396197
    24  H    5.214947   7.904726   7.542148   4.658783   2.671414
    25  H    5.569316   7.375296   7.537078   3.988591   2.690758
    26  C    4.180444   6.247976   6.020610   3.507674   2.425648
    27  H    4.156888   6.943822   6.312150   4.282452   2.666845
    28  H    5.244650   6.893708   6.920464   4.188873   3.390558
    29  H    3.647002   5.422004   5.167143   3.157575   2.642801
    30  C    7.306007   5.240211   7.305646   3.964675   5.789197
    31  H    7.904716   5.214946   7.542145   4.658773   6.683007
    32  H    7.875919   6.118536   8.065967   4.587339   6.138973
    33  H    7.375288   5.569315   7.537074   3.988586   5.665679
    34  C    6.247987   4.180443   6.020618   3.507684   5.367676
    35  H    6.893773   5.244665   6.920508   4.188922   5.725607
    36  H    6.943799   4.156840   6.312114   4.282433   6.325367
    37  H    5.422025   3.647042   5.167179   3.157592   4.909432
    38  H    6.206094   6.206095   7.306561   3.240527   3.759475
    39  Rh   4.949915   4.949920   5.917018   2.012596   2.925647
                   11         12         13         14         15
    11  H    0.000000
    12  H    1.801006   0.000000
    13  C    4.813059   5.670385   0.000000
    14  H    4.705930   5.869746   1.105781   0.000000
    15  H    5.869736   6.632110   1.108613   1.801003   0.000000
    16  N    2.106035   2.152329   4.673919   4.917593   5.697590
    17  N    4.917583   5.697595   1.509692   2.106028   2.152320
    18  C    4.874707   5.217680   4.452860   4.874732   5.217701
    19  H    5.323878   5.330591   4.690326   5.323996   5.330744
    20  H    4.941061   5.216476   5.408681   5.724435   6.243907
    21  H    5.724458   6.243904   4.579873   4.941083   5.216442
    22  C    2.509874   2.799437   5.789196   5.840851   6.858439
    23  H    3.555223   3.763816   6.138962   6.247744   7.166903
    24  H    2.775509   2.575671   6.683013   6.751062   7.746567
    25  H    2.293146   3.230641   5.665679   5.508927   6.767288
    26  C    3.345490   2.556550   5.367657   5.859386   6.256787
    27  H    3.563214   2.317442   6.325370   6.774887   7.222406
    28  H    4.187712   3.599379   5.725531   6.246575   6.575049
    29  H    3.692363   2.818351   4.909422   5.559671   5.682497
    30  C    5.840839   6.858445   2.440009   2.509856   2.799428
    31  H    6.751042   7.746567   2.671398   2.775484   2.575668
    32  H    6.247740   7.166918   3.396185   3.555211   3.763810
    33  H    5.508915   6.767291   2.690749   2.293136   3.230641
    34  C    5.859396   6.256815   2.425635   3.345481   2.556526
    35  H    6.246635   6.575138   3.390548   4.187702   3.599346
    36  H    6.774874   7.222411   2.666803   3.563176   2.317382
    37  H    5.559676   5.682515   2.642818   3.692379   2.818364
    38  H    3.704997   4.742423   3.759464   3.704996   4.742412
    39  Rh   3.241510   3.919266   2.925645   3.241517   3.919261
                   16         17         18         19         20
    16  N    0.000000
    17  N    4.196260   0.000000
    18  C    3.115790   3.115823   0.000000
    19  H    3.409018   3.409183   1.113894   0.000000
    20  H    3.104313   4.133635   1.108446   1.791306   0.000000
    21  H    4.133631   3.104299   1.108440   1.791314   1.775440
    22  C    1.476485   5.194560   3.580280   4.109634   3.124627
    23  H    2.107142   5.289241   3.069827   3.636539   2.339203
    24  H    2.134207   6.190828   4.549561   4.937478   4.018244
    25  H    2.108668   5.178693   3.979509   4.709338   3.599878
    26  C    1.483187   4.778470   3.265215   3.083949   3.221501
    27  H    2.133446   5.844503   4.290682   4.101505   4.076433
    28  H    2.119687   4.863043   2.686707   2.413485   2.465423
    29  H    2.118655   4.460268   3.525129   3.108928   3.790135
    30  C    5.194565   1.476489   3.580332   4.109838   4.500855
    31  H    6.190827   2.134209   4.549609   4.937704   5.516793
    32  H    5.289252   2.107150   3.069890   3.636767   3.928111
    33  H    5.178699   2.108674   3.979554   4.709501   4.735500
    34  C    4.778490   1.483192   3.265266   3.084178   4.371315
    35  H    4.863120   2.119694   2.686810   2.413814   3.766124
    36  H    5.844512   2.133447   4.290755   4.101769   5.398535
    37  H    4.460264   2.118658   3.525125   3.109050   4.569772
    38  H    2.799097   2.799088   2.106040   3.100006   2.410656
    39  Rh   2.125619   2.125620   2.066092   2.572893   2.733457
                   21         22         23         24         25
    21  H    0.000000
    22  C    4.500877   0.000000
    23  H    3.928132   1.100475   0.000000
    24  H    5.516813   1.110609   1.805393   0.000000
    25  H    4.735552   1.100127   1.795013   1.809383   0.000000
    26  C    4.371250   2.413437   2.635413   2.674993   3.369491
    27  H    5.398458   2.653977   2.987923   2.431005   3.668499
    28  H    3.766004   2.663259   2.407185   3.048768   3.657969
    29  H    4.569727   3.371928   3.650470   3.675041   4.205213
    30  C    3.124672   5.910850   5.862075   6.985988   5.720491
    31  H    4.018267   6.985979   6.956949   8.048000   6.795715
    32  H    2.339264   5.862078   5.608820   6.956960   5.755478
    33  H    3.599964   5.720494   5.755481   6.795728   5.331510
    34  C    3.221431   5.906761   5.875828   6.835909   6.129426
    35  H    2.465347   5.837556   5.603551   6.784948   6.141666
    36  H    4.076398   6.981949   6.964252   7.917859   7.146632
    37  H    3.790005   5.750623   5.823811   6.561374   6.103831
    38  H    2.410737   3.026454   2.946141   4.134221   2.810473
    39  Rh   2.733459   3.085252   3.254116   4.072333   3.214714
                   26         27         28         29         30
    26  C    0.000000
    27  H    1.110024   0.000000
    28  H    1.099489   1.805901   0.000000
    29  H    1.103085   1.802392   1.801039   0.000000
    30  C    5.906749   6.981943   5.837492   5.750639   0.000000
    31  H    6.835892   7.917849   6.784875   6.561385   1.110599
    32  H    5.875826   6.964247   5.603499   5.823845   1.100477
    33  H    6.129417   7.146629   6.141613   6.103843   1.100127
    34  C    4.917240   5.993808   4.863784   4.389653   2.413439
    35  H    4.863851   5.955744   4.565130   4.472549   2.663237
    36  H    5.993801   7.055490   5.955679   5.399144   2.653989
    37  H    4.389622   5.399127   4.472441   3.671190   3.371929
    38  H    3.822938   4.747442   3.746323   4.202676   3.026447
    39  Rh   2.921574   3.946653   3.087259   2.966840   3.085259
                   31         32         33         34         35
    31  H    0.000000
    32  H    1.805386   0.000000
    33  H    1.809369   1.795010   0.000000
    34  C    2.674993   2.635425   3.369496   0.000000
    35  H    3.048726   2.407169   3.657959   1.099491   0.000000
    36  H    2.431021   2.987960   3.668506   1.110025   1.805896
    37  H    3.675052   3.650469   4.205219   1.103082   1.801044
    38  H    4.134204   2.946134   2.810469   3.822943   3.746356
    39  Rh   4.072334   3.254129   3.214723   2.921592   3.087320
                   36         37         38         39
    36  H    0.000000
    37  H    1.802395   0.000000
    38  H    4.747449   4.202659   0.000000
    39  Rh   3.946664   2.966835   1.530185   0.000000
 Stoichiometry    C12H22N3ORh
 Framework group  C1[X(C12H22N3ORh)]
 Deg. of freedom   111
 Full point group                 C1      NOp   1
 Largest Abelian subgroup         C1      NOp   1
 Largest concise Abelian subgroup C1      NOp   1
                         Standard orientation:                         
 ---------------------------------------------------------------------
 Center     Atomic      Atomic             Coordinates (Angstroms)
 Number     Number       Type             X           Y           Z
 ---------------------------------------------------------------------
      1          6           0       -1.511806   -1.181351   -0.389248
      2          6           0       -1.511820    1.181339   -0.389248
      3          6           0       -2.819656   -1.236583    0.013482
      4          6           0       -2.819660    1.236557    0.013482
      5          6           0       -3.587298   -0.000014    0.236352
      6          1           0       -3.327394   -2.192414    0.177202
      7          1           0       -3.327411    2.192396    0.177212
      8          8           0       -4.771468   -0.000016    0.597702
      9          7           0       -0.860138    0.000000   -0.605628
     10          6           0       -0.578284   -2.331399   -0.702058
     11          1           0       -0.401524   -2.352959   -1.793408
     12          1           0       -0.976413   -3.316060   -0.384308
     13          6           0       -0.578292    2.331401   -0.702048
     14          1           0       -0.401542    2.352971   -1.793398
     15          1           0       -0.976433    3.316050   -0.384288
     16          7           0        0.768455   -2.098127   -0.060898
     17          7           0        0.768439    2.098133   -0.060898
     18          6           0        2.791682   -0.000014    1.040292
     19          1           0        2.392082   -0.000125    2.080042
     20          1           0        3.447363   -0.887703    0.936642
     21          1           0        3.447291    0.887737    0.936782
     22          6           0        1.780587   -2.955416   -0.709478
     23          1           0        2.748276   -2.804394   -0.207668
     24          1           0        1.487388   -4.023996   -0.634488
     25          1           0        1.870036   -2.665746   -1.767008
     26          6           0        0.669106   -2.458607    1.374382
     27          1           0        0.388588   -3.527738    1.476472
     28          1           0        1.637976   -2.282516    1.863422
     29          1           0       -0.106685   -1.835599    1.850622
     30          6           0        1.780557    2.955434   -0.709488
     31          1           0        1.487356    4.024004   -0.634508
     32          1           0        2.748258    2.804426   -0.207688
     33          1           0        1.870008    2.665764   -1.767018
     34          6           0        0.669088    2.458633    1.374382
     35          1           0        1.637979    2.282614    1.863412
     36          1           0        0.388517    3.527752    1.476452
     37          1           0       -0.106661    1.835591    1.850642
     38          1           0        2.353822    0.000015   -1.019728
     39         45           0        1.098852    0.000003   -0.144218
 ---------------------------------------------------------------------
 Rotational constants (GHZ):           0.5224183           0.3785310           0.2496219
 Standard basis: def2TZVPP (5D, 7F)
 There are   977 symmetry adapted cartesian basis functions of A   symmetry.
 There are   860 symmetry adapted basis functions of A   symmetry.
   860 basis functions,  1289 primitive gaussians,   977 cartesian basis functions
    70 alpha electrons       70 beta electrons
       nuclear repulsion energy      1540.3091663607 Hartrees.
 NAtoms=   39 NActive=   39 NUniq=   39 SFac= 1.00D+00 NAtFMM=   60 NAOKFM=F Big=F
 Integral buffers will be    131072 words long.
 Raffenetti 2 integral format.
 Two-electron integral symmetry is turned on.
 Nuclear repulsion after empirical dispersion term =     1540.2677907061 Hartrees.
 ------------------------------------------------------------------------------
 Polarizable Continuum Model (PCM)
 =================================
 Model                : PCM.
 Atomic radii         : UFF (Universal Force Field).
 Polarization charges : Total charges.
 Charge compensation  : None.
 Solution method      : On-the-fly selection.
 Cavity type          : Scaled VdW (van der Waals Surface) (Alpha=1.100).
 Cavity algorithm     : GePol (No added spheres)
                        Default sphere list used, NSphG=   39.
                        Lebedev-Laikov grids with approx.  5.0 points / Ang**2.
                        Smoothing algorithm: York/Karplus (Gamma=1.0000).
                        Polarization charges: spherical gaussians, with
                                              point-specific exponents (IZeta= 3).
                        Self-potential: point-specific (ISelfS= 7).
                        Self-field    : sphere-specific E.n sum rule (ISelfD= 2).
 1st derivatives      : Analytical E(r).r(x)/FMM algorithm (CHGder, D1EAlg=3).
                        Cavity 1st derivative terms included.
 Solvent              : Dichloromethane, Eps=   8.930000 Eps(inf)=   2.028346
 ------------------------------------------------------------------------------
 One-electron integrals computed using PRISM.
 PrsmSu:  requested number of processors reduced to:   5 ShMem   1 Linda.
   1 Symmetry operations used in ECPInt.
 ECPInt:  NShTT=   52650 NPrTT=  135371 LenC2=   47933 LenP2D=   94290.
 LDataN:  DoStor=T MaxTD1= 8 Len=  415
 NBasis=   860 RedAO= T EigKep=  1.93D-05  NBF=   860
 NBsUse=   860 1.00D-06 EigRej= -1.00D+00 NBFU=   860
 Defaulting to unpruned grid for atomic number  45.
 ExpMin= 3.70D-02 ExpMax= 2.70D+04 ExpMxC= 9.22D+02 IAcc=3 IRadAn=         5 AccDes= 0.00D+00
 Harris functional with IExCor= 4639 and IRadAn=       5 diagonalized for initial guess.
 HarFok:  IExCor= 4639 AccDes= 0.00D+00 IRadAn=         5 IDoV= 1 UseB2=F ITyADJ=14
 ICtDFT=  3500011 ScaDFX=  1.000000  1.000000  1.000000  1.000000
 Defaulting to unpruned grid for atomic number  45.
 FoFCou: FMM=F IPFlag=           0 FMFlag=      100000 FMFlg1=           0
         NFxFlg=           0 DoJE=T BraDBF=F KetDBF=T FulRan=T
         wScrn=  0.000000 ICntrl=       500 IOpCl=  0 I1Cent=   200000004 NGrid=           0
         NMat0=    1 NMatS0=      1 NMatT0=    0 NMatD0=    1 NMtDS0=    0 NMtDT0=    0
 Petite list used in FoFCou.
 Requested convergence on RMS density matrix=1.00D-08 within 128 cycles.
 Requested convergence on MAX density matrix=1.00D-06.
 Requested convergence on             energy=1.00D-06.
 No special actions if energy rises.
 Defaulting to unpruned grid for atomic number  45.
 Defaulting to unpruned grid for atomic number  45.
 Defaulting to unpruned grid for atomic number  45.
 Defaulting to unpruned grid for atomic number  45.
 Defaulting to unpruned grid for atomic number  45.
 Defaulting to unpruned grid for atomic number  45.
 Defaulting to unpruned grid for atomic number  45.
 Defaulting to unpruned grid for atomic number  45.
 Inv3:  Mode=1 IEnd=    18495867.
 Iteration    1 A*A^-1 deviation from unit magnitude is 3.33D-15 for   2005.
 Iteration    1 A*A^-1 deviation from orthogonality  is 2.06D-15 for   2012    182.
 Iteration    1 A^-1*A deviation from unit magnitude is 3.11D-15 for    208.
 Iteration    1 A^-1*A deviation from orthogonality  is 2.22D-15 for   2206   1104.
 Error on total polarization charges =  0.01720
 SCF Done:  E(RwB97XD) =  -820.673214439     A.U. after   18 cycles
            NFock= 18  Conv=0.57D-08     -V/T= 2.0994

 **********************************************************************

            Population analysis using the SCF Density.

 **********************************************************************

 Orbital symmetries:
       Occupied  (A) (A) (A) (A) (A) (A) (A) (A) (A) (A) (A) (A)
                 (A) (A) (A) (A) (A) (A) (A) (A) (A) (A) (A) (A)
                 (A) (A) (A) (A) (A) (A) (A) (A) (A) (A) (A) (A)
                 (A) (A) (A) (A) (A) (A) (A) (A) (A) (A) (A) (A)
                 (A) (A) (A) (A) (A) (A) (A) (A) (A) (A) (A) (A)
                 (A) (A) (A) (A) (A) (A) (A) (A) (A) (A)
       Virtual   (A) (A) (A) (A) (A) (A) (A) (A) (A) (A) (A) (A)
                 (A) (A) (A) (A) (A) (A) (A) (A) (A) (A) (A) (A)
                 (A) (A) (A) (A) (A) (A) (A) (A) (A) (A) (A) (A)
                 (A) (A) (A) (A) (A) (A) (A) (A) (A) (A) (A) (A)
                 (A) (A) (A) (A) (A) (A) (A) (A) (A) (A) (A) (A)
                 (A) (A) (A) (A) (A) (A) (A) (A) (A) (A) (A) (A)
                 (A) (A) (A) (A) (A) (A) (A) (A) (A) (A) (A) (A)
                 (A) (A) (A) (A) (A) (A) (A) (A) (A) (A) (A) (A)
                 (A) (A) (A) (A) (A) (A) (A) (A) (A) (A) (A) (A)
                 (A) (A) (A) (A) (A) (A) (A) (A) (A) (A) (A) (A)
                 (A) (A) (A) (A) (A) (A) (A) (A) (A) (A) (A) (A)
                 (A) (A) (A) (A) (A) (A) (A) (A) (A) (A) (A) (A)
                 (A) (A) (A) (A) (A) (A) (A) (A) (A) (A) (A) (A)
                 (A) (A) (A) (A) (A) (A) (A) (A) (A) (A) (A) (A)
                 (A) (A) (A) (A) (A) (A) (A) (A) (A) (A) (A) (A)
                 (A) (A) (A) (A) (A) (A) (A) (A) (A) (A) (A) (A)
                 (A) (A) (A) (A) (A) (A) (A) (A) (A) (A) (A) (A)
                 (A) (A) (A) (A) (A) (A) (A) (A) (A) (A) (A) (A)
                 (A) (A) (A) (A) (A) (A) (A) (A) (A) (A) (A) (A)
                 (A) (A) (A) (A) (A) (A) (A) (A) (A) (A) (A) (A)
                 (A) (A) (A) (A) (A) (A) (A) (A) (A) (A) (A) (A)
                 (A) (A) (A) (A) (A) (A) (A) (A) (A) (A) (A) (A)
                 (A) (A) (A) (A) (A) (A) (A) (A) (A) (A) (A) (A)
                 (A) (A) (A) (A) (A) (A) (A) (A) (A) (A) (A) (A)
                 (A) (A) (A) (A) (A) (A) (A) (A) (A) (A) (A) (A)
                 (A) (A) (A) (A) (A) (A) (A) (A) (A) (A) (A) (A)
                 (A) (A) (A) (A) (A) (A) (A) (A) (A) (A) (A) (A)
                 (A) (A) (A) (A) (A) (A) (A) (A) (A) (A) (A) (A)
                 (A) (A) (A) (A) (A) (A) (A) (A) (A) (A) (A) (A)
                 (A) (A) (A) (A) (A) (A) (A) (A) (A) (A) (A) (A)
                 (A) (A) (A) (A) (A) (A) (A) (A) (A) (A) (A) (A)
                 (A) (A) (A) (A) (A) (A) (A) (A) (A) (A) (A) (A)
                 (A) (A) (A) (A) (A) (A) (A) (A) (A) (A) (A) (A)
                 (A) (A) (A) (A) (A) (A) (A) (A) (A) (A) (A) (A)
                 (A) (A) (A) (A) (A) (A) (A) (A) (A) (A) (A) (A)
                 (A) (A) (A) (A) (A) (A) (A) (A) (A) (A) (A) (A)
                 (A) (A) (A) (A) (A) (A) (A) (A) (A) (A) (A) (A)
                 (A) (A) (A) (A) (A) (A) (A) (A) (A) (A) (A) (A)
                 (A) (A) (A) (A) (A) (A) (A) (A) (A) (A) (A) (A)
                 (A) (A) (A) (A) (A) (A) (A) (A) (A) (A) (A) (A)
                 (A) (A) (A) (A) (A) (A) (A) (A) (A) (A) (A) (A)
                 (A) (A) (A) (A) (A) (A) (A) (A) (A) (A) (A) (A)
                 (A) (A) (A) (A) (A) (A) (A) (A) (A) (A) (A) (A)
                 (A) (A) (A) (A) (A) (A) (A) (A) (A) (A) (A) (A)
                 (A) (A) (A) (A) (A) (A) (A) (A) (A) (A) (A) (A)
                 (A) (A) (A) (A) (A) (A) (A) (A) (A) (A) (A) (A)
                 (A) (A) (A) (A) (A) (A) (A) (A) (A) (A) (A) (A)
                 (A) (A) (A) (A) (A) (A) (A) (A) (A) (A) (A) (A)
                 (A) (A) (A) (A) (A) (A) (A) (A) (A) (A) (A) (A)
                 (A) (A) (A) (A) (A) (A) (A) (A) (A) (A) (A) (A)
                 (A) (A) (A) (A) (A) (A) (A) (A) (A) (A) (A) (A)
                 (A) (A) (A) (A) (A) (A) (A) (A) (A) (A) (A) (A)
                 (A) (A) (A) (A) (A) (A) (A) (A) (A) (A) (A) (A)
                 (A) (A) (A) (A) (A) (A) (A) (A) (A) (A) (A) (A)
                 (A) (A) (A) (A) (A) (A) (A) (A) (A) (A) (A) (A)
                 (A) (A) (A) (A) (A) (A) (A) (A) (A) (A) (A) (A)
                 (A) (A) (A) (A) (A) (A) (A) (A) (A) (A) (A) (A)
                 (A) (A) (A) (A) (A) (A) (A) (A) (A) (A) (A) (A)
                 (A) (A) (A) (A) (A) (A) (A) (A) (A) (A) (A) (A)
                 (A) (A) (A) (A) (A) (A) (A) (A) (A) (A) (A) (A)
                 (A) (A) (A) (A) (A) (A) (A) (A) (A) (A) (A) (A)
                 (A) (A) (A) (A) (A) (A) (A) (A) (A) (A) (A) (A)
                 (A) (A) (A) (A) (A) (A) (A) (A) (A) (A) (A) (A)
                 (A) (A) (A) (A) (A) (A) (A) (A) (A) (A) (A) (A)
                 (A) (A) (A) (A) (A) (A) (A) (A) (A) (A) (A) (A)
                 (A) (A) (A) (A) (A) (A) (A) (A) (A) (A)
 The electronic state is 1-A.
 Alpha  occ. eigenvalues --  -19.18989 -14.50180 -14.50180 -14.44211 -10.34929
 Alpha  occ. eigenvalues --  -10.33678 -10.33676 -10.33638 -10.33638 -10.32092
 Alpha  occ. eigenvalues --  -10.32092 -10.32009 -10.32009 -10.27808 -10.27808
 Alpha  occ. eigenvalues --  -10.25793  -3.32769  -2.08616  -2.07952  -2.06486
 Alpha  occ. eigenvalues --   -1.09810  -1.07297  -1.05953  -1.03677  -0.90109
 Alpha  occ. eigenvalues --   -0.85748  -0.83169  -0.82190  -0.82178  -0.80008
 Alpha  occ. eigenvalues --   -0.74971  -0.72623  -0.72147  -0.69657  -0.66314
 Alpha  occ. eigenvalues --   -0.60847  -0.60124  -0.58852  -0.58389  -0.57651
 Alpha  occ. eigenvalues --   -0.56879  -0.56538  -0.56174  -0.52003  -0.51584
 Alpha  occ. eigenvalues --   -0.50425  -0.49945  -0.49597  -0.49259  -0.47789
 Alpha  occ. eigenvalues --   -0.47685  -0.47259  -0.47165  -0.46633  -0.46520
 Alpha  occ. eigenvalues --   -0.46149  -0.45067  -0.44203  -0.44171  -0.42709
 Alpha  occ. eigenvalues --   -0.42482  -0.39598  -0.37603  -0.34082  -0.33721
 Alpha  occ. eigenvalues --   -0.31744  -0.31374  -0.31116  -0.30751  -0.27059
 Alpha virt. eigenvalues --    0.02235   0.05411   0.05767   0.07692   0.08506
 Alpha virt. eigenvalues --    0.09915   0.10362   0.11746   0.13512   0.14030
 Alpha virt. eigenvalues --    0.15187   0.15521   0.15819   0.16521   0.16916
 Alpha virt. eigenvalues --    0.16966   0.17126   0.17634   0.18633   0.19069
 Alpha virt. eigenvalues --    0.19688   0.19842   0.20636   0.21378   0.21619
 Alpha virt. eigenvalues --    0.22183   0.22205   0.22881   0.22918   0.22991
 Alpha virt. eigenvalues --    0.23849   0.23995   0.24501   0.25159   0.25642
 Alpha virt. eigenvalues --    0.26041   0.26438   0.27102   0.28038   0.29153
 Alpha virt. eigenvalues --    0.29547   0.30821   0.31028   0.32295   0.32345
 Alpha virt. eigenvalues --    0.32851   0.33418   0.33873   0.34037   0.34549
 Alpha virt. eigenvalues --    0.34886   0.35771   0.36263   0.37119   0.38553
 Alpha virt. eigenvalues --    0.38759   0.39245   0.39286   0.39953   0.40386
 Alpha virt. eigenvalues --    0.40586   0.41832   0.42398   0.42539   0.42700
 Alpha virt. eigenvalues --    0.42894   0.43577   0.44650   0.44943   0.45544
 Alpha virt. eigenvalues --    0.45645   0.45869   0.46204   0.47608   0.48069
 Alpha virt. eigenvalues --    0.48478   0.48644   0.49102   0.49608   0.50216
 Alpha virt. eigenvalues --    0.50299   0.50927   0.51251   0.51467   0.51532
 Alpha virt. eigenvalues --    0.51885   0.52090   0.53034   0.53495   0.53946
 Alpha virt. eigenvalues --    0.53975   0.54524   0.54824   0.54942   0.56247
 Alpha virt. eigenvalues --    0.56257   0.56490   0.56786   0.57940   0.58655
 Alpha virt. eigenvalues --    0.59406   0.59408   0.59584   0.61557   0.61714
 Alpha virt. eigenvalues --    0.62030   0.62308   0.63241   0.63522   0.63981
 Alpha virt. eigenvalues --    0.65367   0.65526   0.66289   0.67542   0.67585
 Alpha virt. eigenvalues --    0.67838   0.69949   0.70215   0.70611   0.71822
 Alpha virt. eigenvalues --    0.73237   0.73257   0.74115   0.74604   0.75534
 Alpha virt. eigenvalues --    0.76080   0.76431   0.76982   0.77348   0.80139
 Alpha virt. eigenvalues --    0.80157   0.81332   0.81552   0.83285   0.83766
 Alpha virt. eigenvalues --    0.84633   0.85785   0.86598   0.87210   0.87531
 Alpha virt. eigenvalues --    0.88236   0.89448   0.90023   0.90143   0.90394
 Alpha virt. eigenvalues --    0.91057   0.91476   0.93503   0.93844   0.94108
 Alpha virt. eigenvalues --    0.94809   0.94866   0.95513   0.95535   0.97210
 Alpha virt. eigenvalues --    0.98008   0.98813   0.99712   1.00183   1.01483
 Alpha virt. eigenvalues --    1.02023   1.02561   1.03348   1.03645   1.03916
 Alpha virt. eigenvalues --    1.04434   1.05696   1.06012   1.06473   1.06921
 Alpha virt. eigenvalues --    1.07858   1.08338   1.08732   1.09541   1.09618
 Alpha virt. eigenvalues --    1.10531   1.11182   1.11266   1.11666   1.12617
 Alpha virt. eigenvalues --    1.12915   1.14067   1.14322   1.14637   1.15023
 Alpha virt. eigenvalues --    1.15920   1.17154   1.17283   1.19095   1.19504
 Alpha virt. eigenvalues --    1.20076   1.20957   1.21278   1.21594   1.22199
 Alpha virt. eigenvalues --    1.23997   1.24089   1.24803   1.25609   1.26715
 Alpha virt. eigenvalues --    1.27760   1.27884   1.29335   1.29572   1.29986
 Alpha virt. eigenvalues --    1.30997   1.31843   1.32973   1.33122   1.33326
 Alpha virt. eigenvalues --    1.33757   1.34917   1.35602   1.35745   1.36460
 Alpha virt. eigenvalues --    1.36533   1.37965   1.38176   1.39769   1.39796
 Alpha virt. eigenvalues --    1.41281   1.41741   1.42370   1.42810   1.43238
 Alpha virt. eigenvalues --    1.43532   1.43829   1.44515   1.44640   1.45380
 Alpha virt. eigenvalues --    1.45947   1.46478   1.48134   1.48351   1.48950
 Alpha virt. eigenvalues --    1.49330   1.49559   1.50951   1.51602   1.52068
 Alpha virt. eigenvalues --    1.53021   1.53453   1.54238   1.55152   1.55618
 Alpha virt. eigenvalues --    1.56530   1.56590   1.57575   1.57920   1.58303
 Alpha virt. eigenvalues --    1.59244   1.59905   1.60835   1.61003   1.61064
 Alpha virt. eigenvalues --    1.62233   1.62407   1.62884   1.63137   1.65332
 Alpha virt. eigenvalues --    1.66141   1.66159   1.66605   1.67481   1.67971
 Alpha virt. eigenvalues --    1.68327   1.69977   1.70782   1.71018   1.72009
 Alpha virt. eigenvalues --    1.73368   1.73493   1.73778   1.74429   1.74936
 Alpha virt. eigenvalues --    1.76613   1.76816   1.77433   1.79520   1.80156
 Alpha virt. eigenvalues --    1.81041   1.82088   1.83752   1.84288   1.84529
 Alpha virt. eigenvalues --    1.86193   1.87076   1.88181   1.88467   1.89683
 Alpha virt. eigenvalues --    1.91540   1.91943   1.92344   1.93040   1.93631
 Alpha virt. eigenvalues --    1.94052   1.95371   1.97596   1.98048   1.98598
 Alpha virt. eigenvalues --    2.01610   2.02096   2.02212   2.03026   2.06212
 Alpha virt. eigenvalues --    2.08915   2.09108   2.09698   2.09775   2.10585
 Alpha virt. eigenvalues --    2.11804   2.12188   2.13692   2.14182   2.16995
 Alpha virt. eigenvalues --    2.18551   2.19657   2.20903   2.21194   2.23853
 Alpha virt. eigenvalues --    2.24045   2.24480   2.25276   2.27523   2.28253
 Alpha virt. eigenvalues --    2.30394   2.31799   2.32568   2.33061   2.33150
 Alpha virt. eigenvalues --    2.35214   2.37100   2.39583   2.41073   2.42653
 Alpha virt. eigenvalues --    2.43059   2.43916   2.44419   2.45279   2.46636
 Alpha virt. eigenvalues --    2.49802   2.51986   2.55143   2.55316   2.56843
 Alpha virt. eigenvalues --    2.57475   2.60626   2.62083   2.62498   2.63915
 Alpha virt. eigenvalues --    2.64730   2.65936   2.65966   2.67039   2.68578
 Alpha virt. eigenvalues --    2.70380   2.70563   2.71388   2.72112   2.73872
 Alpha virt. eigenvalues --    2.74553   2.74796   2.75622   2.76520   2.76759
 Alpha virt. eigenvalues --    2.77571   2.79414   2.80468   2.81126   2.82310
 Alpha virt. eigenvalues --    2.83096   2.83278   2.84419   2.84517   2.86072
 Alpha virt. eigenvalues --    2.86679   2.86744   2.89055   2.90365   2.91088
 Alpha virt. eigenvalues --    2.91263   2.91796   2.92191   2.92760   2.93573
 Alpha virt. eigenvalues --    2.93783   2.94996   2.96239   2.96348   2.97057
 Alpha virt. eigenvalues --    2.97416   2.97629   2.98800   3.00062   3.00331
 Alpha virt. eigenvalues --    3.00391   3.01148   3.01511   3.02679   3.02733
 Alpha virt. eigenvalues --    3.03807   3.04480   3.04842   3.05169   3.05957
 Alpha virt. eigenvalues --    3.06779   3.06997   3.07416   3.07961   3.08145
 Alpha virt. eigenvalues --    3.08817   3.10737   3.11099   3.11912   3.12199
 Alpha virt. eigenvalues --    3.13058   3.14279   3.14483   3.15173   3.15427
 Alpha virt. eigenvalues --    3.16130   3.16657   3.17481   3.17689   3.18914
 Alpha virt. eigenvalues --    3.21025   3.21251   3.22073   3.22389   3.22660
 Alpha virt. eigenvalues --    3.23336   3.24493   3.25092   3.25490   3.26197
 Alpha virt. eigenvalues --    3.27002   3.27372   3.28066   3.28186   3.30133
 Alpha virt. eigenvalues --    3.30198   3.30718   3.31390   3.32361   3.32842
 Alpha virt. eigenvalues --    3.33668   3.34146   3.35691   3.36680   3.36899
 Alpha virt. eigenvalues --    3.37976   3.38197   3.38739   3.38914   3.40397
 Alpha virt. eigenvalues --    3.40717   3.40750   3.42697   3.43116   3.44431
 Alpha virt. eigenvalues --    3.44820   3.45228   3.46496   3.46728   3.47197
 Alpha virt. eigenvalues --    3.48154   3.48600   3.49474   3.50038   3.50233
 Alpha virt. eigenvalues --    3.50643   3.51528   3.52205   3.52468   3.52625
 Alpha virt. eigenvalues --    3.52988   3.54087   3.54318   3.55511   3.56920
 Alpha virt. eigenvalues --    3.57012   3.57345   3.58814   3.59851   3.60438
 Alpha virt. eigenvalues --    3.61072   3.61295   3.62253   3.62341   3.63041
 Alpha virt. eigenvalues --    3.63526   3.65937   3.66564   3.67029   3.67100
 Alpha virt. eigenvalues --    3.67721   3.68703   3.68838   3.69592   3.69922
 Alpha virt. eigenvalues --    3.70108   3.72621   3.73014   3.73664   3.74037
 Alpha virt. eigenvalues --    3.74612   3.75101   3.76242   3.76910   3.77123
 Alpha virt. eigenvalues --    3.78007   3.78020   3.78562   3.81221   3.81872
 Alpha virt. eigenvalues --    3.82501   3.82885   3.83417   3.85000   3.85536
 Alpha virt. eigenvalues --    3.85756   3.86609   3.87384   3.87884   3.88570
 Alpha virt. eigenvalues --    3.88788   3.90189   3.90384   3.91075   3.91332
 Alpha virt. eigenvalues --    3.93118   3.94930   3.95164   3.95251   3.95917
 Alpha virt. eigenvalues --    3.97479   3.97728   3.97772   4.01609   4.01749
 Alpha virt. eigenvalues --    4.02332   4.03286   4.03739   4.04697   4.05864
 Alpha virt. eigenvalues --    4.06592   4.06920   4.08768   4.09398   4.09649
 Alpha virt. eigenvalues --    4.10809   4.11666   4.12348   4.12854   4.13338
 Alpha virt. eigenvalues --    4.14542   4.14716   4.15924   4.16609   4.17377
 Alpha virt. eigenvalues --    4.18125   4.18141   4.18497   4.19642   4.19851
 Alpha virt. eigenvalues --    4.20671   4.20821   4.22072   4.22455   4.23307
 Alpha virt. eigenvalues --    4.23480   4.24301   4.24441   4.24521   4.24933
 Alpha virt. eigenvalues --    4.25633   4.26912   4.27071   4.27361   4.27939
 Alpha virt. eigenvalues --    4.27994   4.29253   4.29341   4.29520   4.30488
 Alpha virt. eigenvalues --    4.31511   4.31705   4.32514   4.32568   4.34802
 Alpha virt. eigenvalues --    4.35102   4.35447   4.36528   4.36689   4.37883
 Alpha virt. eigenvalues --    4.38251   4.38374   4.39239   4.40697   4.41107
 Alpha virt. eigenvalues --    4.41993   4.42527   4.44510   4.45382   4.46152
 Alpha virt. eigenvalues --    4.46253   4.46963   4.47704   4.47879   4.48735
 Alpha virt. eigenvalues --    4.48914   4.50418   4.51318   4.52001   4.53021
 Alpha virt. eigenvalues --    4.53650   4.54128   4.55292   4.55564   4.56073
 Alpha virt. eigenvalues --    4.57635   4.59693   4.60873   4.63162   4.63528
 Alpha virt. eigenvalues --    4.64422   4.65698   4.66403   4.70184   4.70911
 Alpha virt. eigenvalues --    4.71250   4.73537   4.74271   4.75093   4.75499
 Alpha virt. eigenvalues --    4.76960   4.77810   4.79290   4.80570   4.81055
 Alpha virt. eigenvalues --    4.81854   4.81944   4.83156   4.83666   4.85038
 Alpha virt. eigenvalues --    4.86684   4.87651   4.89055   4.89391   4.90239
 Alpha virt. eigenvalues --    4.92169   4.92840   4.94181   4.95550   4.95840
 Alpha virt. eigenvalues --    4.97439   5.00223   5.02022   5.04825   5.05108
 Alpha virt. eigenvalues --    5.06379   5.06997   5.07477   5.07650   5.08886
 Alpha virt. eigenvalues --    5.09338   5.10316   5.12039   5.12891   5.13507
 Alpha virt. eigenvalues --    5.15383   5.15978   5.16536   5.16705   5.17313
 Alpha virt. eigenvalues --    5.18450   5.19270   5.19274   5.22024   5.22411
 Alpha virt. eigenvalues --    5.22419   5.22477   5.23613   5.24294   5.25327
 Alpha virt. eigenvalues --    5.26077   5.26851   5.26986   5.28116   5.29037
 Alpha virt. eigenvalues --    5.29391   5.30063   5.30327   5.31437   5.32120
 Alpha virt. eigenvalues --    5.32230   5.33241   5.34875   5.35121   5.35640
 Alpha virt. eigenvalues --    5.36849   5.37013   5.38340   5.39192   5.39456
 Alpha virt. eigenvalues --    5.41435   5.42653   5.42926   5.44474   5.45527
 Alpha virt. eigenvalues --    5.46579   5.47943   5.49379   5.49834   5.49980
 Alpha virt. eigenvalues --    5.50668   5.51693   5.52444   5.53558   5.53665
 Alpha virt. eigenvalues --    5.55190   5.56567   5.57013   5.60040   5.61924
 Alpha virt. eigenvalues --    5.63168   5.63526   5.65435   5.65891   5.66392
 Alpha virt. eigenvalues --    5.67810   5.68198   5.69397   5.71437   5.72407
 Alpha virt. eigenvalues --    5.72952   5.74247   5.74965   5.76875   5.77510
 Alpha virt. eigenvalues --    5.78853   5.78921   5.79878   5.80180   5.81410
 Alpha virt. eigenvalues --    5.81473   5.82619   5.83244   5.85924   5.87810
 Alpha virt. eigenvalues --    5.96130   5.98101   6.02619   6.10274   6.11006
 Alpha virt. eigenvalues --    6.13070   6.13303   6.15816   6.19309   6.23066
 Alpha virt. eigenvalues --    6.24733   6.30096   6.31558   6.35252   6.41222
 Alpha virt. eigenvalues --    6.51495   6.58215   6.78144   6.94188   6.97097
 Alpha virt. eigenvalues --    7.21340   7.26093  22.92196  23.10410  23.29332
 Alpha virt. eigenvalues --   23.41279  23.42618  23.50407  23.59795  23.69365
 Alpha virt. eigenvalues --   23.74698  23.76409  23.85028  23.85290  31.14291
 Alpha virt. eigenvalues --   32.87122  32.95614  33.06949  44.11763 102.29710
          Condensed to atoms (all electrons):
               1          2          3          4          5          6
     1  C    5.480050  -0.147344  -0.005351   0.115765   0.030522  -0.010789
     2  C   -0.147344   5.480045   0.115766  -0.005354   0.030521  -0.006290
     3  C   -0.005351   0.115766   6.047698  -0.270559   0.252891   0.387425
     4  C    0.115765  -0.005354  -0.270559   6.047694   0.252896   0.022255
     5  C    0.030522   0.030521   0.252891   0.252896   4.526031  -0.035625
     6  H   -0.010789  -0.006290   0.387425   0.022255  -0.035625   0.531739
     7  H   -0.006290  -0.010789   0.022255   0.387421  -0.035625  -0.000161
     8  O    0.030681   0.030682  -0.149060  -0.149060   0.665172   0.008279
     9  N    0.350459   0.350462  -0.109018  -0.109019   0.005723   0.003885
    10  C    0.205965  -0.001544  -0.027689   0.001069  -0.001339  -0.004140
    11  H   -0.029171   0.000614  -0.000121   0.000239  -0.000383   0.000213
    12  H   -0.051439  -0.000467  -0.003321  -0.000263   0.001036   0.000528
    13  C   -0.001544   0.205969   0.001069  -0.027685  -0.001339   0.000111
    14  H    0.000614  -0.029171   0.000239  -0.000121  -0.000383   0.000002
    15  H   -0.000467  -0.051439  -0.000263  -0.003321   0.001036  -0.000006
    16  N   -0.014522   0.002426   0.000933   0.000396  -0.000273   0.000293
    17  N    0.002427  -0.014521   0.000396   0.000933  -0.000273  -0.000003
    18  C    0.002607   0.002607   0.000076   0.000076  -0.000019   0.000007
    19  H   -0.000020  -0.000020   0.000102   0.000102  -0.000015   0.000000
    20  H   -0.000201  -0.000069  -0.000016  -0.000008   0.000001  -0.000000
    21  H   -0.000069  -0.000201  -0.000008  -0.000016   0.000001  -0.000000
    22  C    0.011716  -0.000112   0.000791  -0.000035  -0.000060  -0.000036
    23  H   -0.000551   0.000001   0.000036   0.000001  -0.000001   0.000000
    24  H    0.001270   0.000001  -0.000029  -0.000002   0.000001   0.000011
    25  H   -0.001636  -0.000007  -0.000132  -0.000013   0.000007  -0.000006
    26  C    0.000434  -0.000169   0.000727  -0.000385   0.000201  -0.000339
    27  H   -0.004215  -0.000025  -0.000926  -0.000017   0.000009   0.000036
    28  H    0.000405   0.000019   0.000213   0.000028  -0.000006  -0.000002
    29  H    0.012150  -0.000402   0.002808   0.000119  -0.000295   0.000278
    30  C   -0.000112   0.011716  -0.000035   0.000791  -0.000060   0.000001
    31  H    0.000001   0.001270  -0.000002  -0.000029   0.000001  -0.000000
    32  H    0.000001  -0.000551   0.000001   0.000036  -0.000001   0.000000
    33  H   -0.000007  -0.001636  -0.000013  -0.000132   0.000007   0.000000
    34  C   -0.000169   0.000436  -0.000385   0.000727   0.000201   0.000002
    35  H    0.000019   0.000405   0.000028   0.000213  -0.000006   0.000000
    36  H   -0.000025  -0.004215  -0.000017  -0.000926   0.000009  -0.000000
    37  H   -0.000402   0.012148   0.000119   0.002807  -0.000295   0.000004
    38  H    0.001048   0.001048   0.000110   0.000110  -0.000011   0.000002
    39  Rh  -0.045201  -0.045202  -0.000448  -0.000449   0.000481  -0.000822
               7          8          9         10         11         12
     1  C   -0.006290   0.030681   0.350459   0.205965  -0.029171  -0.051439
     2  C   -0.010789   0.030682   0.350462  -0.001544   0.000614  -0.000467
     3  C    0.022255  -0.149060  -0.109018  -0.027689  -0.000121  -0.003321
     4  C    0.387421  -0.149060  -0.109019   0.001069   0.000239  -0.000263
     5  C   -0.035625   0.665172   0.005723  -0.001339  -0.000383   0.001036
     6  H   -0.000161   0.008279   0.003885  -0.004140   0.000213   0.000528
     7  H    0.531743   0.008279   0.003885   0.000111   0.000002  -0.000006
     8  O    0.008279   8.090180   0.000989  -0.000689  -0.000002   0.000022
     9  N    0.003885   0.000989   6.717929  -0.013429  -0.005318   0.004197
    10  C    0.000111  -0.000689  -0.013429   4.905182   0.428818   0.449483
    11  H    0.000002  -0.000002  -0.005318   0.428818   0.531706  -0.015709
    12  H   -0.000006   0.000022   0.004197   0.449483  -0.015709   0.536756
    13  C   -0.004140  -0.000689  -0.013428  -0.001022  -0.000219   0.000091
    14  H    0.000213  -0.000002  -0.005317  -0.000219  -0.000019  -0.000004
    15  H    0.000528   0.000022   0.004197   0.000091  -0.000004  -0.000000
    16  N   -0.000003   0.000005  -0.040485   0.250167  -0.030733  -0.028930
    17  N    0.000293   0.000005  -0.040486   0.000490   0.000004  -0.000036
    18  C    0.000007  -0.000000  -0.015652   0.000422  -0.000124   0.000004
    19  H    0.000000  -0.000000  -0.000172  -0.000394   0.000024  -0.000007
    20  H   -0.000000   0.000000   0.000364   0.000079  -0.000012   0.000009
    21  H   -0.000000   0.000000   0.000364   0.000133  -0.000007   0.000001
    22  C    0.000001  -0.000001  -0.000333  -0.045815  -0.004559  -0.006068
    23  H    0.000000  -0.000000  -0.000026   0.007446   0.000353  -0.000397
    24  H   -0.000000   0.000000  -0.000041  -0.009808  -0.002564   0.005597
    25  H    0.000000  -0.000000  -0.000060  -0.005629   0.001710  -0.000200
    26  C    0.000002   0.000002  -0.003180  -0.029655   0.004853  -0.015894
    27  H   -0.000000   0.000000   0.000382  -0.006842  -0.000035   0.006613
    28  H    0.000000  -0.000000  -0.000407   0.005553  -0.000100  -0.000077
    29  H    0.000004  -0.000003  -0.003011  -0.014522   0.000229  -0.002045
    30  C   -0.000036  -0.000001  -0.000333  -0.000057   0.000005   0.000000
    31  H    0.000011   0.000000  -0.000041   0.000003  -0.000000  -0.000000
    32  H    0.000000  -0.000000  -0.000026  -0.000006   0.000000   0.000000
    33  H   -0.000006  -0.000000  -0.000060   0.000013  -0.000002   0.000000
    34  C   -0.000339   0.000002  -0.003181   0.000067  -0.000001   0.000009
    35  H   -0.000002  -0.000000  -0.000407  -0.000006   0.000001   0.000000
    36  H    0.000036   0.000000   0.000382   0.000001  -0.000000  -0.000000
    37  H    0.000278  -0.000003  -0.003011   0.000080   0.000002  -0.000005
    38  H    0.000002  -0.000000  -0.007491  -0.001425  -0.000290   0.000057
    39  Rh  -0.000822   0.000261   0.238405  -0.031932  -0.003427   0.008703
              13         14         15         16         17         18
     1  C   -0.001544   0.000614  -0.000467  -0.014522   0.002427   0.002607
     2  C    0.205969  -0.029171  -0.051439   0.002426  -0.014521   0.002607
     3  C    0.001069   0.000239  -0.000263   0.000933   0.000396   0.000076
     4  C   -0.027685  -0.000121  -0.003321   0.000396   0.000933   0.000076
     5  C   -0.001339  -0.000383   0.001036  -0.000273  -0.000273  -0.000019
     6  H    0.000111   0.000002  -0.000006   0.000293  -0.000003   0.000007
     7  H   -0.004140   0.000213   0.000528  -0.000003   0.000293   0.000007
     8  O   -0.000689  -0.000002   0.000022   0.000005   0.000005  -0.000000
     9  N   -0.013428  -0.005317   0.004197  -0.040485  -0.040486  -0.015652
    10  C   -0.001022  -0.000219   0.000091   0.250167   0.000490   0.000422
    11  H   -0.000219  -0.000019  -0.000004  -0.030733   0.000004  -0.000124
    12  H    0.000091  -0.000004  -0.000000  -0.028930  -0.000036   0.000004
    13  C    4.905178   0.428819   0.449485   0.000490   0.250166   0.000422
    14  H    0.428819   0.531707  -0.015709   0.000004  -0.030733  -0.000124
    15  H    0.449485  -0.015709   0.536758  -0.000036  -0.028931   0.000004
    16  N    0.000490   0.000004  -0.000036   6.363060  -0.006941  -0.005685
    17  N    0.250166  -0.030733  -0.028931  -0.006941   6.363045  -0.005682
    18  C    0.000422  -0.000124   0.000004  -0.005685  -0.005682   5.162716
    19  H   -0.000394   0.000024  -0.000007  -0.001683  -0.001682   0.411596
    20  H    0.000133  -0.000007   0.000001   0.000790   0.000572   0.417640
    21  H    0.000079  -0.000012   0.000009   0.000572   0.000790   0.417637
    22  C   -0.000057   0.000005   0.000000   0.259226   0.000338  -0.009061
    23  H   -0.000006   0.000000   0.000000  -0.028574   0.000045  -0.000806
    24  H    0.000003  -0.000000  -0.000000  -0.022858  -0.000016   0.000273
    25  H    0.000013  -0.000002   0.000000  -0.032879   0.000028   0.000269
    26  C    0.000067  -0.000001   0.000009   0.227631   0.001892  -0.010197
    27  H    0.000001  -0.000000  -0.000000  -0.024073  -0.000030   0.000369
    28  H   -0.000006   0.000001   0.000000  -0.027652   0.000048  -0.000470
    29  H    0.000080   0.000002  -0.000005  -0.032518   0.000183   0.000116
    30  C   -0.045816  -0.004560  -0.006069   0.000338   0.259228  -0.009061
    31  H   -0.009808  -0.002564   0.005596  -0.000016  -0.022857   0.000273
    32  H    0.007446   0.000353  -0.000397   0.000045  -0.028574  -0.000806
    33  H   -0.005629   0.001710  -0.000200   0.000028  -0.032878   0.000269
    34  C   -0.029656   0.004853  -0.015895   0.001892   0.227635  -0.010196
    35  H    0.005554  -0.000100  -0.000076   0.000048  -0.027651  -0.000468
    36  H   -0.006843  -0.000035   0.006614  -0.000030  -0.024072   0.000369
    37  H   -0.014521   0.000229  -0.002045   0.000183  -0.032519   0.000116
    38  H   -0.001426  -0.000290   0.000057  -0.003723  -0.003723   0.047065
    39  Rh  -0.031931  -0.003428   0.008703   0.206158   0.206158   0.157159
              19         20         21         22         23         24
     1  C   -0.000020  -0.000201  -0.000069   0.011716  -0.000551   0.001270
     2  C   -0.000020  -0.000069  -0.000201  -0.000112   0.000001   0.000001
     3  C    0.000102  -0.000016  -0.000008   0.000791   0.000036  -0.000029
     4  C    0.000102  -0.000008  -0.000016  -0.000035   0.000001  -0.000002
     5  C   -0.000015   0.000001   0.000001  -0.000060  -0.000001   0.000001
     6  H    0.000000  -0.000000  -0.000000  -0.000036   0.000000   0.000011
     7  H    0.000000  -0.000000  -0.000000   0.000001   0.000000  -0.000000
     8  O   -0.000000   0.000000   0.000000  -0.000001  -0.000000   0.000000
     9  N   -0.000172   0.000364   0.000364  -0.000333  -0.000026  -0.000041
    10  C   -0.000394   0.000079   0.000133  -0.045815   0.007446  -0.009808
    11  H    0.000024  -0.000012  -0.000007  -0.004559   0.000353  -0.002564
    12  H   -0.000007   0.000009   0.000001  -0.006068  -0.000397   0.005597
    13  C   -0.000394   0.000133   0.000079  -0.000057  -0.000006   0.000003
    14  H    0.000024  -0.000007  -0.000012   0.000005   0.000000  -0.000000
    15  H   -0.000007   0.000001   0.000009   0.000000   0.000000  -0.000000
    16  N   -0.001683   0.000790   0.000572   0.259226  -0.028574  -0.022858
    17  N   -0.001682   0.000572   0.000790   0.000338   0.000045  -0.000016
    18  C    0.411596   0.417640   0.417637  -0.009061  -0.000806   0.000273
    19  H    0.585448  -0.028629  -0.028629   0.000743  -0.000107  -0.000014
    20  H   -0.028629   0.557664  -0.014612  -0.002935   0.002047  -0.000155
[...]
 2307,0.00032753,-0.00003567,0.00001769,-0.27145807,0.04273765,0.105475
 33,0.28711095,-0.00004753,-0.00008384,-0.00002848,0.00016375,0.0003094
 6,-0.00014623,0.00006160,-0.00003737,0.00000723,0.00007027,-0.00008498
 ,0.00004552,-0.00001036,0.00008625,0.00000207,0.00000499,-0.00000205,0
 .00000209,0.00000206,0.00000147,0.00000310,0.00000867,-0.00002566,-0.0
 0000262,0.00032251,0.00001337,-0.00000489,-0.00005975,0.00001475,0.000
 03279,0.00000421,-0.00000391,-0.00000360,0.00001512,0.00000395,0.00000
 037,0.00079874,0.00005168,0.00107489,-0.00045606,0.00045851,0.00015496
 ,-0.00038130,0.00034514,0.00005038,0.00007026,0.00000026,-0.00003888,-
 0.00806454,0.00003384,0.00468005,0.00007151,0.00003219,0.00043077,0.00
 041133,-0.00047824,-0.00035608,-0.00006478,0.00007596,-0.00022442,0.00
 005764,-0.00002283,-0.00003540,0.00002396,-0.00001237,0.00001344,-0.00
 000119,-0.00001940,-0.00000097,0.00000297,0.00001351,0.00000167,-0.000
 00003,-0.00000239,-0.00000047,-0.00000747,0.00000804,-0.00001287,0.000
 00609,0.00002193,-0.00000594,0.00001188,-0.00002468,-0.00000530,-0.000
 02103,0.00000588,-0.00000055,0.00038085,-0.00014727,-0.00057714,0.0001
 6952,-0.00005187,0.00007339,-0.00019396,0.00016562,-0.00033917,-0.0000
 8606,-0.00013596,0.00009322,0.04490536,-0.05782054,-0.02210686,-0.0466
 9083,0.05749684,-0.00000531,0.00003560,-0.00002442,-0.00040189,-0.0006
 5910,-0.00011711,0.00000387,0.00005312,0.00000069,0.00010693,0.0002630
 4,0.00013766,-0.00004862,-0.00008902,0.00000661,-0.00000016,0.00000642
 ,-0.00000080,-0.00000454,-0.00001004,-0.00001993,0.00008198,0.00003526
 ,0.00001180,-0.00014242,0.00027130,0.00006936,0.00001778,0.00001751,0.
 00000452,0.00000039,0.00000286,0.00000019,0.00000100,0.00000884,-0.000
 00112,-0.00247760,0.00081011,-0.00605760,0.00190330,-0.00008345,-0.000
 91445,-0.00019008,-0.00005875,0.00009228,0.00001959,0.00023540,-0.0000
 4076,0.03185392,-0.00375223,-0.02027745,0.00011271,-0.00016384,0.00019
 007,-0.00018102,0.00008872,0.00012125,0.00006596,-0.00017527,0.0000300
 6,-0.00029309,0.00001631,-0.00005272,0.00003131,0.00000105,0.00001238,
 -0.00000600,0.00001494,0.00000169,-0.00001424,0.00000825,-0.00000413,-
 0.00000129,0.00000296,-0.00000503,0.00000288,-0.00001086,-0.00002743,-
 0.00000175,0.00000089,0.00000285,0.00000544,0.00000530,0.00001656,-0.0
 0000651,0.00000018,0.00000661,0.00226433,0.00031809,0.00097844,-0.0002
 1367,-0.00004305,-0.00005596,-0.00088901,-0.00029704,-0.00043434,-0.00
 012441,0.00025607,0.00032495,0.09505093,-0.01931257,-0.09476320,-0.111
 86815,0.01938117,0.11162547,0.00005217,0.00011194,-0.00003697,-0.00020
 231,-0.00020946,-0.00005511,-0.00002897,0.00000679,-0.00001384,0.00012
 565,0.00010260,-0.00002022,-0.00007030,-0.00011344,-0.00001838,0.00000
 263,0.00000811,0.00000258,-0.00001542,0.00000436,0.00001156,0.00007565
 ,0.00003318,0.00001207,-0.00008511,0.00003338,0.00028319,-0.00004662,-
 0.00000779,0.00002969,-0.00000160,-0.00000216,-0.00000352,0.00001319,0
 .00001646,-0.00000652,0.00086470,-0.00207516,0.00083763,0.00001031,0.0
 0000384,-0.00008538,0.00012125,0.00018199,0.00016402,-0.00006111,0.000
 20825,0.00009963,-0.00133210,0.00291641,-0.00201999,-0.00001093,0.0002
 1428,-0.00006442,0.00014326,-0.00006770,-0.00017318,-0.00009343,0.0000
 3151,-0.00006042,0.00005177,-0.00010748,0.00002074,0.00004694,0.000004
 21,0.00004318,-0.00000129,-0.00000656,-0.00000013,-0.00000520,0.000029
 31,-0.00001244,-0.00000069,-0.00000339,-0.00000551,-0.00002545,0.00002
 339,-0.00009374,0.00001891,0.00000545,0.00002833,-0.00000744,-0.000006
 09,-0.00000175,0.00001760,-0.00001108,0.00001213,0.00021297,0.00134684
 ,0.00000711,0.00013346,-0.00026579,-0.00021092,-0.00008741,0.00014224,
 0.00013718,-0.00002826,-0.00028835,0.00009920,-0.06788871,0.06452642,-
 0.00680543,-0.00505581,0.02680469,-0.00381104,0.06632470,0.00015559,0.
 00019863,0.00010066,0.00023428,-0.00040659,0.00004022,-0.00014906,0.00
 007038,-0.00003070,-0.00011409,-0.00009704,-0.00005446,0.00026951,-0.0
 0001905,0.00001688,-0.00001422,-0.00000853,-0.00000710,-0.00003588,0.0
 0001749,0.00002187,-0.00026860,0.00001038,-0.00004374,-0.00021657,0.00
 024068,0.00006232,0.00016564,0.00001631,-0.00011170,-0.00000362,0.0000
 0775,0.00001286,-0.00004441,-0.00004028,0.00000421,0.00053946,0.000743
 18,-0.00116341,-0.00022485,0.00037030,-0.00009051,-0.00079736,0.000141
 78,0.00044559,-0.00005716,-0.00040107,-0.00043950,0.00235742,-0.008090
 52,0.00680627,-0.00012403,0.00009099,0.00001633,-0.00002688,0.00001603
 ,-0.00001481,0.00007262,-0.00003957,-0.00000989,0.00005675,0.00005561,
 0.00000493,-0.00016623,0.00007484,-0.00009961,0.00001172,0.00000988,-0
 .00000033,0.00001555,-0.00006983,0.00001482,0.00000627,0.00001516,0.00
 001138,-0.00006870,-0.00017465,0.00012994,-0.00000545,-0.00007940,-0.0
 0007125,-0.00000111,0.00002193,-0.00000089,0.00002722,-0.00000962,0.00
 001689,-0.00082157,0.00191983,-0.00089045,0.00074993,0.00003453,0.0004
 7355,0.00005602,-0.00016304,0.00002974,-0.00003009,0.00025792,0.000005
 91,0.06476457,-0.28681725,0.02708182,-0.00004610,-0.00333305,0.0000010
 3,-0.07214056,0.30929958,0.00001299,0.00001092,-0.00001416,0.00026471,
 -0.00011636,-0.00003019,0.00004540,-0.00006116,-0.00000167,0.00009797,
 0.00004745,0.00003901,-0.00004940,0.00000944,0.00001312,0.00000607,0.0
 0000141,-0.00000082,0.00001503,0.00000049,0.00000117,0.00007574,-0.000
 00654,0.00000748,-0.00023990,-0.00009708,0.00011607,-0.00020985,-0.000
 01346,0.00012911,0.00000896,-0.00000545,-0.00001505,0.00005892,0.00002
 705,-0.00001136,-0.00326977,0.00230817,0.00115975,-0.00010151,-0.00028
 688,0.00028566,0.00074782,-0.00089712,0.00006771,0.00012254,0.00075930
 ,0.00070669,-0.00975957,0.03690178,-0.01748070,0.00015399,-0.00046453,
 -0.00003088,-0.00015886,0.00006719,0.00022005,-0.00000267,0.00002372,0
 .00008820,-0.00015920,0.00003944,0.00003529,0.00018363,-0.00007917,0.0
 0012206,-0.00001762,-0.00000060,0.00000060,-0.00002954,0.00007250,-0.0
 0002186,-0.00000907,-0.00001267,-0.00002006,0.00004339,0.00023308,-0.0
 0021686,0.00002833,0.00007125,0.00012480,-0.00001349,0.00000594,0.0000
 0285,0.00001992,-0.00000169,0.00000585,0.00119578,0.00308632,0.0016987
 3,0.00020673,-0.00121935,0.00009937,-0.00007324,-0.00025314,-0.0001111
 7,0.00022922,-0.00039651,0.00023979,-0.00568151,0.02193453,-0.05192373
 ,0.00198344,-0.01291883,0.00250342,0.00949130,-0.03538778,0.06319190,0
 .00011979,0.00016938,0.00000751,0.00019824,-0.00063361,0.00039282,-0.0
 0008811,0.00002844,-0.00004942,0.00009955,0.00024122,-0.00012337,-0.00
 015756,-0.00028173,0.00001417,-0.00000246,0.00001321,-0.00000277,-0.00
 000225,0.00000912,-0.00000377,0.00014422,0.00007472,0.00001707,-0.0004
 0808,0.00018556,0.00069005,0.00002857,0.00000482,-0.00001415,-0.000012
 72,0.00000753,0.00000069,0.00000266,0.00000448,-0.00000696,0.00022028,
 0.00045499,0.00055633,0.00005703,0.00003949,-0.00014309,0.00004327,0.0
 0005742,-0.00004043,-0.00001625,0.00012366,-0.00002384,-0.00131137,0.0
 0042521,-0.00028626,-0.00001742,-0.00007627,-0.00011832,-0.00000942,-0
 .00004308,0.00006689,0.00002378,0.00008674,0.00002223,0.00012093,0.000
 03387,0.00006257,-0.00000499,0.00001463,0.00002057,-0.00000496,-0.0000
 0174,-0.00000149,-0.00000349,0.00000229,-0.00000771,0.00000025,0.00000
 207,-0.00000284,-0.00003385,-0.00000918,-0.00005683,0.00001760,-0.0000
 2722,0.00001992,-0.00002382,0.00002103,-0.00000652,0.00007439,-0.00000
 087,0.00000454,0.00057933,0.00068754,-0.00041483,-0.00003582,-0.000170
 39,0.00000368,0.00049080,0.00006994,0.00003872,0.00028113,-0.00036928,
 -0.00017025,-0.17975849,-0.11209972,-0.07682128,-0.01620915,-0.0169515
 5,-0.01185836,0.00681629,0.00594044,0.00450399,0.18936155,0.00000172,0
 .00000218,-0.00006251,-0.00023824,0.00008107,0.00022750,0.00001711,-0.
 00003708,0.00000120,0.00009240,-0.00005848,0.00007516,0.00002241,0.000
 03601,-0.00001306,0.00000354,-0.00000339,-0.00000094,0.00002779,-0.000
 01427,-0.00004333,0.00000551,-0.00001604,0.00001976,-0.00003441,-0.000
 62191,0.00042808,-0.00003715,0.00001086,0.00000899,0.00000579,-0.00000
 384,-0.00000016,0.00000859,0.00000082,-0.00000370,-0.00029959,0.000212
 18,-0.00038200,0.00016114,-0.00009865,0.00001782,-0.00012393,-0.000304
 33,0.00006782,-0.00003515,0.00018388,-0.00005645,0.00791745,0.00552024
 ,0.00393145,-0.00003091,0.00001451,0.00000595,-0.00001852,0.00001368,-
 0.00004252,-0.00000443,0.00000007,-0.00002679,-0.00004123,-0.00000603,
 0.00002869,0.00001856,0.00002341,0.00000854,-0.00000147,-0.00000291,-0
 .00000064,-0.00000957,0.00001238,-0.00000569,-0.00000097,-0.00000054,-
 0.00000131,-0.00001708,-0.00003303,-0.00006684,0.00001108,-0.00000962,
 0.00000169,-0.00000643,0.00000588,-0.00000018,0.00000087,-0.00000744,0
 .00002240,0.00003318,0.00037381,0.00097892,0.00014812,0.00044723,0.000
 36380,-0.00006391,-0.00016225,0.00009575,0.00005035,0.00051338,0.00028
 095,-0.11231807,-0.14838972,-0.06512695,0.00501541,0.00399112,0.003571
 26,-0.02165111,-0.01611488,-0.01202470,0.12020201,0.15802697,0.0001268
 4,0.00020605,-0.00001550,0.00081111,0.00009103,-0.00042759,-0.00007502
 ,-0.00003740,-0.00003930,-0.00000771,-0.00009524,0.00010531,0.00036780
 ,0.00016154,0.00003897,-0.00000986,-0.00001803,0.00000239,-0.00001767,
 0.00000925,0.00001294,-0.00029973,-0.00004420,-0.00005530,0.00002798,-
 0.00040495,-0.00014375,-0.00006049,0.00004326,0.00004032,0.00001861,-0
 .00000831,-0.00000140,0.00002090,-0.00001059,-0.00000905,-0.00135987,-
 0.00068678,0.00094400,-0.00011622,0.00005197,0.00019213,0.00019975,-0.
 00006141,-0.00010510,0.00002777,0.00026977,-0.00008779,-0.02635651,-0.
 02041302,-0.01894658,-0.00000174,0.00000683,-0.00007389,0.00003524,0.0
 0004242,-0.00002824,0.00000895,-0.00000889,0.00000409,0.00004086,-0.00
 002264,-0.00000747,0.00002269,0.00002442,0.00000386,0.00000185,0.00000
 053,0.00000178,-0.00001167,0.00000994,-0.00000828,-0.00000465,0.000003
 47,-0.00000864,-0.00001461,-0.00004211,-0.00004571,0.00001213,-0.00001
 689,0.00000585,0.00000192,0.00000055,0.00000661,0.00000454,-0.00002240
 ,0.00008203,0.00145466,0.00275827,-0.00613739,0.00014481,-0.00008886,0
 .00003503,-0.00005331,0.00016563,0.00023010,-0.00140327,-0.00123385,-0
 .00086427,-0.06937494,-0.05908838,-0.09239009,0.00876239,0.00926066,0.
 00703596,0.00308409,0.00178563,0.00240288,0.08503474,0.06630543,0.1101
 0335,0.00168454,0.00196867,0.00063219,0.00168455,-0.00196866,0.0006321
 9,-0.00086657,0.00044198,-0.00011653,-0.00086657,-0.00044198,-0.000116
 53,0.00115354,0.,0.00011331,-0.00002972,-0.00003886,0.00001495,-0.0000
 2972,0.00003886,0.00001495,-0.00114622,0.,-0.00017818,-0.00345586,0.,0
 .00066872,0.00007028,0.00004284,-0.00018742,0.00005335,-0.00009619,-0.
 00001696,-0.00000243,0.00000281,0.00000877,0.00007028,-0.00004284,-0.0
 0018743,0.00005335,0.00009619,-0.00001696,-0.00000243,-0.00000281,0.00
 000877,-0.00002161,-0.00013440,-0.00031941,-0.00002162,0.00013437,-0.0
 0031944,0.00190264,0.,0.00652912,0.00061797,0.,-0.00052723,0.00093776,
 -0.00060850,-0.00061935,0.00093776,0.00060851,-0.00061934,0.00000671,0
 .00004246,-0.00029488,0.00002588,0.00000177,0.00000728,0.00004040,-0.0
 0002430,0.00013152,0.00003074,-0.00002284,0.00016056,-0.00027067,-0.00
 033789,0.00012165,0.00010277,0.00010496,-0.00013236,0.00018930,-0.0000
 3118,0.00001820,-0.00005157,-0.00002494,0.00017794,0.00000671,-0.00004
 246,-0.00029488,0.00004040,0.00002430,0.00013152,0.00002588,-0.0000017
 7,0.00000728,0.00003074,0.00002284,0.00016057,-0.00027067,0.00033789,0
 .00012165,0.00018930,0.00003118,0.00001820,0.00010277,-0.00010496,-0.0
 0013236,-0.00005157,0.00002494,0.00017794,0.04290848,-0.00007437,-0.00
 006191,-0.00019604,0.00007438,-0.00006192,0.00019604,0.00023490,-0.000
 05507,0.00006985,-0.00023490,-0.00005507,-0.00006985,0.,0.00025743,0.,
 -0.00000836,-0.00000110,0.00001007,0.00000836,-0.00000110,-0.00001007,
 0.,-0.00005420,0.,0.,0.00055898,0.,-0.00000590,0.00046322,0.00007238,-
 0.00001711,0.00002954,0.00006352,0.00018835,0.00008859,0.00001625,0.00
 000590,0.00046322,-0.00007238,0.00001711,0.00002954,-0.00006352,-0.000
 18835,0.00008859,-0.00001625,-0.00231832,0.00469561,-0.00669234,0.0023
 1830,0.00469563,0.00669233,0.,0.00017805,0.,0.,0.00003720,0.,0.0000704
 3,0.00021988,-0.00042154,-0.00007043,0.00021988,0.00042154,0.00043245,
 0.00017079,0.00035929,-0.00001732,0.00005870,0.00007155,-0.00018135,0.
 00037562,-0.00019777,0.00004858,-0.00026004,-0.00014170,-0.00046856,-0
 .00080681,0.00002319,0.00014427,-0.00042800,-0.00008601,-0.00010964,0.
 00011152,0.00016505,0.00034103,-0.00017902,0.00044066,-0.00043245,0.00
 017079,-0.00035929,0.00018135,0.00037562,0.00019777,0.00001732,0.00005
 870,-0.00007155,-0.00004858,-0.00026004,0.00014170,0.00046856,-0.00080
 681,-0.00002319,0.00010964,0.00011153,-0.00016504,-0.00014427,-0.00042
 801,0.00008601,-0.00034103,-0.00017902,-0.00044066,0.00000011,0.013820
 15,-0.00041354,-0.00041028,-0.00027375,-0.00041354,0.00041028,-0.00027
 375,0.00007667,-0.00008243,0.00001457,0.00007667,0.00008243,0.00001457
 ,-0.00001555,0.,0.00000868,-0.00001634,-0.00000028,-0.00002287,-0.0000
 1634,0.00000028,-0.00002287,0.00001809,0.,0.00000828,0.00145168,0.,0.0
 0144856,0.00024854,-0.00027558,-0.00032945,-0.00009243,-0.00002242,0.0
 0007009,-0.00016170,-0.00009950,0.00004669,0.00024854,0.00027558,-0.00
 032945,-0.00009244,0.00002242,0.00007010,-0.00016170,0.00009950,0.0000
 4669,-0.00011831,-0.00081206,0.00012028,-0.00011831,0.00081206,0.00012
 027,-0.00119472,0.,-0.00287339,0.00151138,0.,0.00069917,0.00055114,-0.
 00015527,-0.00011061,0.00055114,0.00015527,-0.00011061,-0.00047640,0.0
 0011643,-0.00069696,-0.00000296,0.00001511,-0.00005990,0.00015181,-0.0
 0016218,0.00025476,0.00002796,-0.00012805,0.00035448,-0.00006807,-0.00
 023280,-0.00007908,-0.00005658,-0.00027243,0.00002130,-0.00016753,0.00
 015207,0.00002684,0.00023663,-0.00011144,0.00000009,-0.00047640,-0.000
 11643,-0.00069696,0.00015180,0.00016218,0.00025476,-0.00000296,-0.0000
 1511,-0.00005990,0.00002796,0.00012805,0.00035448,-0.00006807,0.000232
 79,-0.00007907,-0.00016753,-0.00015207,0.00002684,-0.00005658,0.000272
 43,0.00002130,0.00023663,0.00011144,0.00000009,0.07694748,0.00000025,0
 .16192525,-0.01567367,-0.01865271,0.00197827,-0.01567380,0.01865264,0.
 00197825,0.00386188,0.00045988,0.00108622,0.00386189,-0.00045985,0.001
 08622,-0.00568302,-0.00000001,-0.00108197,0.00079897,0.00037040,0.0001
 6609,0.00079897,-0.00037040,0.00016609,0.00513912,0.00000001,0.0009514
 9,-0.08513861,-0.00000009,0.01191782,-0.00484042,-0.01333827,-0.001751
 42,-0.00014114,0.00036313,0.00009684,-0.00267204,0.00038110,0.00156047
 ,-0.00484053,0.01333828,-0.00175141,-0.00014114,-0.00036313,0.00009684
 ,-0.00267204,-0.00038111,0.00156047,-0.03790172,0.01075936,0.00181239,
 -0.03790165,-0.01075931,0.00181243,-0.08919314,-0.00000002,0.00702387,
 0.00300755,0.,0.00377146,-0.00828841,0.00104238,0.00393398,-0.00828835
 ,-0.00104243,0.00393396,0.00437897,0.00910972,0.00174529,-0.00060792,0
 .00094781,0.00024765,-0.00174979,0.00225967,-0.00103251,0.00015666,0.0
 0031244,-0.00011009,0.00163418,-0.00015272,-0.00171264,-0.00008603,-0.
 00003850,0.00041168,-0.00049042,0.00136269,0.00099859,-0.00052788,-0.0
 0116420,-0.00122031,0.00437903,-0.00910965,0.00174531,-0.00174978,-0.0
 0225969,-0.00103251,-0.00060792,-0.00094781,0.00024765,0.00015666,-0.0
 0031244,-0.00011010,0.00163418,0.00015275,-0.00171269,-0.00049041,-0.0
 0136269,0.00099859,-0.00008603,0.00003849,0.00041169,-0.00052789,0.001
 16418,-0.00122031,-0.04577887,-0.00000009,-0.07815611,0.34194455,-0.01
 352724,0.00212600,0.00100109,0.01352717,0.00212613,-0.00100108,-0.0004
 2931,-0.00406159,-0.00052519,0.00042934,-0.00406158,0.00052520,-0.0000
 0002,0.00087838,0.,-0.00059591,0.00011521,-0.00049433,0.00059591,0.000
 11521,0.00049433,0.00000002,-0.00034911,0.,-0.00000009,-0.03869397,0.0
 0000001,-0.01418833,-0.00748880,0.00584109,0.00067668,-0.00000398,-0.0
 0063513,0.00180317,0.00096621,0.00002974,0.01418834,-0.00748871,-0.005
 84109,-0.00067668,-0.00000398,0.00063513,-0.00180318,0.00096620,-0.000
 02974,0.00555351,-0.04881530,0.00708539,-0.00555346,-0.04881537,-0.007
 08539,-0.00000005,-0.06309519,0.00000002,-0.00000006,0.00044944,0.0000
 0002,0.01564355,0.00406140,-0.00948382,-0.01564353,0.00406128,0.009483
 82,0.00505484,-0.01209015,0.00324175,-0.00101381,0.00055772,-0.0002964
 7,-0.00053533,0.00117846,-0.00029390,-0.00093627,0.00026576,-0.0013475
 0,0.00209989,-0.00693871,-0.01053299,-0.00034476,0.00267921,0.00144298
 ,-0.00010775,-0.00095486,0.00058545,-0.00210588,-0.00340635,-0.0015479
 9,-0.00505477,-0.01209021,-0.00324172,0.00053532,0.00117845,0.00029390
 ,0.00101381,0.00055773,0.00029647,0.00093627,0.00026576,0.00134749,-0.
 00209985,-0.00693863,0.01053297,0.00010774,-0.00095486,-0.00058544,0.0
 0034475,0.00267920,-0.00144299,0.00210586,-0.00340626,0.00154795,-0.00
 000009,-0.02364064,-0.00000025,0.00000019,0.26807049,0.00139191,0.0074
 7896,0.00162438,0.00139192,-0.00747895,0.00162439,-0.00133752,-0.00136
 815,0.00154652,-0.00133752,0.00136816,0.00154652,0.00180630,0.,-0.0005
 4560,-0.00059782,-0.00015154,0.00045013,-0.00059782,0.00015154,0.00045
 013,-0.00137005,0.,-0.00019931,0.01123688,0.00000003,-0.03687156,0.002
 47001,0.00618928,0.00046412,-0.00013603,0.00021749,0.00001199,0.001645
 16,0.00001462,-0.00034906,0.00247002,-0.00618926,0.00046414,-0.0001360
 3,-0.00021749,0.00001199,0.00164517,-0.00001461,-0.00034906,0.00245351
 ,-0.00046197,-0.03813952,0.00245351,0.00046198,-0.03813951,0.01971803,
 0.00000003,-0.04600793,0.01528230,0.00000002,-0.00760295,-0.00360055,-
 0.00131096,0.00280625,-0.00360061,0.00131095,0.00280628,0.00120685,0.0
 0567796,0.00031517,0.00021716,-0.00040114,0.00008806,-0.00072805,0.001
 16440,-0.00003700,0.00015828,0.00080614,0.00008579,-0.00274346,-0.0148
 9431,0.00018549,-0.00080813,-0.00106088,-0.00340436,0.00039915,-0.0016
 5301,-0.00040319,-0.00154064,-0.00130523,-0.00185236,0.00120688,-0.005
 67794,0.00031518,-0.00072804,-0.00116441,-0.00003700,0.00021716,0.0004
 0114,0.00008806,0.00015828,-0.00080614,0.00008579,-0.00274353,0.014894
 31,0.00018547,0.00039914,0.00165301,-0.00040320,-0.00080813,0.00106086
 ,-0.00340436,-0.00154064,0.00130518,-0.00185235,-0.08272550,-0.0000002
 5,-0.15988952,0.03915246,0.00000019,0.32433201\\0.00000229,-0.00000088
 ,0.00001062,0.00000230,0.00000089,0.00001062,0.00000215,-0.00000023,0.
 00001789,0.00000214,0.00000023,0.00001790,0.00000236,0.,0.00002390,0.0
 0000098,-0.00000026,0.00002091,0.00000098,0.00000026,0.00002090,-0.000
 00179,0.,0.00002880,0.00000553,0.,0.00000256,0.00000416,-0.00000006,0.
 00000435,0.00001084,-0.00000025,0.00000416,0.00000212,-0.00000059,0.00
 000685,0.00000416,0.00000005,0.00000436,0.00001083,0.00000025,0.000004
 16,0.00000212,0.00000058,0.00000686,-0.00000068,-0.00000134,-0.0000040
 1,-0.00000070,0.00000134,-0.00000403,-0.00000438,0.,-0.00001752,-0.000
 00886,0.,-0.00001614,-0.00000195,-0.00000037,-0.00001973,-0.00000195,0
 .00000038,-0.00001973,0.00000318,0.00000067,-0.00000715,0.00000068,0.0
 0000008,-0.00001469,0.00000321,-0.00000038,-0.00000700,0.00001023,0.00
 000012,-0.00000870,-0.00000857,0.00000114,-0.00000216,-0.00000877,-0.0
 0000057,-0.00000087,-0.00001051,-0.00000007,-0.00000847,-0.00001100,-0
 .00000008,0.00000142,0.00000319,-0.00000067,-0.00000716,0.00000321,0.0
 0000038,-0.00000700,0.00000068,-0.00000008,-0.00001469,0.00001024,-0.0
 0000012,-0.00000870,-0.00000856,-0.00000113,-0.00000217,-0.00001050,0.
 00000007,-0.00000848,-0.00000876,0.00000057,-0.00000087,-0.00001099,0.
 00000006,0.00000145,0.00000848,0.,-0.00000869,0.00000193,0.,0.00000022
 \\\@
 The archive entry for this job was punched.


 FROM AN ANONYMOUS WRITER, ON PERSPECTIVE:

 MAN, DESPITE HIS ARTISTIC PRETENSIONS, HIS SOPHISTICATION AND MANY 
 ACCOMPLISHMENTS, OWES THE FACT OF HIS EXISTENCE TO A SIX-INCH LAYER OF 
 TOPSOIL AND THE FACT THAT IT RAINS.
 Job cpu time:       4 days  3 hours 38 minutes 34.6 seconds.
 Elapsed time:       0 days 13 hours  1 minutes 37.2 seconds.
 File lengths (MBytes):  RWF=   1935 Int=      0 D2E=      0 Chk=     70 Scr=      1
 Normal termination of Gaussian 16 at Fri Mar  8 16:31:13 2024.
