 Entering Gaussian System, Link 0=/cm/shared/apps//g16/g16
 Input=trans-H_Ir_PH3_2_NH3.gjf
 Output=trans-H_Ir_PH3_2_NH3.log
 Initial command:
 /cm/shared/apps//g16/l1.exe "/local/mvanvleet/pbs.15303.josephine/Gau-192085.inp" -scrdir="/local/mvanvleet/pbs.15303.josephine/"
 Entering Link 1 = /cm/shared/apps//g16/l1.exe PID=    192086.
  
 Copyright (c) 1988-2019, Gaussian, Inc.  All Rights Reserved.
  
 This is part of the Gaussian(R) 16 program.  It is based on
 the Gaussian(R) 09 system (copyright 2009, Gaussian, Inc.),
 the Gaussian(R) 03 system (copyright 2003, Gaussian, Inc.),
 the Gaussian(R) 98 system (copyright 1998, Gaussian, Inc.),
 the Gaussian(R) 94 system (copyright 1995, Gaussian, Inc.),
 the Gaussian 92(TM) system (copyright 1992, Gaussian, Inc.),
 the Gaussian 90(TM) system (copyright 1990, Gaussian, Inc.),
 the Gaussian 88(TM) system (copyright 1988, Gaussian, Inc.),
 the Gaussian 86(TM) system (copyright 1986, Carnegie Mellon
 University), and the Gaussian 82(TM) system (copyright 1983,
 Carnegie Mellon University). Gaussian is a federally registered
 trademark of Gaussian, Inc.
  
 This software contains proprietary and confidential information,
 including trade secrets, belonging to Gaussian, Inc.
  
 This software is provided under written license and may be
 used, copied, transmitted, or stored only in accord with that
 written license.
  
 The following legend is applicable only to US Government
 contracts under FAR:
  
                    RESTRICTED RIGHTS LEGEND
  
 Use, reproduction and disclosure by the US Government is
 subject to restrictions as set forth in subparagraphs (a)
 and (c) of the Commercial Computer Software - Restricted
 Rights clause in FAR 52.227-19.
  
 Gaussian, Inc.
 340 Quinnipiac St., Bldg. 40, Wallingford CT 06492
  
  
 ---------------------------------------------------------------
 Warning -- This program may not be used in any manner that
 competes with the business of Gaussian, Inc. or will provide
 assistance to any competitor of Gaussian, Inc.  The licensee
 of this program is prohibited from giving any competitor of
 Gaussian, Inc. access to this program.  By using this program,
 the user acknowledges that Gaussian, Inc. is engaged in the
 business of creating and licensing software in the field of
 computational chemistry and represents and warrants to the
 licensee that it is not a competitor of Gaussian, Inc. and that
 it will not use this program in any manner prohibited above.
 ---------------------------------------------------------------
  

 Cite this work as:
 Gaussian 16, Revision C.01,
 M. J. Frisch, G. W. Trucks, H. B. Schlegel, G. E. Scuseria, 
 M. A. Robb, J. R. Cheeseman, G. Scalmani, V. Barone, 
 G. A. Petersson, H. Nakatsuji, X. Li, M. Caricato, A. V. Marenich, 
 J. Bloino, B. G. Janesko, R. Gomperts, B. Mennucci, H. P. Hratchian, 
 J. V. Ortiz, A. F. Izmaylov, J. L. Sonnenberg, D. Williams-Young, 
 F. Ding, F. Lipparini, F. Egidi, J. Goings, B. Peng, A. Petrone, 
 T. Henderson, D. Ranasinghe, V. G. Zakrzewski, J. Gao, N. Rega, 
 G. Zheng, W. Liang, M. Hada, M. Ehara, K. Toyota, R. Fukuda, 
 J. Hasegawa, M. Ishida, T. Nakajima, Y. Honda, O. Kitao, H. Nakai, 
 T. Vreven, K. Throssell, J. A. Montgomery, Jr., J. E. Peralta, 
 F. Ogliaro, M. J. Bearpark, J. J. Heyd, E. N. Brothers, K. N. Kudin, 
 V. N. Staroverov, T. A. Keith, R. Kobayashi, J. Normand, 
 K. Raghavachari, A. P. Rendell, J. C. Burant, S. S. Iyengar, 
 J. Tomasi, M. Cossi, J. M. Millam, M. Klene, C. Adamo, R. Cammi, 
 J. W. Ochterski, R. L. Martin, K. Morokuma, O. Farkas, 
 J. B. Foresman, and D. J. Fox, Gaussian, Inc., Wallingford CT, 2019.
 
 ******************************************
 Gaussian 16:  ES64L-G16RevC.01  3-Jul-2019
                30-May-2024 
 ******************************************
 %nprocshared=48
 Will use up to   48 processors via shared memory.
 %chk=trans-H_Ir_PH3_2_NH3.chk
 %mem=16GB
 ---------------------------------
 # PBEPBE GenECP Pop=NBO Popt freq
 ---------------------------------
 1/10=7,26=3,38=1/1,3;
 2/12=2,17=6,18=5,29=3,40=1/2;
 3/5=7,11=2,16=1,17=8,25=1,30=1,71=1,74=1009/1,2,3;
 4//1;
 5/5=2,38=5/2;
 6/7=2,8=2,9=2,10=2,28=1,40=1/1,7;
 7/29=1/1,2,3,16;
 1/10=7,26=3/3(2);
 2/29=3/2;
 99//99;
 2/29=3/2;
 3/5=7,6=1,11=2,16=1,17=8,25=1,30=1,71=1,74=1009,82=7/1,2,3;
 4/5=5,16=3,69=1/1;
 5/5=2,38=5/2;
 7//1,2,3,16;
 1/26=3/3(-5);
 2/29=3/2;
 6/7=2,8=2,9=2,10=2,19=2,28=1,40=1/1,7;
 99/9=1/99;
 ----------------------
 trans-(F)Ir(PH3)2(NH3)
 ----------------------
 Symbolic Z-matrix:
 Charge =  0 Multiplicity = 1
 Ir
 F                    1    B1
 P                    1    B2       2    A1
 N                    1    B3       3    A2       2    D1       0
 P                    1    B4       4    A3       3    D2       0
 H                    3    B5       1    A4       2    D3       0
 H                    3    B6       1    A5       6    D4       0
 H                    3    B7       1    A6       7    D5       0
 H                    5    B8       1    A7       7    D6       0
 H                    5    B9       1    A8       7    D7       0
 H                    5    B10      1    A9       7    D8       0
 H                    4    B11      1    A10      3    D9       0
 H                    4    B12      1    A11      3    D10      0
 H                    4    B13      1    A12      3    D11      0
       Variables:
  B1                    2.03527                  
  B2                    2.2643                   
  B3                    2.13349                  
  B4                    2.27014                  
  B5                    1.43081                  
  B6                    1.4371                   
  B7                    1.43081                  
  B8                    1.43095                  
  B9                    1.4348                   
  B10                   1.43096                  
  B11                   1.02748                  
  B12                   1.02749                  
  B13                   1.0269                   
  A4                  120.70479                  
  A5                  118.79842                  
  A6                  120.72031                  
  A7                  120.11404                  
  A8                  120.13566                  
  A9                  120.11944                  
  A10                 111.51717                  
  A11                 111.52055                  
  A12                 113.18298                  
  D3                   60.74925                  
  D4                  119.21014                  
  D5                  119.23387                  
  D6                 -120.01067                  
  D7                   -0.0978                   
  D8                  119.81839                  
  D9                  119.75463                  
  D10                -119.6877                   
  D11                   0.03579                  
       Constants:
  A1                   90.                       
  A2                   90.                       
  A3                   90.                       
  D1                  180.                       
  D2                 -180.                       
 

 GradGradGradGradGradGradGradGradGradGradGradGradGradGradGradGradGradGrad
 Berny optimization.
 Initialization pass.
                       ----------------------------
                       !    Initial Parameters    !
                       ! (Angstroms and Degrees)  !
 ----------------------                            ----------------------
 !      Name          Value   Derivative information (Atomic Units)     !
 ------------------------------------------------------------------------
 !       B1          2.0353   estimate D2E/DX2                          !
 !       B2          2.2643   estimate D2E/DX2                          !
 !       B3          2.1335   estimate D2E/DX2                          !
 !       B4          2.2701   estimate D2E/DX2                          !
 !       B5          1.4308   estimate D2E/DX2                          !
 !       B6          1.4371   estimate D2E/DX2                          !
 !       B7          1.4308   estimate D2E/DX2                          !
 !       B8          1.431    estimate D2E/DX2                          !
 !       B9          1.4348   estimate D2E/DX2                          !
 !       B10         1.431    estimate D2E/DX2                          !
 !       B11         1.0275   estimate D2E/DX2                          !
 !       B12         1.0275   estimate D2E/DX2                          !
 !       B13         1.0269   estimate D2E/DX2                          !
 !       A4        120.7048   estimate D2E/DX2                          !
 !       A5        118.7984   estimate D2E/DX2                          !
 !       A6        120.7203   estimate D2E/DX2                          !
 !       A7        120.114    estimate D2E/DX2                          !
 !       A8        120.1357   estimate D2E/DX2                          !
 !       A9        120.1194   estimate D2E/DX2                          !
 !       A10       111.5172   estimate D2E/DX2                          !
 !       A11       111.5206   estimate D2E/DX2                          !
 !       A12       113.183    estimate D2E/DX2                          !
 !       D3         60.7492   estimate D2E/DX2                          !
 !       D4        119.2101   estimate D2E/DX2                          !
 !       D5        119.2339   estimate D2E/DX2                          !
 !       D6       -120.0107   estimate D2E/DX2                          !
 !       D7         -0.0978   estimate D2E/DX2                          !
 !       D8        119.8184   estimate D2E/DX2                          !
 !       D9        119.7546   estimate D2E/DX2                          !
 !       D10      -119.6877   estimate D2E/DX2                          !
 !       D11         0.0358   estimate D2E/DX2                          !
 !       A1         90.0      Frozen                                    !
 !       A2         90.0      Frozen                                    !
 !       A3         90.0      Frozen                                    !
 !       D1        180.0      Frozen                                    !
 !       D2       -180.0      Frozen                                    !
 ------------------------------------------------------------------------
 Trust Radius=3.00D-01 FncErr=1.00D-07 GrdErr=1.00D-06 EigMax=2.50D+02 EigMin=1.00D-04
 Number of steps in this run=     46 maximum allowed number of steps=    100.
 GradGradGradGradGradGradGradGradGradGradGradGradGradGradGradGradGradGrad

 ---------------------------------------------------------------------------------------------------
                            Z-MATRIX (ANGSTROMS AND DEGREES)
   CD    Cent   Atom    N1       Length/X        N2       Alpha/Y        N3        Beta/Z          J
 ---------------------------------------------------------------------------------------------------
      1      1  Ir
      2      2  F        1   2.035271(     1)
      3      3  P        1   2.264303(     2)      2   90.000(    14)
      4      4  N        1   2.133492(     3)      3   90.000(    15)      2  180.000(    26)      0
      5      5  P        1   2.270138(     4)      4   90.000(    16)      3 -180.000(    27)      0
      6      6  H        3   1.430809(     5)      1  120.705(    17)      2   60.749(    28)      0
      7      7  H        3   1.437102(     6)      1  118.798(    18)      6  119.210(    29)      0
      8      8  H        3   1.430808(     7)      1  120.720(    19)      7  119.234(    30)      0
      9      9  H        5   1.430954(     8)      1  120.114(    20)      7 -120.011(    31)      0
     10     10  H        5   1.434803(     9)      1  120.136(    21)      7   -0.098(    32)      0
     11     11  H        5   1.430965(    10)      1  120.119(    22)      7  119.818(    33)      0
     12     12  H        4   1.027482(    11)      1  111.517(    23)      3  119.755(    34)      0
     13     13  H        4   1.027486(    12)      1  111.521(    24)      3 -119.688(    35)      0
     14     14  H        4   1.026899(    13)      1  113.183(    25)      3    0.036(    36)      0
 ---------------------------------------------------------------------------------------------------
                         Z-Matrix orientation:                         
 ---------------------------------------------------------------------
 Center     Atomic      Atomic             Coordinates (Angstroms)
 Number     Number       Type             X           Y           Z
 ---------------------------------------------------------------------
      1         77           0        0.000000    0.000000    0.000000
      2          9           0        0.000000    0.000000    2.035271
      3         15           0        2.264303    0.000000    0.000000
      4          7           0        0.000000    0.000000   -2.133492
      5         15           0       -2.270138   -0.000000   -0.000000
      6          1           0        2.994896   -1.073357    0.601127
      7          1           0        2.956598   -0.000893   -1.259361
      8          1           0        2.995229    1.073786    0.599953
      9          1           0       -2.988080    1.072304    0.618348
     10          1           0       -2.990479    0.001239   -1.240873
     11          1           0       -2.988202   -1.073449    0.616239
     12          1           0       -0.474388   -0.829851   -2.510352
     13          1           0       -0.473409    0.830388   -2.510410
     14          1           0        0.943979   -0.000590   -2.537750
 ---------------------------------------------------------------------
                    Distance matrix (angstroms):
                    1          2          3          4          5
     1  Ir   0.000000
     2  F    2.035271   0.000000
     3  P    2.264303   3.044569   0.000000
     4  N    2.133492   4.168763   3.111086   0.000000
     5  P    2.270138   3.048910   4.534441   3.115335   0.000000
     6  H    3.237723   3.489737   1.430809   4.195192   5.406850
     7  H    3.213637   4.426745   1.437102   3.083112   5.376315
     8  H    3.237955   3.490637   1.430808   4.194774   5.407129
     9  H    3.234318   3.476511   5.396269   4.201319   1.430954
    10  H    3.237705   4.435774   5.399306   3.120855   1.434803
    11  H    3.234408   3.477829   5.396374   4.200317   1.430965
    12  H    2.686180   4.645039   3.806698   1.027482   3.196129
    13  H    2.686227   4.645091   3.806149   1.027486   3.196864
    14  H    2.707632   4.669434   2.860670   1.026899   4.095207
                    6          7          8          9         10
     6  H    0.000000
     7  H    2.147804   0.000000
     8  H    2.147144   2.147900   0.000000
     9  H    6.356112   6.325878   5.983337   0.000000
    10  H    6.353931   5.947107   6.353558   2.145668   0.000000
    11  H    5.983117   6.325259   6.357069   2.145754   2.145653
    12  H    4.666533   3.744838   5.033495   4.441352   2.938197
    13  H    5.033393   3.744476   4.665302   4.021345   2.938513
    14  H    3.899954   2.384306   3.899627   5.154915   4.142687
                   11         12         13         14
    11  H    0.000000
    12  H    4.019225   0.000000
    13  H    4.441251   1.660240   0.000000
    14  H    5.153710   1.643226   1.643247   0.000000
 Stoichiometry    FH9IrNP2
 Framework group  C1[X(FH9IrNP2)]
 Deg. of freedom    36
 Full point group                 C1      NOp   1
 Largest Abelian subgroup         C1      NOp   1
 Largest concise Abelian subgroup C1      NOp   1
                         Standard orientation:                         
 ---------------------------------------------------------------------
 Center     Atomic      Atomic             Coordinates (Angstroms)
 Number     Number       Type             X           Y           Z
 ---------------------------------------------------------------------
      1         77           0       -0.000809   -0.032123   -0.000003
      2          9           0        0.001364   -2.067393    0.000002
      3         15           0       -2.265111   -0.034540   -0.000016
      4          7           0       -0.003088    2.101368   -0.000009
      5         15           0        2.269327   -0.029699    0.000010
      6          1           0       -2.995068   -0.636445    1.073339
      7          1           0       -2.958750    1.224081    0.000870
      8          1           0       -2.995390   -0.635276   -1.073805
      9          1           0        2.987935   -0.647282   -1.072288
     10          1           0        2.988343    1.211943   -0.001228
     11          1           0        2.988043   -0.645168    1.073465
     12          1           0        0.470893    2.478736    0.829844
     13          1           0        0.469923    2.478789   -0.830395
     14          1           0       -0.947498    2.504618    0.000575
 ---------------------------------------------------------------------
 Rotational constants (GHZ):           2.9330804           1.3309486           0.9359703
 General basis read from cards:  (5D, 7F)
 ======================================================================================================
                                       Pseudopotential Parameters
 ======================================================================================================
  Center     Atomic      Valence      Angular      Power
  Number     Number     Electrons     Momentum     of R      Exponent        Coefficient   SO-Coeffient
 ======================================================================================================
    1         77           17
                                      H and up 
                                                     2        1.0000000        0.00000000    0.00000000
                                      S - H
                                                     2       13.6522030      732.26920000    0.00000000
                                                     2        6.8261010       26.48472100    0.00000000
                                      P - H
                                                     2       10.2798680      299.48947400    0.00000000
                                                     2        5.1399340       26.46623400    0.00000000
                                      D - H
                                                     2        7.3498590      124.45759500    0.00000000
                                                     2        3.6749290       14.03599500    0.00000000
                                      F - H
                                                     2        3.0340720       21.53103100    0.00000000
                                      G - H
                                                     2        4.8088570      -21.60759700    0.00000000
    2          9
                                   No pseudopotential on this center.
    3         15
                                   No pseudopotential on this center.
    4          7
                                   No pseudopotential on this center.
    5         15
                                   No pseudopotential on this center.
    6          1
                                   No pseudopotential on this center.
    7          1
                                   No pseudopotential on this center.
    8          1
                                   No pseudopotential on this center.
    9          1
                                   No pseudopotential on this center.
   10          1
                                   No pseudopotential on this center.
   11          1
                                   No pseudopotential on this center.
   12          1
                                   No pseudopotential on this center.
   13          1
                                   No pseudopotential on this center.
   14          1
                                   No pseudopotential on this center.
 ======================================================================================================
 There are   201 symmetry adapted cartesian basis functions of A   symmetry.
 There are   194 symmetry adapted basis functions of A   symmetry.
   194 basis functions,   309 primitive gaussians,   201 cartesian basis functions
    36 alpha electrons       36 beta electrons
       nuclear repulsion energy       420.8559353902 Hartrees.
 NAtoms=   14 NActive=   14 NUniq=   14 SFac= 1.00D+00 NAtFMM=   60 NAOKFM=F Big=F
 Integral buffers will be    131072 words long.
 Raffenetti 2 integral format.
 Two-electron integral symmetry is turned on.
 One-electron integrals computed using PRISM.
   1 Symmetry operations used in ECPInt.
 ECPInt:  NShTT=    3916 NPrTT=   11299 LenC2=    3742 LenP2D=    8602.
 LDataN:  DoStor=T MaxTD1= 7 Len=  274
 NBasis=   194 RedAO= T EigKep=  3.70D-04  NBF=   194
 NBsUse=   194 1.00D-06 EigRej= -1.00D+00 NBFU=   194
 Defaulting to unpruned grid for atomic number  77.
 ExpMin= 1.50D-02 ExpMax= 7.75D+04 ExpMxC= 2.65D+03 IAcc=3 IRadAn=         5 AccDes= 0.00D+00
 Harris functional with IExCor= 1009 and IRadAn=       5 diagonalized for initial guess.
 HarFok:  IExCor= 1009 AccDes= 0.00D+00 IRadAn=         5 IDoV= 1 UseB2=F ITyADJ=14
 ICtDFT=  3500011 ScaDFX=  1.000000  1.000000  1.000000  1.000000
 Defaulting to unpruned grid for atomic number  77.
 FoFCou: FMM=F IPFlag=           0 FMFlag=      100000 FMFlg1=           0
         NFxFlg=           0 DoJE=T BraDBF=F KetDBF=T FulRan=T
         wScrn=  0.000000 ICntrl=       500 IOpCl=  0 I1Cent=   200000004 NGrid=           0
         NMat0=    1 NMatS0=      1 NMatT0=    0 NMatD0=    1 NMtDS0=    0 NMtDT0=    0
 Petite list used in FoFCou.
 Requested convergence on RMS density matrix=1.00D-08 within 128 cycles.
 Requested convergence on MAX density matrix=1.00D-06.
 Requested convergence on             energy=1.00D-06.
 No special actions if energy rises.
 Defaulting to unpruned grid for atomic number  77.
 Defaulting to unpruned grid for atomic number  77.
 Defaulting to unpruned grid for atomic number  77.
 Defaulting to unpruned grid for atomic number  77.
 Defaulting to unpruned grid for atomic number  77.
 Defaulting to unpruned grid for atomic number  77.
 Defaulting to unpruned grid for atomic number  77.
 Defaulting to unpruned grid for atomic number  77.
 Defaulting to unpruned grid for atomic number  77.
 Defaulting to unpruned grid for atomic number  77.
 Defaulting to unpruned grid for atomic number  77.
 Defaulting to unpruned grid for atomic number  77.
 Defaulting to unpruned grid for atomic number  77.
 Defaulting to unpruned grid for atomic number  77.
 Defaulting to unpruned grid for atomic number  77.
 Defaulting to unpruned grid for atomic number  77.
 Defaulting to unpruned grid for atomic number  77.
 Defaulting to unpruned grid for atomic number  77.
 Defaulting to unpruned grid for atomic number  77.
 Defaulting to unpruned grid for atomic number  77.
 Defaulting to unpruned grid for atomic number  77.
 Defaulting to unpruned grid for atomic number  77.
 Defaulting to unpruned grid for atomic number  77.
 Defaulting to unpruned grid for atomic number  77.
 Defaulting to unpruned grid for atomic number  77.
 Defaulting to unpruned grid for atomic number  77.
 Defaulting to unpruned grid for atomic number  77.
 Defaulting to unpruned grid for atomic number  77.
 Defaulting to unpruned grid for atomic number  77.
 Defaulting to unpruned grid for atomic number  77.
 Defaulting to unpruned grid for atomic number  77.
 Defaulting to unpruned grid for atomic number  77.
 Defaulting to unpruned grid for atomic number  77.
 Defaulting to unpruned grid for atomic number  77.
 Defaulting to unpruned grid for atomic number  77.
 Defaulting to unpruned grid for atomic number  77.
 Defaulting to unpruned grid for atomic number  77.
 Defaulting to unpruned grid for atomic number  77.
 Defaulting to unpruned grid for atomic number  77.
 Defaulting to unpruned grid for atomic number  77.
 Defaulting to unpruned grid for atomic number  77.
 Defaulting to unpruned grid for atomic number  77.
 Defaulting to unpruned grid for atomic number  77.
 Defaulting to unpruned grid for atomic number  77.
 Defaulting to unpruned grid for atomic number  77.
 Defaulting to unpruned grid for atomic number  77.
 Defaulting to unpruned grid for atomic number  77.
 Defaulting to unpruned grid for atomic number  77.
 EnCoef did     2 forward-backward iterations
 EnCoef did     2 forward-backward iterations
 SCF Done:  E(RPBE-PBE) =  -946.745315181     A.U. after   16 cycles
            NFock= 16  Conv=0.24D-08     -V/T= 2.0802

 **********************************************************************

            Population analysis using the SCF Density.

 **********************************************************************

 Orbital symmetries:
       Occupied  (A) (A) (A) (A) (A) (A) (A) (A) (A) (A) (A) (A)
                 (A) (A) (A) (A) (A) (A) (A) (A) (A) (A) (A) (A)
                 (A) (A) (A) (A) (A) (A) (A) (A) (A) (A) (A) (A)
       Virtual   (A) (A) (A) (A) (A) (A) (A) (A) (A) (A) (A) (A)
                 (A) (A) (A) (A) (A) (A) (A) (A) (A) (A) (A) (A)
                 (A) (A) (A) (A) (A) (A) (A) (A) (A) (A) (A) (A)
                 (A) (A) (A) (A) (A) (A) (A) (A) (A) (A) (A) (A)
                 (A) (A) (A) (A) (A) (A) (A) (A) (A) (A) (A) (A)
                 (A) (A) (A) (A) (A) (A) (A) (A) (A) (A) (A) (A)
                 (A) (A) (A) (A) (A) (A) (A) (A) (A) (A) (A) (A)
                 (A) (A) (A) (A) (A) (A) (A) (A) (A) (A) (A) (A)
                 (A) (A) (A) (A) (A) (A) (A) (A) (A) (A) (A) (A)
                 (A) (A) (A) (A) (A) (A) (A) (A) (A) (A) (A) (A)
                 (A) (A) (A) (A) (A) (A) (A) (A) (A) (A) (A) (A)
                 (A) (A) (A) (A) (A) (A) (A) (A) (A) (A) (A) (A)
                 (A) (A) (A) (A) (A) (A) (A) (A) (A) (A) (A) (A)
                 (A) (A)
 The electronic state is 1-A.
 Alpha  occ. eigenvalues --  -76.31666 -76.31623 -24.11818 -14.05310  -6.32988
 Alpha  occ. eigenvalues --   -6.32945  -4.54660  -4.54611  -4.54572  -4.54534
 Alpha  occ. eigenvalues --   -4.54269  -4.54227  -3.50025  -1.89405  -1.89016
 Alpha  occ. eigenvalues --   -1.84627  -0.92228  -0.85358  -0.61200  -0.60349
 Alpha  occ. eigenvalues --   -0.48859  -0.48609  -0.38759  -0.36804  -0.36745
 Alpha  occ. eigenvalues --   -0.36308  -0.36195  -0.35961  -0.28058  -0.27860
 Alpha  occ. eigenvalues --   -0.25034  -0.24377  -0.18444  -0.16983  -0.14547
 Alpha  occ. eigenvalues --   -0.13321
 Alpha virt. eigenvalues --   -0.05782  -0.04267  -0.03974  -0.02427  -0.01868
 Alpha virt. eigenvalues --    0.00539   0.01344   0.01372   0.01914   0.03253
 Alpha virt. eigenvalues --    0.03277   0.03736   0.04771   0.05216   0.05230
 Alpha virt. eigenvalues --    0.06010   0.07091   0.07247   0.08292   0.08939
 Alpha virt. eigenvalues --    0.09942   0.10655   0.12754   0.13155   0.13337
 Alpha virt. eigenvalues --    0.14719   0.15671   0.16107   0.17410   0.17475
 Alpha virt. eigenvalues --    0.18668   0.21286   0.22172   0.22744   0.26083
 Alpha virt. eigenvalues --    0.26457   0.27005   0.27615   0.29746   0.31076
 Alpha virt. eigenvalues --    0.31362   0.32513   0.33705   0.34927   0.35086
 Alpha virt. eigenvalues --    0.37079   0.38676   0.40282   0.41446   0.45146
 Alpha virt. eigenvalues --    0.45671   0.48529   0.49383   0.50493   0.51800
 Alpha virt. eigenvalues --    0.53338   0.53745   0.54953   0.60369   0.61931
 Alpha virt. eigenvalues --    0.64160   0.67368   0.68194   0.71570   0.73018
 Alpha virt. eigenvalues --    0.73717   0.74577   0.76571   0.78146   0.82312
 Alpha virt. eigenvalues --    0.84680   0.88574   0.88677   0.90949   1.08960
 Alpha virt. eigenvalues --    1.10678   1.17092   1.19559   1.22365   1.22598
 Alpha virt. eigenvalues --    1.23467   1.25641   1.27387   1.29313   1.29708
 Alpha virt. eigenvalues --    1.30841   1.31859   1.38810   1.41112   1.44509
 Alpha virt. eigenvalues --    1.45300   1.47564   1.47905   1.50687   1.52752
 Alpha virt. eigenvalues --    1.57146   1.58895   1.62488   1.63275   1.63309
 Alpha virt. eigenvalues --    1.66570   1.68313   1.70109   1.79999   1.80468
 Alpha virt. eigenvalues --    1.81211   1.82771   1.85322   1.95472   2.00304
 Alpha virt. eigenvalues --    2.03949   2.08099   2.08154   2.08675   2.09131
 Alpha virt. eigenvalues --    2.20674   2.42667   2.43906   2.49738   2.50082
 Alpha virt. eigenvalues --    2.51239   2.51268   2.52138   2.53453   2.55511
 Alpha virt. eigenvalues --    2.60931   2.74123   2.75173   2.80461   2.88436
 Alpha virt. eigenvalues --    2.92302   3.80895   3.81736   3.82241   3.84194
 Alpha virt. eigenvalues --    3.94176   4.01770   4.50112   4.50812   6.32382
 Alpha virt. eigenvalues --    6.38602   6.41525   6.93170   6.96094  13.66196
 Alpha virt. eigenvalues --   13.69849  13.69998  13.72420  13.78710  13.85054
 Alpha virt. eigenvalues --   35.20619  47.21982  47.47634  47.49302  66.45139
 Alpha virt. eigenvalues --  139.28165 162.49196 162.52922
          Condensed to atoms (all electrons):
               1          2          3          4          5          6
     1  Ir  16.526363   0.128743   0.185142  -0.004784   0.156193  -0.023319
     2  F    0.128743   9.269920  -0.007834  -0.008407  -0.007593  -0.000345
     3  P    0.185142  -0.007834  14.052374  -0.057005   0.015886   0.322923
     4  N   -0.004784  -0.008407  -0.057005   6.724482  -0.016014   0.002091
     5  P    0.156193  -0.007593   0.015886  -0.016014  14.060962   0.000817
     6  H   -0.023319  -0.000345   0.322923   0.002091   0.000817   0.698040
     7  H   -0.029951   0.000697   0.307254  -0.013963   0.000421  -0.028394
     8  H   -0.023290  -0.000351   0.322884   0.002074   0.000819  -0.034610
     9  H   -0.023824  -0.000023   0.000544   0.000176   0.323876   0.000002
    10  H   -0.035574   0.000629   0.000747  -0.002096   0.318006  -0.000001
    11  H   -0.023846  -0.000040   0.000546   0.000177   0.323846  -0.000027
    12  H   -0.026553  -0.000004   0.008644   0.324087   0.005999   0.000473
    13  H   -0.026544  -0.000004   0.008640   0.323956   0.006059  -0.000165
    14  H   -0.016770  -0.000138  -0.002855   0.347645  -0.002520  -0.000896
               7          8          9         10         11         12
     1  Ir  -0.029951  -0.023290  -0.023824  -0.035574  -0.023846  -0.026553
     2  F    0.000697  -0.000351  -0.000023   0.000629  -0.000040  -0.000004
     3  P    0.307254   0.322884   0.000544   0.000747   0.000546   0.008644
     4  N   -0.013963   0.002074   0.000176  -0.002096   0.000177   0.324087
     5  P    0.000421   0.000819   0.323876   0.318006   0.323846   0.005999
     6  H   -0.028394  -0.034610   0.000002  -0.000001  -0.000027   0.000473
     7  H    0.778963  -0.028400  -0.000001  -0.000029  -0.000001  -0.001017
     8  H   -0.028400   0.698107  -0.000027  -0.000001   0.000002  -0.000164
     9  H   -0.000001  -0.000027   0.697866  -0.027826  -0.033263   0.000190
    10  H   -0.000029  -0.000001  -0.027826   0.753139  -0.027846   0.002854
    11  H   -0.000001   0.000002  -0.033263  -0.027846   0.698001  -0.000249
    12  H   -0.001017  -0.000164   0.000190   0.002854  -0.000249   0.464282
    13  H   -0.001018   0.000474  -0.000247   0.002840   0.000191  -0.031206
    14  H    0.018579  -0.000896  -0.000031   0.000277  -0.000031  -0.032153
              13         14
     1  Ir  -0.026544  -0.016770
     2  F   -0.000004  -0.000138
     3  P    0.008640  -0.002855
     4  N    0.323956   0.347645
     5  P    0.006059  -0.002520
     6  H   -0.000165  -0.000896
     7  H   -0.001018   0.018579
     8  H    0.000474  -0.000896
     9  H   -0.000247  -0.000031
    10  H    0.002840   0.000277
    11  H    0.000191  -0.000031
    12  H   -0.031206  -0.032153
    13  H    0.464373  -0.032161
    14  H   -0.032161   0.450934
 Mulliken charges:
               1
     1  Ir   0.238015
     2  F   -0.375249
     3  P   -0.157891
     4  N   -0.622418
     5  P   -0.186758
     6  H    0.063410
     7  H   -0.003140
     8  H    0.063379
     9  H    0.062587
    10  H    0.014881
    11  H    0.062539
    12  H    0.284818
    13  H    0.284812
    14  H    0.271015
 Sum of Mulliken charges =  -0.00000
 Mulliken charges with hydrogens summed into heavy atoms:
               1
     1  Ir   0.238015
     2  F   -0.375249
     3  P   -0.034242
     4  N    0.218227
     5  P   -0.046751
 Electronic spatial extent (au):  <R**2>=           1235.9987
 Charge=             -0.0000 electrons
 Dipole moment (field-independent basis, Debye):
    X=              0.0433    Y=              7.4162    Z=             -0.0000  Tot=              7.4164
 Quadrupole moment (field-independent basis, Debye-Ang):
   XX=            -53.1878   YY=            -63.7165   ZZ=            -68.0117
   XY=              0.1875   XZ=              0.0002   YZ=              0.0002
 Traceless Quadrupole moment (field-independent basis, Debye-Ang):
   XX=              8.4509   YY=             -2.0778   ZZ=             -6.3730
   XY=              0.1875   XZ=              0.0002   YZ=              0.0002
 Octapole moment (field-independent basis, Debye-Ang**2):
  XXX=             -0.8371  YYY=             40.2217  ZZZ=             -0.0016  XYY=              0.0766
  XXY=             -5.5585  XXZ=             -0.0004  XZZ=              0.9747  YZZ=             -0.7036
  YYZ=             -0.0006  XYZ=              0.0011
 Hexadecapole moment (field-independent basis, Debye-Ang**3):
 XXXX=          -1079.6866 YYYY=           -440.9394 ZZZZ=           -132.4220 XXXY=             -0.6949
 XXXZ=              0.0022 YYYX=              0.2026 YYYZ=              0.0002 ZZZX=              0.0042
 ZZZY=             -0.0052 XXYY=           -250.7254 XXZZ=           -200.1554 YYZZ=            -89.3728
 XXYZ=              0.0070 YYXZ=             -0.0037 ZZXY=              2.8990
 N-N= 4.208559353902D+02 E-N=-3.061440861412D+03  KE= 8.764330132052D+02
 ******************************Gaussian NBO Version 3.1******************************
             N A T U R A L   A T O M I C   O R B I T A L   A N D
          N A T U R A L   B O N D   O R B I T A L   A N A L Y S I S
 ******************************Gaussian NBO Version 3.1******************************
       /RESON  / : Allow strongly delocalized NBO set

 Analyzing the SCF density

 Job title: trans-(F)Ir(PH3)2(NH3)                                          

 Storage needed:    113894 in NPA,    151358 in NBO (2147482528 available)
 GSVD:  LWork=       12106 too small for GESVD, short by       37955 words or       37955 for optimal perf.


 NATURAL POPULATIONS:  Natural atomic orbital occupancies 
                                                          
   NAO  Atom  No  lang   Type(AO)    Occupancy      Energy
 ----------------------------------------------------------
     1   Ir    1  S      Cor( 5S)     1.99631      -3.41879
     2   Ir    1  S      Val( 6S)     0.64145       0.55866
     3   Ir    1  S      Ryd( 7S)     0.01163       1.55336
     4   Ir    1  S      Ryd( 8S)     0.00106       3.41082
     5   Ir    1  S      Ryd( 9S)     0.00028      10.94375
     6   Ir    1  S      Ryd(10S)     0.00005     114.47757
     7   Ir    1  px     Cor( 5p)     1.99635      -1.86593
     8   Ir    1  px     Val( 6p)     0.19691       0.32501
     9   Ir    1  px     Ryd( 7p)     0.00077       0.62404
    10   Ir    1  px     Ryd( 8p)     0.00023       1.12651
    11   Ir    1  px     Ryd( 9p)     0.00001      46.78262
    12   Ir    1  py     Cor( 5p)     1.99920      -1.87157
    13   Ir    1  py     Val( 6p)     0.10027       0.25798
    14   Ir    1  py     Ryd( 7p)     0.00158       0.56617
    15   Ir    1  py     Ryd( 8p)     0.00039       1.37791
    16   Ir    1  py     Ryd( 9p)     0.00001      46.83650
    17   Ir    1  pz     Cor( 5p)     1.99708      -1.84170
    18   Ir    1  pz     Val( 6p)     0.05301       0.10335
    19   Ir    1  pz     Ryd( 7p)     0.00023       0.54269
    20   Ir    1  pz     Ryd( 8p)     0.00013       1.11414
    21   Ir    1  pz     Ryd( 9p)     0.00001      46.85498
    22   Ir    1  dxy    Val( 5d)     1.86956      -0.19306
    23   Ir    1  dxy    Ryd( 7d)     0.00326       0.58752
    24   Ir    1  dxy    Ryd( 6d)     0.00164       0.46300
    25   Ir    1  dxz    Val( 5d)     1.83894      -0.16869
    26   Ir    1  dxz    Ryd( 7d)     0.00195       0.58080
    27   Ir    1  dxz    Ryd( 6d)     0.00013       0.41068
    28   Ir    1  dyz    Val( 5d)     1.94562      -0.14922
    29   Ir    1  dyz    Ryd( 7d)     0.00351       0.58296
    30   Ir    1  dyz    Ryd( 6d)     0.00100       0.19112
    31   Ir    1  dx2y2  Val( 5d)     1.02751      -0.22158
    32   Ir    1  dx2y2  Ryd( 6d)     0.00469       0.96713
    33   Ir    1  dx2y2  Ryd( 7d)     0.00074       1.14946
    34   Ir    1  dz2    Val( 5d)     1.77030      -0.15830
    35   Ir    1  dz2    Ryd( 7d)     0.00169       1.14038
    36   Ir    1  dz2    Ryd( 6d)     0.00336       0.66686
 
    37    F    2  S      Cor( 1S)     1.99998     -23.85642
    38    F    2  S      Val( 2S)     1.91221      -1.10822
    39    F    2  S      Ryd( 3S)     0.00023       1.33527
    40    F    2  S      Ryd( 4S)     0.00005       1.73610
    41    F    2  S      Ryd( 5S)     0.00000      66.23074
    42    F    2  px     Val( 2p)     1.98859      -0.22238
    43    F    2  px     Ryd( 3p)     0.00082       0.58994
    44    F    2  px     Ryd( 4p)     0.00039       1.44079
    45    F    2  px     Ryd( 5p)     0.00000       6.29377
    46    F    2  py     Val( 2p)     1.69618      -0.24122
    47    F    2  py     Ryd( 3p)     0.00031       1.36681
    48    F    2  py     Ryd( 4p)     0.00021       1.43623
    49    F    2  py     Ryd( 5p)     0.00001       6.28486
    50    F    2  pz     Val( 2p)     1.95912      -0.22098
    51    F    2  pz     Ryd( 3p)     0.00102       0.55458
    52    F    2  pz     Ryd( 4p)     0.00003       1.28248
    53    F    2  pz     Ryd( 5p)     0.00000       6.27007
    54    F    2  dxy    Ryd( 3d)     0.00015       3.82545
    55    F    2  dxz    Ryd( 3d)     0.00000       3.80844
    56    F    2  dyz    Ryd( 3d)     0.00015       3.81093
    57    F    2  dx2y2  Ryd( 3d)     0.00029       3.85289
    58    F    2  dz2    Ryd( 3d)     0.00011       3.82656
 
    59    P    3  S      Cor( 1S)     2.00000     -75.30559
    60    P    3  S      Cor( 2S)     1.99776      -7.14821
    61    P    3  S      Val( 3S)     1.39572      -0.48080
    62    P    3  S      Ryd( 5S)     0.00604       1.81354
    63    P    3  S      Ryd( 4S)     0.00043       0.80773
    64    P    3  S      Ryd( 6S)     0.00000      13.47808
    65    P    3  S      Ryd( 7S)     0.00000     155.55582
    66    P    3  px     Cor( 2p)     1.99968      -4.53332
    67    P    3  px     Val( 3p)     1.26273      -0.08858
    68    P    3  px     Ryd( 6p)     0.00785       1.67514
    69    P    3  px     Ryd( 4p)     0.00085       0.45907
    70    P    3  px     Ryd( 5p)     0.00007       1.46006
    71    P    3  px     Ryd( 7p)     0.00000      13.44683
    72    P    3  py     Cor( 2p)     1.99987      -4.53854
    73    P    3  py     Val( 3p)     0.97664      -0.14437
    74    P    3  py     Ryd( 5p)     0.00237       0.52596
    75    P    3  py     Ryd( 4p)     0.00066       0.38038
    76    P    3  py     Ryd( 6p)     0.00012       1.23195
    77    P    3  py     Ryd( 7p)     0.00000      13.46673
    78    P    3  pz     Cor( 2p)     1.99989      -4.53764
    79    P    3  pz     Val( 3p)     1.02147      -0.14433
    80    P    3  pz     Ryd( 5p)     0.00146       0.50211
    81    P    3  pz     Ryd( 4p)     0.00048       0.33071
    82    P    3  pz     Ryd( 6p)     0.00005       1.18498
    83    P    3  pz     Ryd( 7p)     0.00000      13.46587
    84    P    3  dxy    Ryd( 3d)     0.00879       0.98068
    85    P    3  dxz    Ryd( 3d)     0.01089       0.96956
    86    P    3  dyz    Ryd( 3d)     0.00253       0.86977
    87    P    3  dx2y2  Ryd( 3d)     0.00220       1.15165
    88    P    3  dz2    Ryd( 3d)     0.00311       1.00401
 
    89    N    4  S      Cor( 1S)     1.99954     -13.87790
    90    N    4  S      Val( 2S)     1.43619      -0.65367
    91    N    4  S      Ryd( 4S)     0.00395       1.79821
    92    N    4  S      Ryd( 3S)     0.00056       1.01757
    93    N    4  S      Ryd( 5S)     0.00000      34.78843
    94    N    4  px     Val( 2p)     1.40488      -0.25597
    95    N    4  px     Ryd( 4p)     0.00192       0.60589
    96    N    4  px     Ryd( 3p)     0.00046       0.42426
    97    N    4  px     Ryd( 5p)     0.00002       3.96369
    98    N    4  py     Val( 2p)     1.60957      -0.26019
    99    N    4  py     Ryd( 4p)     0.00664       1.28913
   100    N    4  py     Ryd( 3p)     0.00035       0.97450
   101    N    4  py     Ryd( 5p)     0.00006       3.77735
   102    N    4  pz     Val( 2p)     1.40278      -0.25285
   103    N    4  pz     Ryd( 4p)     0.00148       0.57219
   104    N    4  pz     Ryd( 3p)     0.00058       0.42698
   105    N    4  pz     Ryd( 5p)     0.00002       3.93969
   106    N    4  dxy    Ryd( 3d)     0.00140       2.39673
   107    N    4  dxz    Ryd( 3d)     0.00034       2.50617
   108    N    4  dyz    Ryd( 3d)     0.00158       2.37413
   109    N    4  dx2y2  Ryd( 3d)     0.00020       2.27028
   110    N    4  dz2    Ryd( 3d)     0.00033       2.44157
 
   111    P    5  S      Cor( 1S)     2.00000     -75.30654
   112    P    5  S      Cor( 2S)     1.99780      -7.14720
   113    P    5  S      Val( 3S)     1.39748      -0.48038
   114    P    5  S      Ryd( 5S)     0.00599       1.77247
   115    P    5  S      Ryd( 4S)     0.00048       0.78962
   116    P    5  S      Ryd( 6S)     0.00000      13.48652
   117    P    5  S      Ryd( 7S)     0.00000     155.55913
   118    P    5  px     Cor( 2p)     1.99968      -4.53291
   119    P    5  px     Val( 3p)     1.26477      -0.08769
   120    P    5  px     Ryd( 6p)     0.00763       1.63773
   121    P    5  px     Ryd( 4p)     0.00088       0.44168
   122    P    5  px     Ryd( 5p)     0.00006       1.43363
   123    P    5  px     Ryd( 7p)     0.00000      13.46267
   124    P    5  py     Cor( 2p)     1.99987      -4.53801
   125    P    5  py     Val( 3p)     0.98119      -0.14379
   126    P    5  py     Ryd( 5p)     0.00246       0.53227
   127    P    5  py     Ryd( 4p)     0.00067       0.37803
   128    P    5  py     Ryd( 6p)     0.00009       1.21721
   129    P    5  py     Ryd( 7p)     0.00000      13.48403
   130    P    5  pz     Cor( 2p)     1.99989      -4.53726
   131    P    5  pz     Val( 3p)     1.02160      -0.14500
   132    P    5  pz     Ryd( 5p)     0.00098       0.50561
   133    P    5  pz     Ryd( 4p)     0.00039       0.32534
   134    P    5  pz     Ryd( 6p)     0.00005       1.16939
   135    P    5  pz     Ryd( 7p)     0.00000      13.47956
   136    P    5  dxy    Ryd( 3d)     0.00909       0.98582
   137    P    5  dxz    Ryd( 3d)     0.01059       0.96252
   138    P    5  dyz    Ryd( 3d)     0.00253       0.87874
   139    P    5  dx2y2  Ryd( 3d)     0.00201       1.15199
   140    P    5  dz2    Ryd( 3d)     0.00306       0.99355
 
   141    H    6  S      Val( 1S)     0.95980      -0.12768
   142    H    6  S      Ryd( 2S)     0.00191       0.58852
   143    H    6  S      Ryd( 3S)     0.00014       2.08615
   144    H    6  px     Ryd( 2p)     0.00065       1.57626
   145    H    6  py     Ryd( 2p)     0.00067       1.50719
   146    H    6  pz     Ryd( 2p)     0.00140       1.76315
 
   147    H    7  S      Val( 1S)     1.00039      -0.15098
   148    H    7  S      Ryd( 2S)     0.00178       0.57771
   149    H    7  S      Ryd( 3S)     0.00013       2.07246
   150    H    7  px     Ryd( 2p)     0.00078       1.56057
   151    H    7  py     Ryd( 2p)     0.00161       1.86505
   152    H    7  pz     Ryd( 2p)     0.00027       1.37080
 
   153    H    8  S      Val( 1S)     0.95982      -0.12769
   154    H    8  S      Ryd( 2S)     0.00191       0.58859
   155    H    8  S      Ryd( 3S)     0.00014       2.08614
   156    H    8  px     Ryd( 2p)     0.00065       1.57633
   157    H    8  py     Ryd( 2p)     0.00066       1.50675
   158    H    8  pz     Ryd( 2p)     0.00140       1.76348
 
   159    H    9  S      Val( 1S)     0.95939      -0.12767
   160    H    9  S      Ryd( 2S)     0.00191       0.58969
   161    H    9  S      Ryd( 3S)     0.00013       2.08173
   162    H    9  px     Ryd( 2p)     0.00061       1.57212
   163    H    9  py     Ryd( 2p)     0.00068       1.51297
   164    H    9  pz     Ryd( 2p)     0.00140       1.75958
 
   165    H   10  S      Val( 1S)     0.99290      -0.14703
   166    H   10  S      Ryd( 2S)     0.00139       0.57721
   167    H   10  S      Ryd( 3S)     0.00014       2.05753
   168    H   10  px     Ryd( 2p)     0.00074       1.57491
   169    H   10  py     Ryd( 2p)     0.00161       1.86493
   170    H   10  pz     Ryd( 2p)     0.00026       1.37148
 
   171    H   11  S      Val( 1S)     0.95944      -0.12768
   172    H   11  S      Ryd( 2S)     0.00191       0.58974
   173    H   11  S      Ryd( 3S)     0.00013       2.08175
   174    H   11  px     Ryd( 2p)     0.00061       1.57214
   175    H   11  py     Ryd( 2p)     0.00068       1.51217
   176    H   11  pz     Ryd( 2p)     0.00141       1.76035
 
   177    H   12  S      Val( 1S)     0.60464       0.03133
   178    H   12  S      Ryd( 2S)     0.00188       0.84412
   179    H   12  S      Ryd( 3S)     0.00018       1.84966
   180    H   12  px     Ryd( 2p)     0.00033       1.79886
   181    H   12  py     Ryd( 2p)     0.00030       1.72126
   182    H   12  pz     Ryd( 2p)     0.00035       2.21129
 
   183    H   13  S      Val( 1S)     0.60464       0.03134
   184    H   13  S      Ryd( 2S)     0.00188       0.84378
   185    H   13  S      Ryd( 3S)     0.00018       1.85005
   186    H   13  px     Ryd( 2p)     0.00033       1.79806
   187    H   13  py     Ryd( 2p)     0.00030       1.72130
   188    H   13  pz     Ryd( 2p)     0.00035       2.21207
 
   189    H   14  S      Val( 1S)     0.60830       0.02606
   190    H   14  S      Ryd( 2S)     0.00115       1.06623
   191    H   14  S      Ryd( 3S)     0.00014       1.68506
   192    H   14  px     Ryd( 2p)     0.00038       2.39594
   193    H   14  py     Ryd( 2p)     0.00031       1.76770
   194    H   14  pz     Ryd( 2p)     0.00036       1.58333

 [ 60 electrons found in the effective core potential]

 WARNING:  3 low occupancy (<1.9990e) core orbitals found on Ir    1
           1 low occupancy (<1.9990e) core orbital  found on  P    3
           1 low occupancy (<1.9990e) core orbital  found on  P    5

 WARNING:  Population inversion found on atom Ir    1
           Population inversion found on atom  P    3
           Population inversion found on atom  N    4
           Population inversion found on atom  P    5


 Summary of Natural Population Analysis:                  
                                                          
                                       Natural Population 
                Natural  -----------------------------------------------
    Atom  No    Charge         Core      Valence    Rydberg      Total
 -----------------------------------------------------------------------
     Ir    1   -0.47086     67.98895     9.44358    0.03834    77.47086
      F    2   -0.55984      1.99998     7.55610    0.00376     9.55984
      P    3    0.29831      9.99721     4.65657    0.04791    14.70169
      N    4   -0.87284      1.99954     5.85342    0.01988     7.87284
      P    5    0.29075      9.99725     4.66504    0.04697    14.70925
      H    6    0.03543      0.00000     0.95980    0.00477     0.96457
      H    7   -0.00496      0.00000     1.00039    0.00457     1.00496
      H    8    0.03541      0.00000     0.95982    0.00477     0.96459
      H    9    0.03587      0.00000     0.95939    0.00475     0.96413
      H   10    0.00295      0.00000     0.99290    0.00415     0.99705
      H   11    0.03581      0.00000     0.95944    0.00475     0.96419
      H   12    0.39232      0.00000     0.60464    0.00304     0.60768
      H   13    0.39232      0.00000     0.60464    0.00304     0.60768
      H   14    0.38935      0.00000     0.60830    0.00235     0.61065
 =======================================================================
   * Total *   -0.00000     91.98292    39.82403    0.19305   132.00000

                                 Natural Population      
 --------------------------------------------------------
   Effective Core            60.00000
   Core                      31.98292 ( 99.9466% of  32)
   Valence                   39.82403 ( 99.5601% of  40)
   Natural Minimal Basis    131.80695 ( 99.8537% of 132)
   Natural Rydberg Basis      0.19305 (  0.1463% of 132)
 --------------------------------------------------------

    Atom  No          Natural Electron Configuration
 ----------------------------------------------------------------------------
     Ir    1      [core]6S( 0.64)5d( 8.45)6p( 0.35)7S( 0.01)6d( 0.01)
      F    2      [core]2S( 1.91)2p( 5.64)
      P    3      [core]3S( 1.40)3p( 3.26)3d( 0.03)5S( 0.01)6p( 0.01)
      N    4      [core]2S( 1.44)2p( 4.42)4p( 0.01)
      P    5      [core]3S( 1.40)3p( 3.27)3d( 0.03)5S( 0.01)6p( 0.01)
      H    6            1S( 0.96)
      H    7            1S( 1.00)
      H    8            1S( 0.96)
      H    9            1S( 0.96)
      H   10            1S( 0.99)
      H   11            1S( 0.96)
      H   12            1S( 0.60)
      H   13            1S( 0.60)
      H   14            1S( 0.61)


 NATURAL BOND ORBITAL ANALYSIS:

                       Occupancies       Lewis Structure    Low   High
           Occ.    -------------------  -----------------   occ   occ
  Cycle   Thresh.   Lewis   Non-Lewis     CR  BD  3C  LP    (L)   (NL)   Dev
 =============================================================================
   1(1)    1.90   130.25175   1.74825     16  15   0   5     7      6    0.12
   2(2)    1.90   131.00691   0.99309     16  13   0   7     5      4    0.12
   3(3)    1.90   131.00691   0.99309     16  13   0   7     5      4    0.12
   4(1)    1.80   131.01893   0.98107     16  13   0   7     0      4    0.12
   5(2)    1.80   131.01893   0.98107     16  13   0   7     0      4    0.12
   6(1)    1.70   131.01893   0.98107     16  13   0   7     0      4    0.12
   7(2)    1.70   131.01893   0.98107     16  13   0   7     0      4    0.12
   8(1)    1.60   130.51746   1.48254     16  11   0   9     0      3    0.59
   9(2)    1.60   130.51746   1.48254     16  11   0   9     0      3    0.59
  10(1)    1.50   130.51746   1.48254     16  11   0   9     0      3    0.59
  11(2)    1.50   130.51746   1.48254     16  11   0   9     0      3    0.59
  12(1)    1.80   131.01893   0.98107     16  13   0   7     0      4    0.12
 -----------------------------------------------------------------------------

 Structure accepted: RESONANCE keyword permits strongly delocalized structure

 WARNING:  3 low occupancy (<1.9990e) core orbitals found on Ir    1
           1 low occupancy (<1.9990e) core orbital  found on  P    3
           1 low occupancy (<1.9990e) core orbital  found on  P    5

 --------------------------------------------------------
   Effective Core           60.00000
   Core                     31.98304 ( 99.947% of  32)
   Valence Lewis            39.03589 ( 97.590% of  40)
  ==================       ============================
   Total Lewis             131.01893 ( 99.257% of 132)
  -----------------------------------------------------
   Valence non-Lewis         0.86799 (  0.658% of 132)
   Rydberg non-Lewis         0.11308 (  0.086% of 132)
  ==================       ============================
   Total non-Lewis           0.98107 (  0.743% of 132)
 --------------------------------------------------------


       (Occupancy)   Bond orbital/ Coefficients/ Hybrids
 ---------------------------------------------------------------------------------
     1. (1.89703) BD ( 1)Ir   1 - F   2  
                ( 14.82%)   0.3849*Ir   1 s( 17.05%)p 2.64( 45.08%)d 2.22( 37.87%)
                                           -0.0008  0.4098  0.0365  0.0312 -0.0170
                                           -0.0057 -0.0000  0.0025  0.0012  0.0003
                                            0.0001  0.0011 -0.6696  0.0473 -0.0114
                                           -0.0032 -0.0000  0.0000 -0.0000 -0.0000
                                           -0.0000 -0.0037 -0.0008  0.0013 -0.0000
                                            0.0000  0.0000  0.0000 -0.0000  0.0000
                                           -0.5679  0.0058 -0.0619 -0.2272 -0.0075
                                           -0.0237
                ( 85.18%)   0.9230* F   2 s( 18.68%)p 4.35( 81.29%)d 0.00(  0.03%)
                                            0.0000  0.4322 -0.0063 -0.0004 -0.0002
                                            0.0006 -0.0000  0.0001 -0.0000  0.9015
                                           -0.0080 -0.0085 -0.0005 -0.0000  0.0000
                                            0.0000  0.0000 -0.0000  0.0000 -0.0000
                                           -0.0137 -0.0082
     2. (1.88371) BD ( 1)Ir   1 - P   3  
                ( 23.63%)   0.4861*Ir   1 s( 31.78%)p 1.56( 49.72%)d 0.58( 18.50%)
                                           -0.0005  0.5627  0.0345 -0.0031 -0.0032
                                           -0.0002 -0.0006 -0.7048  0.0152  0.0012
                                           -0.0016 -0.0002  0.0067  0.0091  0.0009
                                            0.0002  0.0000 -0.0000 -0.0000 -0.0000
                                            0.0000  0.0276 -0.0184 -0.0075  0.0000
                                            0.0000  0.0000 -0.0000 -0.0000 -0.0000
                                            0.4228  0.0304  0.0008 -0.0625 -0.0165
                                            0.0069
                ( 76.37%)   0.8739* P   3 s( 39.94%)p 1.50( 60.02%)d 0.00(  0.05%)
                                           -0.0000  0.0003  0.6318  0.0081 -0.0103
                                           -0.0000  0.0000  0.0001  0.7735 -0.0384
                                           -0.0158  0.0019 -0.0007  0.0000  0.0015
                                           -0.0087 -0.0008  0.0003  0.0001  0.0000
                                           -0.0001 -0.0000  0.0000  0.0000  0.0000
                                            0.0017 -0.0000 -0.0000  0.0201 -0.0085
     3. (1.90598) BD ( 1)Ir   1 - N   4  
                ( 14.43%)   0.3798*Ir   1 s( 12.58%)p 4.24( 53.38%)d 2.71( 34.04%)
                                            0.0003 -0.3508 -0.0404  0.0213 -0.0228
                                           -0.0102 -0.0001  0.0036  0.0013  0.0002
                                            0.0002  0.0012 -0.7299  0.0317 -0.0055
                                           -0.0047  0.0000  0.0000 -0.0000 -0.0000
                                           -0.0000  0.0032 -0.0015  0.0002  0.0000
                                            0.0000  0.0000  0.0000 -0.0000  0.0000
                                            0.5237 -0.0406 -0.0690  0.2378 -0.0466
                                           -0.0327
                ( 85.57%)   0.9251* N   4 s( 31.23%)p 2.20( 68.77%)d 0.00(  0.00%)
                                           -0.0001 -0.5586  0.0104  0.0099 -0.0001
                                            0.0081 -0.0007 -0.0003  0.0002  0.8282
                                            0.0400 -0.0097  0.0006  0.0000  0.0000
                                            0.0000 -0.0000  0.0001 -0.0000  0.0000
                                           -0.0030 -0.0018
     4. (1.88538) BD ( 1)Ir   1 - P   5  
                ( 23.52%)   0.4850*Ir   1 s( 31.55%)p 1.59( 50.13%)d 0.58( 18.32%)
                                           -0.0006  0.5606  0.0347 -0.0033 -0.0030
                                           -0.0005  0.0007  0.7077 -0.0142 -0.0008
                                            0.0015 -0.0002  0.0127  0.0082 -0.0004
                                            0.0003 -0.0000  0.0000 -0.0000  0.0000
                                           -0.0000 -0.0175  0.0196  0.0088  0.0000
                                            0.0000  0.0000 -0.0000  0.0000  0.0000
                                            0.4209  0.0306  0.0001 -0.0631 -0.0164
                                            0.0080
                ( 76.48%)   0.8745* P   5 s( 39.89%)p 1.51( 60.07%)d 0.00(  0.05%)
                                           -0.0000  0.0003  0.6314  0.0075 -0.0100
                                           -0.0001 -0.0000 -0.0001 -0.7738  0.0384
                                            0.0153 -0.0018  0.0006  0.0000  0.0137
                                           -0.0086 -0.0004  0.0001  0.0001 -0.0000
                                            0.0000  0.0000 -0.0000 -0.0000 -0.0000
                                           -0.0016 -0.0000 -0.0000  0.0199 -0.0080
     5. (1.98756) BD ( 1) P   3 - H   6  
                ( 53.28%)   0.7299* P   3 s( 20.57%)p 3.84( 78.96%)d 0.02(  0.47%)
                                            0.0000  0.0004 -0.4534  0.0094 -0.0072
                                            0.0001  0.0000  0.0002  0.3694 -0.0025
                                            0.0081 -0.0000  0.0007 -0.0000  0.3959
                                            0.0098  0.0015 -0.0006 -0.0002  0.0001
                                           -0.7042 -0.0152 -0.0080 -0.0013  0.0000
                                           -0.0267  0.0512  0.0305 -0.0062 -0.0202
                ( 46.72%)   0.6836* H   6 s( 99.81%)p 0.00(  0.19%)
                                           -0.9990 -0.0088  0.0007 -0.0202 -0.0197
                                            0.0329
     6. (1.98687) BD ( 1) P   3 - H   7  
                ( 50.79%)   0.7127* P   3 s( 18.86%)p 4.28( 80.63%)d 0.03(  0.51%)
                                            0.0000  0.0005 -0.4342  0.0030 -0.0059
                                           -0.0002 -0.0000  0.0003  0.3559  0.0095
                                            0.0064 -0.0032  0.0003  0.0000 -0.8241
                                           -0.0209 -0.0025  0.0005  0.0005  0.0000
                                           -0.0005 -0.0000 -0.0000  0.0000  0.0000
                                            0.0548  0.0000 -0.0001  0.0314  0.0331
                ( 49.21%)   0.7015* H   7 s( 99.82%)p 0.00(  0.18%)
                                           -0.9991 -0.0076  0.0005 -0.0236  0.0357
                                            0.0000
     7. (1.98756) BD ( 1) P   3 - H   8  
                ( 53.28%)   0.7299* P   3 s( 20.57%)p 3.84( 78.96%)d 0.02(  0.47%)
                                            0.0000  0.0004 -0.4534  0.0094 -0.0072
                                            0.0001  0.0000  0.0002  0.3696 -0.0024
                                            0.0081 -0.0000  0.0007 -0.0000  0.3951
                                            0.0098  0.0015 -0.0006 -0.0002 -0.0001
                                            0.7045  0.0152  0.0080  0.0013 -0.0000
                                           -0.0266 -0.0512 -0.0304 -0.0063 -0.0202
                ( 46.72%)   0.6836* H   8 s( 99.81%)p 0.00(  0.19%)
                                           -0.9990 -0.0088  0.0007 -0.0203 -0.0197
                                           -0.0329
     8. (1.99470) BD ( 1) N   4 - H  12  
                ( 70.26%)   0.8382* N   4 s( 22.88%)p 3.37( 77.06%)d 0.00(  0.07%)
                                           -0.0002  0.4782  0.0051  0.0056 -0.0000
                                            0.4122 -0.0069  0.0009  0.0006  0.3185
                                           -0.0019  0.0040 -0.0031  0.7062 -0.0195
                                            0.0025  0.0010  0.0109  0.0109  0.0195
                                           -0.0000  0.0073
                ( 29.74%)   0.5453* H  12 s( 99.95%)p 0.00(  0.05%)
                                            0.9997  0.0072 -0.0005 -0.0104 -0.0003
                                           -0.0197
     9. (1.99470) BD ( 1) N   4 - H  13  
                ( 70.26%)   0.8382* N   4 s( 22.88%)p 3.37( 77.06%)d 0.00(  0.07%)
                                           -0.0002  0.4782  0.0051  0.0056 -0.0000
                                            0.4113 -0.0069  0.0009  0.0006  0.3185
                                           -0.0019  0.0040 -0.0031 -0.7067  0.0195
                                           -0.0025 -0.0010  0.0109 -0.0109 -0.0196
                                           -0.0000  0.0074
                ( 29.74%)   0.5453* H  13 s( 99.95%)p 0.00(  0.05%)
                                            0.9997  0.0072 -0.0005 -0.0104 -0.0003
                                            0.0197
    10. (1.99539) BD ( 1) N   4 - H  14  
                ( 69.99%)   0.8366* N   4 s( 22.97%)p 3.35( 76.97%)d 0.00(  0.07%)
                                            0.0001 -0.4792 -0.0011 -0.0048  0.0000
                                            0.8121 -0.0132  0.0018  0.0014 -0.3314
                                            0.0045 -0.0062  0.0032 -0.0005  0.0000
                                           -0.0000 -0.0000  0.0229  0.0000 -0.0000
                                           -0.0084  0.0095
                ( 30.01%)   0.5478* H  14 s( 99.95%)p 0.00(  0.05%)
                                           -0.9997 -0.0052  0.0003 -0.0221  0.0019
                                            0.0000
    11. (1.98781) BD ( 1) P   5 - H   9  
                ( 53.27%)   0.7299* P   5 s( 20.50%)p 3.86( 79.04%)d 0.02(  0.47%)
                                           -0.0000 -0.0004  0.4526 -0.0089  0.0071
                                           -0.0001 -0.0000  0.0002  0.3621 -0.0020
                                            0.0081 -0.0003  0.0007  0.0000 -0.4039
                                           -0.0098 -0.0016  0.0007  0.0002  0.0001
                                           -0.7040 -0.0150 -0.0075 -0.0015  0.0001
                                           -0.0270 -0.0504  0.0314  0.0052  0.0200
                ( 46.73%)   0.6836* H   9 s( 99.81%)p 0.00(  0.19%)
                                            0.9990  0.0088 -0.0007 -0.0197  0.0202
                                            0.0328
    12. (1.98764) BD ( 1) P   5 - H  10  
                ( 51.14%)   0.7151* P   5 s( 19.05%)p 4.22( 80.45%)d 0.03(  0.50%)
                                           -0.0000 -0.0005  0.4364 -0.0024  0.0066
                                            0.0003  0.0000  0.0003  0.3703  0.0078
                                            0.0064 -0.0024  0.0002 -0.0000  0.8166
                                            0.0210  0.0029 -0.0008 -0.0004  0.0000
                                           -0.0008 -0.0000 -0.0000  0.0000  0.0000
                                            0.0556 -0.0001 -0.0001 -0.0288 -0.0325
                ( 48.86%)   0.6990* H  10 s( 99.82%)p 0.00(  0.18%)
                                            0.9991  0.0067 -0.0006 -0.0233 -0.0356
                                            0.0000
    13. (1.98781) BD ( 1) P   5 - H  11  
                ( 53.27%)   0.7299* P   5 s( 20.50%)p 3.86( 79.04%)d 0.02(  0.47%)
                                           -0.0000 -0.0004  0.4526 -0.0089  0.0071
                                           -0.0001 -0.0000  0.0002  0.3622 -0.0019
                                            0.0081 -0.0003  0.0007  0.0000 -0.4025
                                           -0.0098 -0.0015  0.0007  0.0002 -0.0001
                                            0.7048  0.0150  0.0075  0.0015 -0.0001
                                           -0.0269  0.0504 -0.0313  0.0053  0.0201
                ( 46.73%)   0.6836* H  11 s( 99.81%)p 0.00(  0.19%)
                                            0.9990  0.0088 -0.0007 -0.0197  0.0202
                                           -0.0328
    14. (1.99633) CR ( 1)Ir   1           s(100.00%)p 0.00(  0.00%)d 0.00(  0.00%)
                                            1.0000  0.0013  0.0000  0.0000 -0.0000
                                           -0.0000  0.0000  0.0001  0.0000  0.0000
                                           -0.0000 -0.0000 -0.0003  0.0001 -0.0000
                                           -0.0000 -0.0000  0.0000 -0.0000 -0.0000
                                            0.0000  0.0000  0.0000  0.0000 -0.0000
                                            0.0000  0.0000  0.0000 -0.0000  0.0000
                                           -0.0004  0.0000 -0.0000  0.0007 -0.0000
                                            0.0000
    15. (1.99645) CR ( 2)Ir   1           s(  0.00%)p 1.00(100.00%)
                                            0.0000 -0.0000  0.0000  0.0000 -0.0000
                                           -0.0000  1.0000 -0.0009  0.0000  0.0000
                                           -0.0000  0.0000 -0.0001  0.0000 -0.0000
                                           -0.0000  0.0000 -0.0000 -0.0000 -0.0000
                                            0.0000  0.0001 -0.0000 -0.0000  0.0000
                                           -0.0000 -0.0000 -0.0000  0.0000  0.0000
                                            0.0000 -0.0000 -0.0000 -0.0001 -0.0000
                                           -0.0000
    16. (1.99919) CR ( 3)Ir   1           s(  0.00%)p 1.00(100.00%)d 0.00(  0.00%)
                                           -0.0000  0.0003 -0.0000 -0.0001  0.0000
                                            0.0000  0.0000  0.0000 -0.0000  0.0000
                                           -0.0000  1.0000  0.0016 -0.0001  0.0000
                                            0.0000 -0.0000  0.0000  0.0000  0.0000
                                            0.0000  0.0000  0.0000 -0.0000 -0.0000
                                            0.0000  0.0000  0.0000  0.0000 -0.0000
                                            0.0000  0.0000  0.0002  0.0005  0.0001
                                            0.0001
    17. (1.99706) CR ( 4)Ir   1           s(  0.00%)p 1.00(100.00%)d 0.00(  0.00%)
                                           -0.0000 -0.0000  0.0000 -0.0000 -0.0000
                                            0.0000  0.0000  0.0000 -0.0000 -0.0000
                                            0.0000 -0.0000  0.0000  0.0000  0.0000
                                           -0.0000  1.0000  0.0001  0.0000  0.0000
                                           -0.0000 -0.0000 -0.0000 -0.0000 -0.0002
                                            0.0000 -0.0000  0.0015 -0.0001 -0.0000
                                            0.0000  0.0000  0.0000 -0.0000  0.0000
                                           -0.0000
    18. (1.99998) CR ( 1) F   2           s(100.00%)
                                            1.0000  0.0001  0.0000  0.0000  0.0000
                                           -0.0000 -0.0000 -0.0000  0.0000 -0.0001
                                            0.0000 -0.0000 -0.0000 -0.0000 -0.0000
                                           -0.0000  0.0000 -0.0000  0.0000 -0.0000
                                            0.0000  0.0000
    19. (2.00000) CR ( 1) P   3           s(100.00%)
                                            1.0000 -0.0000  0.0000 -0.0000  0.0000
                                            0.0000  0.0000 -0.0000 -0.0000 -0.0000
                                           -0.0000  0.0000 -0.0000  0.0000  0.0000
                                           -0.0000 -0.0000  0.0000  0.0000  0.0000
                                            0.0000  0.0000  0.0000  0.0000  0.0000
                                           -0.0000 -0.0000  0.0000 -0.0000 -0.0000
    20. (1.99778) CR ( 2) P   3           s(100.00%)p 0.00(  0.00%)
                                           -0.0000  1.0000  0.0004 -0.0000  0.0000
                                            0.0000  0.0000 -0.0000 -0.0007  0.0000
                                           -0.0000  0.0000 -0.0000  0.0000  0.0001
                                            0.0000  0.0000  0.0000 -0.0000  0.0000
                                            0.0000  0.0000 -0.0000 -0.0000 -0.0000
                                           -0.0000 -0.0000  0.0000 -0.0000  0.0000
    21. (1.99968) CR ( 3) P   3           s(  0.00%)p 1.00(100.00%)
                                           -0.0000 -0.0000  0.0003 -0.0000  0.0000
                                            0.0000  0.0000  1.0000 -0.0003  0.0000
                                           -0.0000  0.0000 -0.0000  0.0000  0.0000
                                            0.0000  0.0000  0.0000 -0.0000  0.0000
                                            0.0000  0.0000  0.0000 -0.0000  0.0000
                                           -0.0000 -0.0000  0.0000 -0.0000  0.0000
    22. (1.99987) CR ( 4) P   3           s(  0.00%)p 1.00(100.00%)
                                            0.0000  0.0000 -0.0000  0.0000 -0.0000
                                            0.0000  0.0000  0.0000  0.0000 -0.0000
                                            0.0000  0.0000  0.0000  1.0000  0.0000
                                            0.0000  0.0000 -0.0000 -0.0000  0.0000
                                           -0.0000  0.0000 -0.0000 -0.0000 -0.0000
                                           -0.0000  0.0000  0.0000 -0.0000 -0.0000
    23. (1.99989) CR ( 5) P   3           s(  0.00%)p 1.00(100.00%)
                                            0.0000  0.0000 -0.0000  0.0000 -0.0000
                                            0.0000 -0.0000  0.0000  0.0000  0.0000
                                            0.0000 -0.0000  0.0000  0.0000 -0.0000
                                            0.0000 -0.0000 -0.0000 -0.0000  1.0000
                                            0.0001  0.0000  0.0000  0.0000 -0.0000
                                            0.0000 -0.0000 -0.0000 -0.0000 -0.0000
    24. (1.99954) CR ( 1) N   4           s(100.00%)p 0.00(  0.00%)
                                            1.0000  0.0002  0.0000  0.0000 -0.0000
                                            0.0000 -0.0000  0.0000  0.0000  0.0002
                                            0.0000  0.0000 -0.0000 -0.0000  0.0000
                                           -0.0000 -0.0000  0.0000 -0.0000 -0.0000
                                            0.0000  0.0000
    25. (2.00000) CR ( 1) P   5           s(100.00%)
                                            1.0000 -0.0000  0.0000 -0.0000  0.0000
                                            0.0000 -0.0000  0.0000  0.0000  0.0000
                                            0.0000 -0.0000  0.0000  0.0000 -0.0000
                                           -0.0000 -0.0000  0.0000  0.0000 -0.0000
                                            0.0000  0.0000  0.0000 -0.0000 -0.0000
                                           -0.0000  0.0000  0.0000 -0.0000  0.0000
    26. (1.99781) CR ( 2) P   5           s(100.00%)p 0.00(  0.00%)
                                           -0.0000  1.0000  0.0004 -0.0000  0.0000
                                            0.0000  0.0000  0.0000  0.0007 -0.0000
                                            0.0000 -0.0000  0.0000  0.0000  0.0001
                                            0.0000  0.0000  0.0000 -0.0000  0.0000
                                           -0.0000 -0.0000  0.0000  0.0000  0.0000
                                            0.0000 -0.0000 -0.0000 -0.0000  0.0000
    27. (1.99969) CR ( 3) P   5           s(  0.00%)p 1.00(100.00%)
                                           -0.0000 -0.0000  0.0003 -0.0000  0.0000
                                            0.0000  0.0000 -1.0000  0.0003 -0.0000
                                            0.0000 -0.0000  0.0000  0.0000  0.0000
                                            0.0000  0.0000  0.0000 -0.0000  0.0000
                                           -0.0000 -0.0000  0.0000  0.0000  0.0000
                                            0.0000 -0.0000 -0.0000 -0.0000  0.0000
    28. (1.99987) CR ( 4) P   5           s(  0.00%)p 1.00(100.00%)
                                            0.0000  0.0000 -0.0000  0.0000 -0.0000
                                            0.0000  0.0000 -0.0000  0.0000 -0.0000
                                           -0.0000 -0.0000 -0.0000  1.0000  0.0001
                                            0.0000  0.0000 -0.0000 -0.0000 -0.0000
                                            0.0000 -0.0000  0.0000  0.0000  0.0000
                                            0.0000  0.0000 -0.0000 -0.0000 -0.0000
    29. (1.99989) CR ( 5) P   5           s(  0.00%)p 1.00(100.00%)
                                           -0.0000  0.0000  0.0000  0.0000  0.0000
                                           -0.0000 -0.0000 -0.0000 -0.0000  0.0000
                                            0.0000 -0.0000  0.0000 -0.0000  0.0000
                                           -0.0000  0.0000  0.0000  0.0000  1.0000
                                            0.0001  0.0000  0.0000  0.0000 -0.0000
                                            0.0000  0.0000 -0.0000  0.0000  0.0000
    30. (1.96387) LP ( 1)Ir   1           s(  0.00%)p 1.00(  0.79%)d99.99( 99.21%)
                                           -0.0000  0.0000 -0.0000  0.0000 -0.0000
                                           -0.0000  0.0000 -0.0000 -0.0000 -0.0000
                                            0.0000 -0.0000  0.0000  0.0000  0.0000
                                           -0.0000 -0.0015  0.0881  0.0089  0.0037
                                           -0.0008 -0.0003 -0.0000 -0.0000  0.0518
                                            0.0018 -0.0026  0.9940 -0.0357 -0.0086
                                            0.0000  0.0000 -0.0000 -0.0000 -0.0000
                                            0.0000
    31. (1.95293) LP ( 2)Ir   1           s(  7.73%)p 0.01(  0.10%)d11.93( 92.18%)
                                           -0.0011  0.2700 -0.0661  0.0028  0.0017
                                            0.0001  0.0001  0.0007  0.0016  0.0016
                                           -0.0002 -0.0006  0.0260  0.0164  0.0041
                                            0.0008  0.0000 -0.0000 -0.0000 -0.0000
                                            0.0000  0.0094  0.0019  0.0010  0.0002
                                            0.0000  0.0000  0.0000 -0.0000  0.0000
                                           -0.2142 -0.0357 -0.0026  0.9343 -0.0040
                                            0.0396
    32. (1.87363) LP ( 3)Ir   1           s(  0.00%)p 1.00(  0.10%)d99.99( 99.90%)
                                            0.0000  0.0054 -0.0001  0.0002 -0.0004
                                           -0.0004  0.0000 -0.0315  0.0004 -0.0015
                                            0.0014  0.0000  0.0004  0.0014  0.0010
                                           -0.0000  0.0000 -0.0000 -0.0000 -0.0000
                                            0.0000 -0.9988 -0.0230  0.0275 -0.0001
                                           -0.0000  0.0000 -0.0003  0.0000 -0.0000
                                            0.0061  0.0008  0.0001  0.0097 -0.0005
                                            0.0030
    33. (1.83878) LP ( 4)Ir   1           s(  0.00%)p 0.00(  0.00%)d 1.00(100.00%)
                                            0.0000 -0.0001  0.0000  0.0000 -0.0000
                                            0.0000 -0.0000 -0.0000 -0.0000  0.0000
                                            0.0000  0.0000 -0.0000 -0.0000 -0.0000
                                            0.0000  0.0003 -0.0048  0.0007  0.0011
                                           -0.0001 -0.0001  0.0000  0.0000  0.9986
                                            0.0091 -0.0008 -0.0515  0.0046  0.0015
                                           -0.0000  0.0000 -0.0000 -0.0002 -0.0000
                                           -0.0000
    34. (0.03877) LP*( 5)Ir   1           s(  0.00%)p 1.00( 97.45%)d 0.03(  2.55%)
                                           -0.0000  0.0000 -0.0000 -0.0000 -0.0000
                                           -0.0000 -0.0000 -0.0000 -0.0000 -0.0000
                                           -0.0000  0.0000  0.0000  0.0000  0.0000
                                           -0.0000  0.0000  0.9859  0.0299  0.0389
                                           -0.0101  0.0000 -0.0000  0.0000  0.0002
                                            0.0037 -0.0004 -0.0887 -0.0522  0.1221
                                            0.0000  0.0000  0.0000  0.0000  0.0000
                                            0.0000
    35. (1.98877) LP ( 1) F   2           s(  0.00%)p 1.00( 99.99%)d 0.00(  0.01%)
                                            0.0000  0.0008  0.0001  0.0001 -0.0000
                                            1.0000  0.0055  0.0023 -0.0001 -0.0010
                                            0.0001  0.0000  0.0000 -0.0001  0.0000
                                           -0.0000  0.0000  0.0072  0.0000 -0.0000
                                            0.0000  0.0000
    36. (1.97658) LP ( 2) F   2           s( 81.31%)p 0.23( 18.69%)d 0.00(  0.00%)
                                           -0.0001  0.9017  0.0026  0.0005  0.0001
                                           -0.0011 -0.0001 -0.0000 -0.0000 -0.4323
                                            0.0012 -0.0041 -0.0015 -0.0000  0.0000
                                           -0.0000  0.0000  0.0000  0.0000 -0.0000
                                            0.0011  0.0007
    37. (1.95923) LP ( 3) F   2           s(  0.00%)p 1.00( 99.99%)d 0.00(  0.01%)
                                            0.0000  0.0000 -0.0000 -0.0000  0.0000
                                            0.0001  0.0000  0.0000 -0.0000 -0.0000
                                           -0.0000 -0.0000 -0.0000  1.0000 -0.0007
                                            0.0024 -0.0002  0.0000  0.0000  0.0071
                                            0.0000  0.0000
    38. (0.00262) RY*( 1)Ir   1           s( 26.81%)p 1.41( 37.78%)d 1.32( 35.41%)
                                           -0.0000 -0.0226 -0.0087  0.4959 -0.1438
                                           -0.0312 -0.0000  0.0055  0.0396 -0.0080
                                            0.0044  0.0000  0.0895  0.5004 -0.3418
                                           -0.0293  0.0000  0.0000 -0.0000 -0.0000
                                           -0.0000  0.0052 -0.1935  0.0196 -0.0000
                                            0.0001  0.0000 -0.0000 -0.0001 -0.0001
                                            0.0078  0.3137 -0.4332  0.0142  0.0995
                                           -0.1414
    39. (0.00222) RY*( 2)Ir   1           s(  1.70%)p 2.46(  4.19%)d55.21( 94.11%)
                                           -0.0000 -0.0058  0.0282  0.1203 -0.0416
                                            0.0016 -0.0000 -0.0299 -0.1461  0.0943
[...]
 !       B10         1.431    -DE/DX =    0.0                           !
 !       B11         1.0275   -DE/DX =    0.0                           !
 !       B12         1.0275   -DE/DX =    0.0                           !
 !       B13         1.0268   -DE/DX =    0.0                           !
 !       A4        120.7094   -DE/DX =    0.0                           !
 !       A5        118.787    -DE/DX =    0.0                           !
 !       A6        120.7096   -DE/DX =    0.0                           !
 !       A7        120.1137   -DE/DX =    0.0                           !
 !       A8        120.1382   -DE/DX =    0.0                           !
 !       A9        120.1133   -DE/DX =    0.0                           !
 !       A10       111.6108   -DE/DX =    0.0                           !
 !       A11       111.6088   -DE/DX =    0.0                           !
 !       A12       112.9616   -DE/DX =    0.0                           !
 !       D3         60.7779   -DE/DX =    0.0                           !
 !       D4        119.2139   -DE/DX =    0.0                           !
 !       D5        119.2137   -DE/DX =    0.0                           !
 !       D6       -119.9098   -DE/DX =    0.0                           !
 !       D7          0.0036   -DE/DX =    0.0                           !
 !       D8        119.9176   -DE/DX =    0.0                           !
 !       D9        119.6561   -DE/DX =    0.0                           !
 !       D10      -119.6067   -DE/DX =    0.0                           !
 !       D11         0.0249   -DE/DX =    0.0                           !
 !       A1         90.0      -DE/DX =    0.0019                        !
 !       A2         90.0      -DE/DX =    0.0203                        !
 !       A3         90.0      -DE/DX =    0.0192                        !
 !       D1        180.0      -DE/DX =    0.0                           !
 !       D2       -180.0      -DE/DX =    0.0                           !
 ------------------------------------------------------------------------
 GradGradGradGradGradGradGradGradGradGradGradGradGradGradGradGradGradGrad


 ----------------------------------------------------------------------

 Electric dipole moment (input orientation):
 (Debye = 10**-18 statcoulomb cm , SI units = C m)
                  (au)            (Debye)         (10**-30 SI)
   Tot        0.291463D+01      0.740826D+01      0.247113D+02
   x         -0.189780D-01     -0.482373D-01     -0.160902D+00
   y          0.264223D-04      0.671589D-04      0.224018D-03
   z         -0.291457D+01     -0.740810D+01     -0.247108D+02

 Dipole polarizability, Alpha (input orientation).
 (esu units = cm**3 , SI units = C**2 m**2 J**-1)
 Alpha(0;0):
               (au)            (10**-24 esu)      (10**-40 SI)
   iso        0.124878D+03      0.185050D+02      0.205895D+02
   aniso      0.739990D+02      0.109655D+02      0.122008D+02
   xx         0.173817D+03      0.257570D+02      0.286585D+02
   yx        -0.213494D-03     -0.316365D-04     -0.352004D-04
   yy         0.950353D+02      0.140828D+02      0.156692D+02
   zx        -0.358026D+00     -0.530540D-01     -0.590305D-01
   zy        -0.160055D-03     -0.237177D-04     -0.263895D-04
   zz         0.105781D+03      0.156751D+02      0.174409D+02

 ----------------------------------------------------------------------

 Dipole orientation:
    77          0.00000000          0.00000000         -0.00000000
     9         -0.02502798         -0.00003485         -3.84370019
    15          4.27954620         -0.00000013         -0.02786596
     7          0.02626303          0.00003656          4.03337419
    15         -4.29024271          0.00000013          0.02793561
     1          5.65307418          2.03052672         -1.16894142
     1          5.60291273         -0.00310604          2.34388970
     1          5.65289514         -2.02768499         -1.17413427
     1         -5.65459569         -2.02979919         -1.12606500
     1         -5.63637143          0.00415801          2.38173193
     1         -5.65463630          2.02550527         -1.13347209
     1         -0.86154662          1.56926608          4.75394733
     1         -0.86199007         -1.56894017          4.75394651
     1          1.81742262         -0.00023338          4.77938351

 Electric dipole moment (dipole orientation):
 (Debye = 10**-18 statcoulomb cm , SI units = C m)
                  (au)            (Debye)         (10**-30 SI)
   Tot        0.291463D+01      0.740826D+01      0.247113D+02
   x          0.000000D+00      0.000000D+00      0.000000D+00
   y          0.000000D+00      0.000000D+00      0.000000D+00
   z          0.291463D+01      0.740826D+01      0.247113D+02

 Dipole polarizability, Alpha (dipole orientation).
 (esu units = cm**3 , SI units = C**2 m**2 J**-1)
 Alpha(0;0):
               (au)            (10**-24 esu)      (10**-40 SI)
   iso        0.124878D+03      0.185050D+02      0.205895D+02
   aniso      0.739990D+02      0.109655D+02      0.122008D+02
   xx         0.173819D+03      0.257573D+02      0.286588D+02
   yx         0.214002D-03      0.317118D-04      0.352841D-04
   yy         0.950353D+02      0.140828D+02      0.156692D+02
   zx        -0.849986D-01     -0.125955D-01     -0.140144D-01
   zy        -0.640498D-04     -0.949120D-05     -0.105604D-04
   zz         0.105779D+03      0.156748D+02      0.174406D+02

 ----------------------------------------------------------------------
 Unable to Open any file for archive entry.
 1\1\GINC-NODE001\Freq\RPBEPBE\GenECP\F1H9Ir1N1P2\MVANVLEET\30-May-2024
 \1\\#N Geom=AllCheck Guess=TCheck SCRF=Check GenChk RPBEPBE/GenECP Fre
 q\\trans-(F)Ir(PH3)2(NH3)\\0,1\Ir\F,1,B1\P,1,B2,2,A1\N,1,B3,3,A2,2,D1,
 0\P,1,B4,4,A3,3,D2,0\H,3,B5,1,A4,2,D3,0\H,3,B6,1,A5,6,D4,0\H,3,B7,1,A6
 ,7,D5,0\H,5,B8,1,A7,7,D6,0\H,5,B9,1,A8,7,D7,0\H,5,B10,1,A9,7,D8,0\H,4,
 B11,1,A10,3,D9,0\H,4,B12,1,A11,3,D10,0\H,4,B13,1,A12,3,D11,0\\B1=2.034
 04166\B2=2.26468633\B3=2.13441495\B4=2.2703468\B5=1.43090062\B6=1.4372
 3338\B7=1.4308862\B8=1.43105621\B9=1.43488398\B10=1.43104125\B11=1.027
 46442\B12=1.02746348\B13=1.02676508\A4=120.71023679\A5=118.78707728\A6
 =120.7070034\A7=120.11401667\A8=120.13813673\A9=120.11418048\A10=111.6
 0098301\A11=111.59998303\A12=112.98456398\D3=60.85893512\D4=119.216344
 46\D5=119.21273318\D6=-119.73337586\D7=0.1763502\D8=120.09260189\D9=11
 9.62869994\D10=-119.64469304\D11=-0.00887725\A1=90.\A2=90.\A3=90.\D1=1
 80.\D2=-180.\\Version=ES64L-G16RevC.01\State=1-A\HF=-946.7453165\RMSD=
 5.522e-09\RMSF=1.664e-03\ZeroPoint=0.0929402\Thermal=0.1031708\ETot=-9
 46.6421458\HTot=-946.6412016\GTot=-946.6896299\Dipole=-0.018978,0.0000
 264,-2.9145712\DipoleDeriv=-1.6662822,-0.000224,0.0303559,0.0001613,-0
 .7497213,-0.0000005,-0.0229293,-0.0000109,0.3783773,-0.0951262,0.00008
 03,-0.0060718,-0.0000977,-0.2261914,0.0000096,0.0048341,-0.0000055,-1.
 1630223,1.7024077,-0.0000236,0.0934061,-0.0000203,0.4473013,-0.0001463
 ,0.0332338,-0.0000594,0.7136007,0.0792007,0.0000105,-0.0176699,-0.0000
 659,0.1066536,0.0000561,-0.0009105,0.0000279,-0.3241231,1.7066192,-0.0
 000318,-0.0997391,-0.0001151,0.4396525,0.0001461,-0.0470658,0.0000747,
 0.6986643,-0.3583087,0.0670423,-0.0444054,0.0867329,-0.0711802,0.02229
 6,-0.0520773,0.0157955,-0.0671636,-0.30397,-0.0001013,0.0231261,-0.000
 1018,-0.0585062,0.0000935,0.1339605,0.0001182,-0.2018055,-0.3581621,-0
 .0668476,-0.0445458,-0.0865531,-0.0710444,-0.0223066,-0.0522682,-0.015
 8239,-0.0672746,-0.3585674,0.0670076,0.0424348,0.0893981,-0.069972,-0.
 0222789,0.0539017,-0.018536,-0.0682626,-0.3182959,-0.0001398,-0.037497
 8,-0.0001241,-0.0592663,-0.0001269,-0.1116128,-0.0001503,-0.1729223,-0
 .358388,-0.0667528,0.0426242,-0.0891052,-0.0697457,0.0222867,0.054198,
 0.0185719,-0.0683917,0.1254085,-0.0181099,-0.0704462,-0.0248876,0.1247
 173,-0.1077609,0.00902,0.0339952,0.1047215,0.125494,0.0180961,-0.07043
 28,0.0248207,0.1247312,0.1077006,0.0090895,-0.034,0.1047578,0.0779702,
 -0.0000061,0.1588618,-0.0000422,0.1325717,0.0000314,-0.0113737,0.00000
 27,0.1328442\Polar=173.8168909,-0.0002135,95.0353432,-0.3580262,-0.000
 1601,105.7806443\Quadrupole=6.2791878,-4.7420014,-1.5371864,0.0002139,
 0.1320459,-0.0001356\PG=C01 [X(F1H9Ir1N1P2)]\NImag=1\\0.20807845,0.000
 02499,0.10953255,0.00000262,0.00000158,0.28327794,-0.01187432,-0.00000
 806,0.00029580,0.01167921,-0.00000839,-0.02279659,0.00000105,0.0000022
 7,0.00886583,0.00050673,0.00000031,-0.13531104,-0.00059422,-0.00000075
 ,0.16402026,-0.07029071,-0.00000011,0.00143295,-0.00722570,0.00000127,
 -0.00064902,0.32434602,0.00000060,-0.03118263,0.00000338,-0.00000418,0
 .00150228,-0.00000075,0.00000275,0.27574769,0.00420007,-0.00000123,-0.
 03291040,0.00476246,-0.00000051,-0.00865328,0.00763921,0.00001586,0.29
 475181,-0.03547970,-0.00000460,0.00289590,0.00706007,0.00000060,-0.000
 97527,-0.00669670,-0.00000509,-0.00617169,0.62963765,-0.00000550,-0.04
 037364,0.00000200,0.00000050,0.01073484,0.00000126,-0.00000119,0.00449
 559,0.00000294,0.00000409,0.61802823,-0.00337085,-0.00000143,-0.062086
 40,0.00056442,-0.00000056,-0.01109737,-0.00322196,0.00000113,-0.005823
 45,-0.00834315,-0.00000253,0.30453874,-0.06863349,-0.00000268,-0.00238
 543,-0.00728226,0.00000112,0.00105433,-0.04244040,-0.00000041,-0.00020
 837,-0.00561008,0.00000144,0.00359849,0.32273698,0.00000064,-0.0310493
 4,-0.00000650,-0.00000525,0.00141882,0.00000047,-0.00000198,0.00564784
 ,0.00000029,-0.00000554,0.00364712,0.00000293,0.00000718,0.27533929,-0
 .00506141,0.00000081,-0.03491170,-0.00439974,0.00000062,-0.00820600,0.
 00050492,-0.00000003,0.01066611,0.00693265,0.00000019,-0.00440179,-0.0
 0422463,-0.00002441,0.29594319,-0.00361440,0.01040673,-0.00919876,0.00
 172817,-0.00018268,0.00158586,-0.06920684,0.07240868,-0.03944255,-0.00
 019372,0.00012419,0.00031147,0.00077176,-0.00360471,0.00180167,0.06646
 999,0.00296911,0.00171016,0.00018597,-0.00031529,0.00002642,-0.0002761
 6,0.06036428,-0.11591142,0.05035470,-0.00012257,-0.00047153,-0.0002583
 5,-0.00105540,0.00064187,-0.00003022,-0.06721905,0.12607585,-0.0015624
 7,-0.00063151,0.00138845,-0.00028494,0.00026205,0.00078186,-0.03357250
 ,0.05056145,-0.05409753,-0.00022401,0.00021977,0.00015022,0.00056842,-
 0.00013278,-0.00021171,0.03803322,-0.05676820,0.05495334,-0.00436335,-
 0.00001403,0.01367656,-0.00014581,0.00000040,-0.00028101,-0.06439991,-
 0.00010033,0.07439711,0.00102019,0.00000275,0.00212920,0.00023902,0.00
 000256,-0.00380308,0.00309433,-0.00060181,-0.00702545,0.06259368,-0.00
 000595,0.00235780,-0.00000083,0.00000258,-0.00005405,0.00000004,-0.000
 08210,-0.02606481,0.00015397,0.00000125,-0.00065638,0.00000080,0.00000
 138,0.00023681,-0.00000177,-0.00626494,0.00045611,0.01271663,0.0000921
 9,0.02372206,0.00554340,-0.00000039,0.00016054,-0.00077568,0.00000068,
 0.00087675,0.05978559,0.00015186,-0.14534437,-0.00256881,-0.00000115,0
 .00203061,-0.00181441,-0.00000085,-0.00008455,0.00346101,0.00010492,-0
 .00782164,-0.07087926,-0.00017515,0.15716165,-0.00362121,-0.01039744,-
 0.00922588,0.00173638,0.00018314,0.00158704,-0.06920265,-0.07230700,-0
 .03962906,-0.00019475,-0.00012543,0.00031284,0.00077042,0.00360322,0.0
 0180653,0.00328683,0.00587349,0.00369239,0.00309436,0.00625640,0.00347
 838,0.06646516,-0.00296639,0.00170937,-0.00018573,0.00031850,0.0000257
 9,0.00027610,-0.06028650,-0.11567011,-0.05052541,0.00012514,-0.0004708
 3,0.00025939,0.00105321,0.00064071,0.00003012,-0.00588157,-0.01242392,
 -0.00650301,0.00062016,0.00049044,-0.00008228,0.06712579,0.12580146,-0
 .00156915,0.00062966,0.00138747,-0.00028464,-0.00026198,0.00078389,-0.
 03373003,-0.05073287,-0.05436360,-0.00022487,-0.00022297,0.00015187,0.
 00057108,0.00013552,-0.00021313,0.00367652,0.00646103,0.00435325,-0.00
 702371,-0.01269423,-0.00785297,0.03820743,0.05695935,0.05524808,-0.003
 83697,0.01031782,0.00943804,0.00179490,-0.00017942,-0.00163117,0.00087
 688,-0.00361347,-0.00190545,-0.00037232,0.00004298,-0.00027889,-0.0675
 1264,0.07143526,0.03957467,0.00018393,0.00010833,0.00001309,-0.0000248
 4,0.00005769,0.00013354,-0.00193996,-0.00004173,0.00006788,0.06488315,
 0.00298118,0.00163899,-0.00021659,-0.00034357,0.00001563,0.00030916,-0
 .00109067,0.00067079,0.00004815,-0.00020047,-0.00029692,0.00015389,0.0
 5927901,-0.11549275,-0.05164102,0.00010538,-0.00007643,0.00002168,0.00
 003956,-0.00002808,-0.00006099,0.00004718,-0.00015719,-0.00000092,-0.0
 6597656,0.12574673,0.00183207,0.00051792,0.00137187,0.00022303,-0.0002
 5832,0.00081100,-0.00061162,0.00014322,-0.00015868,0.00030081,-0.00001
 563,0.00020723,0.03374581,-0.05227508,-0.05575085,-0.00001453,-0.00001
 924,-0.00000857,0.00009908,0.00000519,0.00001713,-0.00003267,0.0000086
 3,0.00001206,-0.03809677,0.05830897,0.05667547,-0.00420418,-0.00001984
 ,-0.01413016,-0.00002474,0.00000046,0.00027144,0.00039124,0.00000471,0
 .00368331,0.00223457,0.00000042,-0.00080713,-0.06818356,-0.00014135,-0
 .07758410,-0.00006078,0.00004101,-0.00008809,-0.00151123,-0.00000025,0
 .00016796,-0.00005705,-0.00004133,-0.00008839,0.00320172,-0.00060985,0
 .00683814,0.06595227,-0.00000809,0.00243722,0.00000276,0.00000355,0.00
 002735,-0.00000022,0.00000223,0.00015422,0.00000171,0.00000167,-0.0003
 7467,-0.00000070,-0.00011545,-0.02647752,-0.00020366,0.00005635,-0.000
 02484,-0.00000494,-0.00000025,-0.00009898,-0.00000027,-0.00005634,-0.0
 0002518,0.00000462,-0.00662719,0.00041049,-0.01284239,0.00012983,0.023
 89860,-0.00415874,0.00000079,0.00166947,0.00051408,-0.00000066,0.00083
 280,0.00144907,0.00000056,-0.00030120,0.00057976,0.00000102,0.00087890
 ,-0.06325959,-0.00020252,-0.14449712,-0.00010311,0.00004204,0.00001942
 ,0.00002675,0.00000038,0.00014884,-0.00010362,-0.00004246,0.00001952,-
 0.00368841,-0.00013597,-0.00789062,0.07405242,0.00023456,0.15641479,-0
 .00384438,-0.01030190,0.00947767,0.00180595,0.00018009,-0.00163284,0.0
 0087438,0.00360983,-0.00191309,-0.00037259,-0.00004385,-0.00028073,-0.
 06752048,-0.07129346,0.03983296,-0.00193960,0.00004144,0.00006861,-0.0
 0002137,-0.00005764,0.00013399,0.00018083,-0.00010823,0.00001357,0.003
 12104,0.00570176,-0.00367308,0.00320205,0.00661481,-0.00371279,0.06488
 818,-0.00297702,0.00163954,0.00021481,0.00034750,0.00001463,-0.0003085
 3,0.00108814,0.00066881,-0.00004806,0.00020504,-0.00029690,-0.00015508
 ,-0.05917010,-0.11512700,0.05186948,-0.00004722,-0.00015717,0.00000075
 ,-0.00003967,-0.00002839,0.00006158,-0.00010532,-0.00007553,-0.0000218
 5,-0.00571455,-0.01237929,0.00667998,0.00063508,0.00045835,0.00010332,
 0.06584719,0.12533433,0.00184232,-0.00051657,0.00136970,0.00022211,0.0
 0025826,0.00081499,-0.00061597,-0.00014651,-0.00016027,0.00030090,0.00
 001613,0.00020742,0.03396454,0.05250435,-0.05613466,-0.00003196,-0.000
 00838,0.00001213,0.00009946,-0.00000481,0.00001712,-0.00001489,0.00001
 948,-0.00000808,-0.00365212,-0.00662023,0.00450693,0.00683676,0.012808
 55,-0.00793290,-0.03833915,-0.05856412,0.05709982,0.00008130,0.0011674
 1,-0.00243768,0.00016455,-0.00006233,0.00081190,0.00025954,-0.00041963
 ,-0.00013027,-0.12644550,-0.12148920,-0.05017192,0.00098175,0.00059859
 ,0.00203141,-0.00010582,-0.00002979,-0.00000434,0.00010512,-0.00004408
 ,0.00009275,-0.00017876,0.00001819,-0.00020977,-0.00012145,0.00003063,
 -0.00044488,-0.00045159,-0.00018335,-0.00063455,-0.00012959,-0.0000676
 4,-0.00013345,0.13237473,0.00154567,0.00231596,-0.00466462,-0.00011616
 ,-0.00005116,0.00101570,0.00048681,-0.00031299,-0.00043239,-0.12248856
 ,-0.26919912,-0.08876590,-0.00106934,0.00044166,-0.00049489,-0.0000466
 9,0.00003969,0.00012886,-0.00008765,-0.00001274,0.00021127,-0.00014798
 ,0.00004934,-0.00002087,0.00020166,-0.00011281,0.00001216,0.00037181,-
 0.00014540,-0.00001161,0.00007920,0.00005198,0.00022083,0.13537799,0.2
 8949086,-0.00492590,-0.01200808,-0.00864413,0.00084683,0.00258711,-0.0
 0194351,-0.00023169,0.00066786,-0.00039648,-0.06809843,-0.11870798,-0.
 07196180,-0.00072645,0.00052974,-0.00063989,-0.00002852,-0.00007163,0.
 00003476,0.00009625,-0.00010257,-0.00001205,0.00003151,-0.00007070,-0.
 00005117,-0.00001527,-0.00020625,0.00009055,0.00053839,-0.00016703,0.0
 0026377,0.00002349,-0.00001914,0.00007273,0.05785134,0.10417108,0.0774
 7926,0.00008475,-0.00116776,-0.00243837,0.00016357,0.00006319,0.000812
 72,0.00025943,0.00041802,-0.00013165,-0.12651716,0.12153260,-0.0501981
 3,0.00097918,-0.00059620,0.00203204,-0.00017938,-0.00001743,-0.0002095
 9,0.00010460,0.00004444,0.00009277,-0.00010556,0.00003009,-0.00000372,
 -0.00013017,0.00006683,-0.00013236,-0.00045122,0.00018238,-0.00063350,
 -0.00012176,-0.00003176,-0.00044462,0.00964866,-0.01563930,0.00723336,
 0.13245547,-0.00154882,0.00231494,0.00466284,0.00011706,-0.00005152,-0
 .00101636,-0.00048586,-0.00031387,0.00043176,0.12253228,-0.26913608,0.
 08875056,0.00106978,0.00044548,0.00049476,0.00014856,0.00004939,0.0000
 2162,0.00008726,-0.00001220,-0.00021076,0.00004683,0.00003987,-0.00012
 880,-0.00007845,0.00005098,-0.00022064,-0.00037121,-0.00014611,0.00001
 098,-0.00020167,-0.00011346,-0.00001235,0.01564898,-0.02371269,0.01108
 861,-0.13542638,0.28941940,-0.00492502,0.01200500,-0.00864273,0.000846
 25,-0.00258622,-0.00194332,-0.00023278,-0.00066826,-0.00039772,-0.0681
 3211,0.11868625,-0.07195935,-0.00072521,-0.00053135,-0.00063786,0.0000
 3159,0.00007081,-0.00005119,0.00009604,0.00010300,-0.00001198,-0.00002
 841,0.00007146,0.00003520,0.00002430,0.00002004,0.00007141,0.00053691,
 0.00016728,0.00026305,-0.00001542,0.00020686,0.00008951,0.00723677,-0.
 01108718,0.00282377,0.05787806,-0.10415109,0.07747720,0.00151820,-0.00
 000053,0.00259673,0.00042002,0.00000028,-0.00086649,0.00245541,0.00000
 551,-0.00515005,-0.33806998,-0.00004381,0.10975635,0.00070380,0.000001
 04,0.00055611,-0.00023447,-0.00003634,0.00059565,0.00021520,-0.0000010
 0,0.00314876,-0.00023404,0.00003466,0.00059781,-0.00012326,-0.00003043
 ,-0.00003303,-0.00003749,-0.00000016,-0.00032777,-0.00012268,0.0000303
 4,-0.00003395,-0.01618294,0.00153254,0.00740508,-0.01619042,-0.0015383
 5,0.00740905,0.36588266,-0.00000205,-0.00025431,-0.00000012,0.00000055
 ,0.00032172,-0.00000027,0.00000293,0.00056862,-0.00000178,-0.00004326,
 -0.05562969,0.00001584,0.00000024,-0.00031299,0.00000002,-0.00000303,0
 .00006582,0.00010763,-0.00000116,-0.00030757,0.00000153,0.00000347,0.0
 0006578,-0.00010569,0.00006763,0.00000986,-0.00004477,0.00000051,-0.00
 009354,-0.00000043,-0.00006758,0.00001010,0.00004537,-0.03054578,0.001
 15741,0.01230897,0.03054127,0.00116587,-0.01230660,0.00004625,0.053232
 89,0.01164631,0.00000316,-0.00811904,-0.00193577,-0.00000076,-0.001767
 03,0.00205384,0.00000310,-0.00281094,0.14372831,0.00002069,-0.08083483
 ,-0.00015858,0.00000017,-0.00092006,-0.00008192,0.00021270,0.00049720,
 -0.00160795,-0.00000066,0.00071490,-0.00008160,-0.00021494,0.00049763,
 0.00001656,0.00002009,0.00004504,-0.00022745,-0.00000027,0.00011125,0.
 00001680,-0.00002000,0.00004557,-0.01385731,-0.00028245,0.00288419,-0.
 01385700,0.00027887,0.00288400,-0.12565425,-0.00001969,0.08677213\\-0.
 00074562,0.00000055,0.00877513,0.00046558,0.00000022,-0.00000829,0.000
 00185,-0.00000323,-0.00429991,0.00028543,-0.00000231,0.00001116,-0.000
 00107,0.00000155,-0.00446644,-0.00000071,-0.00000195,0.00000102,-0.000
 00090,0.00000562,0.00000035,0.00000063,-0.00000001,0.00000026,0.000001
 15,0.00000125,-0.00000102,-0.00000163,-0.00000270,-0.00000183,-0.00000
 260,-0.00000009,0.00000050,0.00000236,-0.00000483,0.00000306,0.0000003
 5,0.00000636,0.00000425,-0.00000481,-0.00000043,-0.00001824\\\@
 The archive entry for this job was punched.


 SEE YOU NOW,
 YOUR BAIT OF FALSEHOOD TAKES THIS CARP OF TRUTH.
 AND THUS DO WE OF WISDOM AND OF REACH...
 BY INDIRECTIONS FIND DIRECTIONS OUT.    -- HAMLET, II, 1
 Job cpu time:       0 days  0 hours 17 minutes 41.7 seconds.
 Elapsed time:       0 days  0 hours  0 minutes 26.0 seconds.
 File lengths (MBytes):  RWF=     67 Int=      0 D2E=      0 Chk=      4 Scr=      1
 Normal termination of Gaussian 16 at Thu May 30 17:07:10 2024.
