 Entering Gaussian System, Link 0=/cm/shared/apps//g16/g16
 Input=trans-F_Ir_PH3_2_CO.gjf
 Output=trans-F_Ir_PH3_2_CO.log
 Initial command:
 /cm/shared/apps//g16/l1.exe "/local/mvanvleet/pbs.15351.josephine/Gau-209833.inp" -scrdir="/local/mvanvleet/pbs.15351.josephine/"
 Entering Link 1 = /cm/shared/apps//g16/l1.exe PID=    209836.
  
 Copyright (c) 1988-2019, Gaussian, Inc.  All Rights Reserved.
  
 This is part of the Gaussian(R) 16 program.  It is based on
 the Gaussian(R) 09 system (copyright 2009, Gaussian, Inc.),
 the Gaussian(R) 03 system (copyright 2003, Gaussian, Inc.),
 the Gaussian(R) 98 system (copyright 1998, Gaussian, Inc.),
 the Gaussian(R) 94 system (copyright 1995, Gaussian, Inc.),
 the Gaussian 92(TM) system (copyright 1992, Gaussian, Inc.),
 the Gaussian 90(TM) system (copyright 1990, Gaussian, Inc.),
 the Gaussian 88(TM) system (copyright 1988, Gaussian, Inc.),
 the Gaussian 86(TM) system (copyright 1986, Carnegie Mellon
 University), and the Gaussian 82(TM) system (copyright 1983,
 Carnegie Mellon University). Gaussian is a federally registered
 trademark of Gaussian, Inc.
  
 This software contains proprietary and confidential information,
 including trade secrets, belonging to Gaussian, Inc.
  
 This software is provided under written license and may be
 used, copied, transmitted, or stored only in accord with that
 written license.
  
 The following legend is applicable only to US Government
 contracts under FAR:
  
                    RESTRICTED RIGHTS LEGEND
  
 Use, reproduction and disclosure by the US Government is
 subject to restrictions as set forth in subparagraphs (a)
 and (c) of the Commercial Computer Software - Restricted
 Rights clause in FAR 52.227-19.
  
 Gaussian, Inc.
 340 Quinnipiac St., Bldg. 40, Wallingford CT 06492
  
  
 ---------------------------------------------------------------
 Warning -- This program may not be used in any manner that
 competes with the business of Gaussian, Inc. or will provide
 assistance to any competitor of Gaussian, Inc.  The licensee
 of this program is prohibited from giving any competitor of
 Gaussian, Inc. access to this program.  By using this program,
 the user acknowledges that Gaussian, Inc. is engaged in the
 business of creating and licensing software in the field of
 computational chemistry and represents and warrants to the
 licensee that it is not a competitor of Gaussian, Inc. and that
 it will not use this program in any manner prohibited above.
 ---------------------------------------------------------------
  

 Cite this work as:
 Gaussian 16, Revision C.01,
 M. J. Frisch, G. W. Trucks, H. B. Schlegel, G. E. Scuseria, 
 M. A. Robb, J. R. Cheeseman, G. Scalmani, V. Barone, 
 G. A. Petersson, H. Nakatsuji, X. Li, M. Caricato, A. V. Marenich, 
 J. Bloino, B. G. Janesko, R. Gomperts, B. Mennucci, H. P. Hratchian, 
 J. V. Ortiz, A. F. Izmaylov, J. L. Sonnenberg, D. Williams-Young, 
 F. Ding, F. Lipparini, F. Egidi, J. Goings, B. Peng, A. Petrone, 
 T. Henderson, D. Ranasinghe, V. G. Zakrzewski, J. Gao, N. Rega, 
 G. Zheng, W. Liang, M. Hada, M. Ehara, K. Toyota, R. Fukuda, 
 J. Hasegawa, M. Ishida, T. Nakajima, Y. Honda, O. Kitao, H. Nakai, 
 T. Vreven, K. Throssell, J. A. Montgomery, Jr., J. E. Peralta, 
 F. Ogliaro, M. J. Bearpark, J. J. Heyd, E. N. Brothers, K. N. Kudin, 
 V. N. Staroverov, T. A. Keith, R. Kobayashi, J. Normand, 
 K. Raghavachari, A. P. Rendell, J. C. Burant, S. S. Iyengar, 
 J. Tomasi, M. Cossi, J. M. Millam, M. Klene, C. Adamo, R. Cammi, 
 J. W. Ochterski, R. L. Martin, K. Morokuma, O. Farkas, 
 J. B. Foresman, and D. J. Fox, Gaussian, Inc., Wallingford CT, 2019.
 
 ******************************************
 Gaussian 16:  ES64L-G16RevC.01  3-Jul-2019
                 5-Jun-2024 
 ******************************************
 %nprocshared=48
 Will use up to   48 processors via shared memory.
 %chk=trans-F_Ir_PH3_2_CO.chk
 %mem=16GB
 ------------------------
 # PBEPBE GenECP Pop=NBO7
 ------------------------
 1/38=1,172=1/1;
 2/12=2,17=6,18=5,40=1/2;
 3/5=7,11=2,16=1,17=8,25=1,30=1,74=1009/1,2,3;
 4//1;
 5/5=2,38=5/2;
 6/7=2,8=2,9=2,10=2,28=1,40=1,113=1,114=1,124=3103/1,12;
 99/5=1,9=1/99;
 ---------------------
 trans-(F)Ir(PH3)2(CO)
 ---------------------
 Symbolic Z-matrix:
 Charge =  0 Multiplicity = 1
 Ir
 C                    1    B1
 P                    1    B2       2    A1
 F                    1    B3       3    A2       2    D1       0
 P                    1    B4       2    A3       3    D2       0
 O                    2    B5       1    A4       3    D3       0
 H                    3    B6       1    A5       2    D4       0
 H                    3    B7       1    A6       2    D5       0
 H                    3    B8       1    A7       2    D6       0
 H                    5    B9       1    A8       2    D7       0
 H                    5    B10      1    A9       2    D8       0
 H                    5    B11      1    A10      2    D9       0
       Variables:
  B2                    2.30848                  
  B3                    2.02044                  
  B4                    2.30848                  
  B5                    1.17074                  
  B6                    1.42497                  
  B7                    1.42496                  
  B8                    1.42389                  
  B9                    1.42496                  
  B10                   1.42497                  
  B11                   1.42389                  
  A4                  179.9991                   
  A5                  118.83563                  
  A6                  118.83537                  
  A7                  117.34977                  
  A8                  118.83532                  
  A9                  118.8356                   
  A10                 117.3498                   
  D3                  -46.72126                  
  D4                  -59.79095                  
  D5                   59.7932                   
  D6                 -179.99799                  
  D7                  -59.7929                   
  D8                   59.7912                   
  D9                  179.99825                  
       Constants:
  B1                    1.86796                  
  A1                   90.                       
  A2                   90.                       
  A3                   90.                       
  D1                 -180.                       
  D2                 -180.                       
 
                          Input orientation:                          
 ---------------------------------------------------------------------
 Center     Atomic      Atomic             Coordinates (Angstroms)
 Number     Number       Type             X           Y           Z
 ---------------------------------------------------------------------
      1         77           0        0.000000    0.000000    0.000000
      2          6           0        0.000000    0.000000    1.867960
      3         15           0        2.308483    0.000000    0.000000
      4          9           0        0.000000    0.000000   -2.020438
      5         15           0       -2.308484    0.000000    0.000000
      6          8           0        0.000013   -0.000013    3.038700
      7          1           0        2.995742    1.078758    0.628080
      8          1           0        2.995734   -1.078781    0.628037
      9          1           0        2.962647    0.000044   -1.264721
     10          1           0       -2.995735   -1.078781    0.628044
     11          1           0       -2.995744    1.078764    0.628077
     12          1           0       -2.962648    0.000039   -1.264722
 ---------------------------------------------------------------------
                    Distance matrix (angstroms):
                    1          2          3          4          5
     1  Ir   0.000000
     2  C    1.867960   0.000000
     3  P    2.308483   2.969574   0.000000
     4  F    2.020438   3.888398   3.067779   0.000000
     5  P    2.308484   2.969574   4.616967   3.067779   0.000000
     6  O    3.038700   1.170740   3.816115   5.059138   3.816131
     7  H    3.245408   3.416942   1.424966   4.141599   5.449130
     8  H    3.245400   3.416957   1.424960   4.141571   5.449121
     9  H    3.221303   4.311724   1.423885   3.057513   5.420732
    10  H    3.245402   3.416956   5.449123   4.141577   1.424964
    11  H    3.245411   3.416946   5.449132   4.141600   1.424970
    12  H    3.221305   4.311726   5.420733   3.057514   1.423887
                    6          7          8          9         10
     6  O    0.000000
     7  H    3.993649   0.000000
     8  H    3.993668   2.157538   0.000000
     9  H    5.224618   2.178856   2.178874   0.000000
    10  H    3.993683   6.368106   5.991469   6.344189   0.000000
    11  H    3.993673   5.991486   6.368108   6.344190   2.157545
    12  H    5.224634   6.344191   6.344187   5.925295   2.178878
                   11         12
    11  H    0.000000
    12  H    2.178860   0.000000
 Stoichiometry    CH6FIrOP2
 Framework group  C1[X(CH6FIrOP2)]
 Deg. of freedom    30
 Full point group                 C1      NOp   1
 Largest Abelian subgroup         C1      NOp   1
 Largest concise Abelian subgroup C1      NOp   1
                         Standard orientation:                         
 ---------------------------------------------------------------------
 Center     Atomic      Atomic             Coordinates (Angstroms)
 Number     Number       Type             X           Y           Z
 ---------------------------------------------------------------------
      1         77           0        0.000001    0.127325   -0.000000
      2          6           0       -0.000006   -1.740635   -0.000005
      3         15           0       -2.308482    0.127333   -0.000000
      4          9           0        0.000008    2.147763    0.000006
      5         15           0        2.308485    0.127317   -0.000000
      6          8           0       -0.000022   -2.911375    0.000005
      7          1           0       -2.995743   -0.500741   -1.078760
      8          1           0       -2.995735   -0.500704    1.078779
      9          1           0       -2.962641    1.392057   -0.000041
     10          1           0        2.995734   -0.500733    1.078779
     11          1           0        2.995743   -0.500760   -1.078766
     12          1           0        2.962654    1.392036   -0.000035
 ---------------------------------------------------------------------
 Rotational constants (GHZ):           1.8500580           1.3002231           0.7745594
 General basis read from cards:  (5D, 7F)
 ======================================================================================================
                                       Pseudopotential Parameters
 ======================================================================================================
  Center     Atomic      Valence      Angular      Power
  Number     Number     Electrons     Momentum     of R      Exponent        Coefficient   SO-Coeffient
 ======================================================================================================
    1         77           17
                                      H and up 
                                                     2        1.0000000        0.00000000    0.00000000
                                      S - H
                                                     2       13.6522030      732.26920000    0.00000000
                                                     2        6.8261010       26.48472100    0.00000000
                                      P - H
                                                     2       10.2798680      299.48947400    0.00000000
                                                     2        5.1399340       26.46623400    0.00000000
                                      D - H
                                                     2        7.3498590      124.45759500    0.00000000
                                                     2        3.6749290       14.03599500    0.00000000
                                      F - H
                                                     2        3.0340720       21.53103100    0.00000000
                                      G - H
                                                     2        4.8088570      -21.60759700    0.00000000
    2          6
                                   No pseudopotential on this center.
    3         15
                                   No pseudopotential on this center.
    4          9
                                   No pseudopotential on this center.
    5         15
                                   No pseudopotential on this center.
    6          8
                                   No pseudopotential on this center.
    7          1
                                   No pseudopotential on this center.
    8          1
                                   No pseudopotential on this center.
    9          1
                                   No pseudopotential on this center.
   10          1
                                   No pseudopotential on this center.
   11          1
                                   No pseudopotential on this center.
   12          1
                                   No pseudopotential on this center.
 ======================================================================================================
 There are   206 symmetry adapted cartesian basis functions of A   symmetry.
 There are   198 symmetry adapted basis functions of A   symmetry.
   198 basis functions,   321 primitive gaussians,   206 cartesian basis functions
    38 alpha electrons       38 beta electrons
       nuclear repulsion energy       463.7076060304 Hartrees.
 NAtoms=   12 NActive=   12 NUniq=   12 SFac= 1.00D+00 NAtFMM=   60 NAOKFM=F Big=F
 Integral buffers will be    131072 words long.
 Raffenetti 2 integral format.
 Two-electron integral symmetry is turned on.
 One-electron integrals computed using PRISM.
   1 Symmetry operations used in ECPInt.
 ECPInt:  NShTT=    3403 NPrTT=   10573 LenC2=    3209 LenP2D=    7736.
 LDataN:  DoStor=T MaxTD1= 7 Len=  274
 NBasis=   198 RedAO= T EigKep=  4.44D-04  NBF=   198
 NBsUse=   198 1.00D-06 EigRej= -1.00D+00 NBFU=   198
 Defaulting to unpruned grid for atomic number  77.
 ExpMin= 1.50D-02 ExpMax= 7.75D+04 ExpMxC= 2.65D+03 IAcc=3 IRadAn=         5 AccDes= 0.00D+00
 Harris functional with IExCor= 1009 and IRadAn=       5 diagonalized for initial guess.
 HarFok:  IExCor= 1009 AccDes= 0.00D+00 IRadAn=         5 IDoV= 1 UseB2=F ITyADJ=14
 ICtDFT=  3500011 ScaDFX=  1.000000  1.000000  1.000000  1.000000
 Defaulting to unpruned grid for atomic number  77.
 FoFCou: FMM=F IPFlag=           0 FMFlag=      100000 FMFlg1=           0
         NFxFlg=           0 DoJE=T BraDBF=F KetDBF=T FulRan=T
         wScrn=  0.000000 ICntrl=       500 IOpCl=  0 I1Cent=   200000004 NGrid=           0
         NMat0=    1 NMatS0=      1 NMatT0=    0 NMatD0=    1 NMtDS0=    0 NMtDT0=    0
 Petite list used in FoFCou.
 Keep J ints in memory in canonical form, NReq=243739019.
 Requested convergence on RMS density matrix=1.00D-08 within 128 cycles.
 Requested convergence on MAX density matrix=1.00D-06.
 Requested convergence on             energy=1.00D-06.
 No special actions if energy rises.
 Defaulting to unpruned grid for atomic number  77.
 Defaulting to unpruned grid for atomic number  77.
 Defaulting to unpruned grid for atomic number  77.
 Defaulting to unpruned grid for atomic number  77.
 Defaulting to unpruned grid for atomic number  77.
 Defaulting to unpruned grid for atomic number  77.
 Defaulting to unpruned grid for atomic number  77.
 Defaulting to unpruned grid for atomic number  77.
 Defaulting to unpruned grid for atomic number  77.
 Defaulting to unpruned grid for atomic number  77.
 Defaulting to unpruned grid for atomic number  77.
 Defaulting to unpruned grid for atomic number  77.
 Defaulting to unpruned grid for atomic number  77.
 Defaulting to unpruned grid for atomic number  77.
 Defaulting to unpruned grid for atomic number  77.
 Defaulting to unpruned grid for atomic number  77.
 Defaulting to unpruned grid for atomic number  77.
 Defaulting to unpruned grid for atomic number  77.
 Defaulting to unpruned grid for atomic number  77.
 Defaulting to unpruned grid for atomic number  77.
 Defaulting to unpruned grid for atomic number  77.
 Defaulting to unpruned grid for atomic number  77.
 Defaulting to unpruned grid for atomic number  77.
 Defaulting to unpruned grid for atomic number  77.
 Defaulting to unpruned grid for atomic number  77.
 Defaulting to unpruned grid for atomic number  77.
 Defaulting to unpruned grid for atomic number  77.
 Defaulting to unpruned grid for atomic number  77.
 Defaulting to unpruned grid for atomic number  77.
 Defaulting to unpruned grid for atomic number  77.
 Defaulting to unpruned grid for atomic number  77.
 Defaulting to unpruned grid for atomic number  77.
 Defaulting to unpruned grid for atomic number  77.
 Defaulting to unpruned grid for atomic number  77.
 Defaulting to unpruned grid for atomic number  77.
 Defaulting to unpruned grid for atomic number  77.
 Defaulting to unpruned grid for atomic number  77.
 Defaulting to unpruned grid for atomic number  77.
 Defaulting to unpruned grid for atomic number  77.
 Defaulting to unpruned grid for atomic number  77.
 Defaulting to unpruned grid for atomic number  77.
 Defaulting to unpruned grid for atomic number  77.
 Defaulting to unpruned grid for atomic number  77.
 Defaulting to unpruned grid for atomic number  77.
 Defaulting to unpruned grid for atomic number  77.
 Defaulting to unpruned grid for atomic number  77.
 Defaulting to unpruned grid for atomic number  77.
 Defaulting to unpruned grid for atomic number  77.
 EnCoef did     2 forward-backward iterations
 EnCoef did     1 forward-backward iterations
 SCF Done:  E(RPBE-PBE) =  -1003.53717915     A.U. after   15 cycles
            NFock= 15  Conv=0.73D-08     -V/T= 2.0756

 **********************************************************************

            Population analysis using the SCF Density.

 **********************************************************************

 Orbital symmetries:
       Occupied  (A) (A) (A) (A) (A) (A) (A) (A) (A) (A) (A) (A)
                 (A) (A) (A) (A) (A) (A) (A) (A) (A) (A) (A) (A)
                 (A) (A) (A) (A) (A) (A) (A) (A) (A) (A) (A) (A)
                 (A) (A)
       Virtual   (A) (A) (A) (A) (A) (A) (A) (A) (A) (A) (A) (A)
                 (A) (A) (A) (A) (A) (A) (A) (A) (A) (A) (A) (A)
                 (A) (A) (A) (A) (A) (A) (A) (A) (A) (A) (A) (A)
                 (A) (A) (A) (A) (A) (A) (A) (A) (A) (A) (A) (A)
                 (A) (A) (A) (A) (A) (A) (A) (A) (A) (A) (A) (A)
                 (A) (A) (A) (A) (A) (A) (A) (A) (A) (A) (A) (A)
                 (A) (A) (A) (A) (A) (A) (A) (A) (A) (A) (A) (A)
                 (A) (A) (A) (A) (A) (A) (A) (A) (A) (A) (A) (A)
                 (A) (A) (A) (A) (A) (A) (A) (A) (A) (A) (A) (A)
                 (A) (A) (A) (A) (A) (A) (A) (A) (A) (A) (A) (A)
                 (A) (A) (A) (A) (A) (A) (A) (A) (A) (A) (A) (A)
                 (A) (A) (A) (A) (A) (A) (A) (A) (A) (A) (A) (A)
                 (A) (A) (A) (A) (A) (A) (A) (A) (A) (A) (A) (A)
                 (A) (A) (A) (A)
 The electronic state is 1-A.
 Alpha  occ. eigenvalues --  -76.34317 -76.34317 -24.15309 -18.80136  -9.98457
 Alpha  occ. eigenvalues --   -6.35705  -6.35703  -4.57317  -4.57317  -4.57307
 Alpha  occ. eigenvalues --   -4.57307  -4.57015  -4.57015  -3.55739  -1.95498
 Alpha  occ. eigenvalues --   -1.94482  -1.90083  -1.01882  -0.95959  -0.63791
 Alpha  occ. eigenvalues --   -0.62856  -0.51537  -0.42632  -0.41214  -0.39602
 Alpha  occ. eigenvalues --   -0.39390  -0.39207  -0.38813  -0.38543  -0.38267
 Alpha  occ. eigenvalues --   -0.30865  -0.30473  -0.29113  -0.28669  -0.22403
 Alpha  occ. eigenvalues --   -0.22218  -0.20575  -0.18714
 Alpha virt. eigenvalues --   -0.07014  -0.06464  -0.04458  -0.03868  -0.02216
 Alpha virt. eigenvalues --   -0.01940  -0.01662   0.00041   0.00128   0.01080
 Alpha virt. eigenvalues --    0.01811   0.03243   0.03360   0.03486   0.03845
 Alpha virt. eigenvalues --    0.04558   0.06034   0.06339   0.07728   0.08937
 Alpha virt. eigenvalues --    0.09279   0.09394   0.11762   0.12658   0.12677
 Alpha virt. eigenvalues --    0.13687   0.14379   0.15074   0.15213   0.16338
 Alpha virt. eigenvalues --    0.16649   0.19912   0.20089   0.22629   0.24495
 Alpha virt. eigenvalues --    0.25139   0.25858   0.26992   0.28004   0.28660
 Alpha virt. eigenvalues --    0.29487   0.29814   0.29924   0.31017   0.32931
 Alpha virt. eigenvalues --    0.33688   0.34496   0.36208   0.36727   0.37542
 Alpha virt. eigenvalues --    0.38148   0.40148   0.47490   0.48038   0.48842
 Alpha virt. eigenvalues --    0.50037   0.50222   0.52616   0.52780   0.57150
 Alpha virt. eigenvalues --    0.57467   0.59741   0.63582   0.64848   0.67857
 Alpha virt. eigenvalues --    0.69717   0.70796   0.71548   0.75198   0.79273
 Alpha virt. eigenvalues --    0.82498   0.83079   0.84340   0.88501   0.91206
 Alpha virt. eigenvalues --    0.96549   1.04852   1.08299   1.10400   1.15420
 Alpha virt. eigenvalues --    1.16043   1.19200   1.19381   1.19676   1.22518
 Alpha virt. eigenvalues --    1.25370   1.26333   1.27225   1.27743   1.30622
 Alpha virt. eigenvalues --    1.35587   1.37730   1.39813   1.40582   1.44508
 Alpha virt. eigenvalues --    1.45652   1.45661   1.46866   1.49412   1.49968
 Alpha virt. eigenvalues --    1.51964   1.57371   1.59959   1.60622   1.62782
 Alpha virt. eigenvalues --    1.63300   1.67804   1.78220   1.80857   1.90925
 Alpha virt. eigenvalues --    1.98768   2.03161   2.05911   2.07152   2.09183
 Alpha virt. eigenvalues --    2.09921   2.43511   2.47253   2.48393   2.50262
 Alpha virt. eigenvalues --    2.52071   2.58988   2.65791   2.67830   2.71451
 Alpha virt. eigenvalues --    2.71500   2.74080   2.75025   3.14232   3.26622
 Alpha virt. eigenvalues --    3.26965   3.68904   3.77198   3.78325   3.78358
 Alpha virt. eigenvalues --    3.80942   3.94483   4.88734   4.92590   5.50717
 Alpha virt. eigenvalues --    6.29274   6.33233   6.39487   6.89848   6.93080
 Alpha virt. eigenvalues --   13.63964  13.66813  13.68181  13.69616  13.74413
 Alpha virt. eigenvalues --   13.81704  23.57408  47.17328  47.40594  47.67392
 Alpha virt. eigenvalues --   49.59498  66.43720 139.32014 162.46031 162.50276
          Condensed to atoms (all electrons):
               1          2          3          4          5          6
     1  Ir  16.589951  -0.197715   0.145698   0.260441   0.145699  -0.122608
     2  C   -0.197715   6.075611  -0.081462  -0.017625  -0.081466   0.509059
     3  P    0.145698  -0.081462  14.009077  -0.039359  -0.035895  -0.006550
     4  F    0.260441  -0.017625  -0.039359   9.178565  -0.039358  -0.000509
     5  P    0.145699  -0.081466  -0.035895  -0.039358  14.009080  -0.006551
     6  O   -0.122608   0.509059  -0.006550  -0.000509  -0.006551   7.815139
     7  H   -0.029372  -0.006828   0.345678   0.000443  -0.000200   0.000808
     8  H   -0.029373  -0.006826   0.345678   0.000443  -0.000201   0.000808
     9  H   -0.010415   0.012392   0.307548   0.011961   0.001723  -0.000152
    10  H   -0.029373  -0.006826  -0.000201   0.000443   0.345678   0.000808
    11  H   -0.029372  -0.006827  -0.000200   0.000443   0.345678   0.000808
    12  H   -0.010415   0.012392   0.001723   0.011961   0.307547  -0.000152
               7          8          9         10         11         12
     1  Ir  -0.029372  -0.029373  -0.010415  -0.029373  -0.029372  -0.010415
     2  C   -0.006828  -0.006826   0.012392  -0.006826  -0.006827   0.012392
     3  P    0.345678   0.345678   0.307548  -0.000201  -0.000200   0.001723
     4  F    0.000443   0.000443   0.011961   0.000443   0.000443   0.011961
     5  P   -0.000200  -0.000201   0.001723   0.345678   0.345678   0.307547
     6  O    0.000808   0.000808  -0.000152   0.000808   0.000808  -0.000152
     7  H    0.675472  -0.031387  -0.019824   0.000002  -0.000019  -0.000003
     8  H   -0.031387   0.675470  -0.019823  -0.000019   0.000002  -0.000003
     9  H   -0.019824  -0.019823   0.632456  -0.000003  -0.000003  -0.000022
    10  H    0.000002  -0.000019  -0.000003   0.675470  -0.031387  -0.019823
    11  H   -0.000019   0.000002  -0.000003  -0.031387   0.675472  -0.019824
    12  H   -0.000003  -0.000003  -0.000022  -0.019823  -0.019824   0.632456
 Mulliken charges:
               1
     1  Ir   0.316853
     2  C   -0.203879
     3  P    0.008267
     4  F   -0.367848
     5  P    0.008267
     6  O   -0.190909
     7  H    0.065230
     8  H    0.065231
     9  H    0.084163
    10  H    0.065231
    11  H    0.065230
    12  H    0.084163
 Sum of Mulliken charges =  -0.00000
 Mulliken charges with hydrogens summed into heavy atoms:
               1
     1  Ir   0.316853
     2  C   -0.203879
     3  P    0.222892
     4  F   -0.367848
     5  P    0.222892
     6  O   -0.190909
 Electronic spatial extent (au):  <R**2>=           1402.8487
 Charge=             -0.0000 electrons
 Dipole moment (field-independent basis, Debye):
    X=              0.0000    Y=             -1.4646    Z=             -0.0000  Tot=              1.4646
 Quadrupole moment (field-independent basis, Debye-Ang):
   XX=            -47.1744   YY=            -83.4959   ZZ=            -69.6869
   XY=             -0.0002   XZ=              0.0000   YZ=             -0.0000
 Traceless Quadrupole moment (field-independent basis, Debye-Ang):
   XX=             19.6113   YY=            -16.7102   ZZ=             -2.9012
   XY=             -0.0002   XZ=              0.0000   YZ=             -0.0000
 Octapole moment (field-independent basis, Debye-Ang**2):
  XXX=              0.0001  YYY=             23.4163  ZZZ=              0.0002  XYY=              0.0001
  XXY=             10.5363  XXZ=              0.0000  XZZ=              0.0000  YZZ=              5.9634
  YYZ=             -0.0002  XYZ=             -0.0000
 Hexadecapole moment (field-independent basis, Debye-Ang**3):
 XXXX=           -984.8579 YYYY=           -767.7095 ZZZZ=           -116.1103 XXXY=              0.0001
 XXXZ=              0.0000 YYYX=             -0.0007 YYYZ=             -0.0001 ZZZX=             -0.0000
 ZZZY=             -0.0000 XXYY=           -272.9951 XXZZ=           -189.5897 YYZZ=           -125.3061
 XXYZ=             -0.0005 YYXZ=              0.0000 ZZXY=              0.0000
 N-N= 4.637076060304D+02 E-N=-3.280321520825D+03  KE= 9.329755292070D+02
 Running external command "gaunbo7 R"
         input file       "/local/mvanvleet/pbs.15351.josephine/Gau-209836.EIn"
         output file      "/local/mvanvleet/pbs.15351.josephine/Gau-209836.EOu"
         message file     "/local/mvanvleet/pbs.15351.josephine/Gau-209836.EMs"
         fchk file        "/local/mvanvleet/pbs.15351.josephine/Gau-209836.EFC"
         mat. el file     "/local/mvanvleet/pbs.15351.josephine/Gau-209836.EUF"

 Writing WrtUnf unformatted file "/local/mvanvleet/pbs.15351.josephine/Gau-209836.EUF"
 Gaussian matrix elements                                         Version   2 NLab=11 Len12L=8 Len4L=8
 Write SHELL TO ATOM MAP                   from file      0 offset           0 length                  82 to matrix element file.
 Write SHELL TYPES                         from file      0 offset           0 length                  82 to matrix element file.
 Write NUMBER OF PRIMITIVES PER SHELL      from file      0 offset           0 length                  82 to matrix element file.
 Write PRIMITIVE EXPONENTS                 from file      0 offset           0 length                 144 to matrix element file.
 Write CONTRACTION COEFFICIENTS            from file      0 offset           0 length                 144 to matrix element file.
 Write P(S=P) CONTRACTION COEFFICIENTS     from file      0 offset           0 length                 144 to matrix element file.
 Write COORDINATES OF EACH SHELL           from file      0 offset           0 length                 246 to matrix element file.
 Write BONDS PER ATOM                      from file      0 offset           0 length                  12 to matrix element file.
 Write BONDED ATOMS                        from file      0 offset           0 length                  22 to matrix element file.
 Write BOND TYPES                          from file      0 offset           0 length                  22 to matrix element file.
 Write ONIOM CHARGE/MULT                   from file      0 offset           0 length                  32 to matrix element file.
 Write ONIOM ATOM LAYERS                   from file      0 offset           0 length                  12 to matrix element file.
 Write ONIOM ATOM MODIFIERS                from file      0 offset           0 length                  12 to matrix element file.
 Write ONIOM ATOM TYPES                    from file      0 offset           0 length                  12 to matrix element file.
 Write ONIOM LINK ATOMS                    from file      0 offset           0 length                  12 to matrix element file.
 Write ONIOM LINK CHARGES                  from file      0 offset           0 length                  12 to matrix element file.
 Write ONIOM LINK DISTANCES                from file      0 offset           0 length                  48 to matrix element file.
 Write SYMINF INTS                         from file      0 offset           0 length                  26 to matrix element file.
 Write ROTTR TO SO                         from file      0 offset           0 length                  12 to matrix element file.
 Write GAUSSIAN SCALARS                    from file    501 offset           0 to matrix element file.
 Write OPTIMIZATION FLAGS                  from file      0 offset           0 length                  12 to matrix element file.
 Write INTEGER ISO                         from file      0 offset           0 length                  12 to matrix element file.
 Write INTEGER SPIN                        from file      0 offset           0 length                  12 to matrix element file.
 Write REAL ZEFFECTIVE                     from file      0 offset           0 length                  12 to matrix element file.
 Write REAL QUADRUPOLEMOMENT               from file      0 offset           0 length                  12 to matrix element file.
 Write REAL GFACTOR                        from file      0 offset           0 length                  12 to matrix element file.
 Write REAL ZNUCLEAR                       from file      0 offset           0 length                  12 to matrix element file.
 Write MULLIKEN CHARGES                    from file      0 offset           0 length                  12 to matrix element file.
 Write NUCLEAR GRADIENT                    from file  10584 offset           0 length                  36 to matrix element file.
 Array NUCLEAR FORCE CONSTANTS              on  file  10585 does not exist.
 Write ELECTRIC DIPOLE MOMENT              from file      0 offset           0 length                   3 to matrix element file.
 Write NON-ADIABATIC COUPLING              from file  10810 offset           0 length                  36 to matrix element file.
 Write FINITE EM FIELD                     from file  10521 offset           0 length                  35 to matrix element file.
 Write OVERLAP                             from file  10514 offset           0 length               19701 to matrix element file.
 Write CORE HAMILTONIAN ALPHA              from file  10515 offset           0 length               19701 to matrix element file.
 Write CORE HAMILTONIAN BETA               from file  10515 offset       19701 length               19701 to matrix element file.
 Write KINETIC ENERGY                      from file  10516 offset           0 length               19701 to matrix element file.
 Write ORTHOGONAL BASIS                    from file  10685 offset           0 length               39204 to matrix element file.
 Write DIPOLE INTEGRALS                    from file  10518 offset           0 length               59103 to matrix element file.
 Array DIP VEL INTEGRALS                    on  file  10572 does not exist.
 Array R X DEL INTEGRALS                    on  file  10572 does not exist.
 Write ALPHA ORBITAL ENERGIES              from file      0 offset           0 length                 198 to matrix element file.
 Write ALPHA MO COEFFICIENTS               from file  10524 offset           0 length               39204 to matrix element file.
 Write ALPHA DENSITY MATRIX                from file      0 offset           0 length               19701 to matrix element file.
 Write ALPHA FOCK MATRIX                   from file  10536 offset           0 length               19701 to matrix element file.
 Write ENERGY-WEIGHTED DENSITY             from file  10571 offset           0 length               19701 to matrix element file.
 Write ALPHA SCF DENSITY MATRIX            from file      0 offset           0 length               19701 to matrix element file.
 No 2e integrals to process.
 Perform NBO analysis...executing G16NBO...

 *********************************** NBO 7.0 ***********************************
             N A T U R A L   A T O M I C   O R B I T A L   A N D
          N A T U R A L   B O N D   O R B I T A L   A N A L Y S I S
 *************************** Mary Van Vleet (I102706) **************************
  (c) Copyright 1996-2021 Board of Regents of the University of Wisconsin System
      on behalf of the Theoretical Chemistry Institute.  All rights reserved.

          Cite this program [NBO 7.0.10 (8-Feb-2021)] as:

          NBO 7.0.  E. D. Glendening, J. K. Badenhoop, A. E. Reed,
          J. E. Carpenter, J. A. Bohmann, C. M. Morales, P. Karafiloglou,
          C. R. Landis, and F. Weinhold, Theoretical Chemistry Institute,
          University of Wisconsin, Madison, WI (2018)

 Filename set to /local/mvanvleet/pbs.15351.josephine/Gau-209836

 Job title: trans-(F)Ir(PH3)2(CO)


 NATURAL POPULATIONS:  Natural atomic orbital occupancies

  NAO Atom No lang   Type(AO)    Occupancy      Energy
 -------------------------------------------------------
   1   Ir  1  s      Cor( 5s)     1.99997      -3.55698
   2   Ir  1  s      Val( 6s)     0.67356       0.74433
   3   Ir  1  s      Ryd( 9s)     0.00488      11.69183
   4   Ir  1  s      Ryd( 8s)     0.00094       6.35527
   5   Ir  1  s      Ryd(10s)     0.00024      63.02029
   6   Ir  1  s      Ryd( 7s)     0.00003       6.19389
   7   Ir  1  px     Cor( 5p)     1.99993      -1.94434
   8   Ir  1  px     Ryd( 8p)     0.00224       0.87577
   9   Ir  1  px     Ryd( 6p)     0.00283       1.64188
  10   Ir  1  px     Ryd( 7p)     0.00056       8.98852
  11   Ir  1  px     Ryd( 9p)     0.00005      29.33117
  12   Ir  1  py     Cor( 5p)     1.99986      -1.95381
  13   Ir  1  py     Ryd( 8p)     0.00091      14.69348
  14   Ir  1  py     Ryd( 6p)     0.00162       1.91059
  15   Ir  1  py     Ryd( 7p)     0.00023       2.81515
  16   Ir  1  py     Ryd( 9p)     0.00006      41.24141
  17   Ir  1  pz     Cor( 5p)     1.99996      -1.90074
  18   Ir  1  pz     Ryd( 8p)     0.01053       0.35592
  19   Ir  1  pz     Ryd( 6p)     0.00071       1.29534
  20   Ir  1  pz     Ryd( 7p)     0.00010       0.72978
  21   Ir  1  pz     Ryd( 9p)     0.00000      44.93574
  22   Ir  1  dxy    Val( 5d)     1.73931      -0.24558
  23   Ir  1  dxy    Ryd( 6d)     0.00219       0.62650
  24   Ir  1  dxy    Ryd( 7d)     0.00044       0.37584
  25   Ir  1  dxz    Val( 5d)     1.89153      -0.21419
  26   Ir  1  dxz    Ryd( 6d)     0.00172       0.55970
  27   Ir  1  dxz    Ryd( 7d)     0.00007       0.31035
  28   Ir  1  dyz    Val( 5d)     1.67445      -0.20311
  29   Ir  1  dyz    Ryd( 6d)     0.00392       0.57562
  30   Ir  1  dyz    Ryd( 7d)     0.00016       0.26378
  31   Ir  1  dx2y2  Val( 5d)     1.19575      -0.26007
  32   Ir  1  dx2y2  Ryd( 6d)     0.00485       0.94390
  33   Ir  1  dx2y2  Ryd( 7d)     0.00053       2.32014
  34   Ir  1  dz2    Val( 5d)     1.87270      -0.20298
  35   Ir  1  dz2    Ryd( 6d)     0.00142       1.42503
  36   Ir  1  dz2    Ryd( 7d)     0.00202       1.24835

  37    C  2  s      Cor( 1s)     1.99998      -9.98440
  38    C  2  s      Val( 2s)     1.17032      -0.23060
  39    C  2  s      Ryd( 3s)     0.02785       2.29077
  40    C  2  s      Ryd( 4s)     0.00050       6.95328
  41    C  2  s      Ryd( 5s)     0.00005      16.63066
  42    C  2  px     Val( 2p)     0.69796      -0.14111
  43    C  2  px     Ryd( 3p)     0.00111       0.77128
  44    C  2  px     Ryd( 4p)     0.00041       0.81824
  45    C  2  px     Ryd( 5p)     0.00010       2.50971
  46    C  2  py     Val( 2p)     0.86048       0.06221
  47    C  2  py     Ryd( 3p)     0.01980       4.21962
  48    C  2  py     Ryd( 4p)     0.00049       5.42076
  49    C  2  py     Ryd( 5p)     0.00009       6.81396
  50    C  2  pz     Val( 2p)     0.75821      -0.13885
  51    C  2  pz     Ryd( 3p)     0.00202       0.68042
  52    C  2  pz     Ryd( 4p)     0.00015       0.89807
  53    C  2  pz     Ryd( 5p)     0.00003       2.44132
  54    C  2  dxy    Ryd( 3d)     0.00408       1.67699
  55    C  2  dxz    Ryd( 3d)     0.00009       1.25682
  56    C  2  dyz    Ryd( 3d)     0.00465       1.65018
  57    C  2  dx2y2  Ryd( 3d)     0.00083       2.07945
  58    C  2  dz2    Ryd( 3d)     0.00053       1.57587

  59    P  3  s      Cor( 1s)     2.00000     -75.99643
  60    P  3  s      Cor( 2s)     1.99997      -6.70353
  61    P  3  s      Val( 3s)     1.44646      -0.39814
  62    P  3  s      Ryd( 4s)     0.00382       1.68546
  63    P  3  s      Ryd( 5s)     0.00099       6.08548
  64    P  3  s      Ryd( 6s)     0.00000      15.83540
  65    P  3  s      Ryd( 7s)     0.00000     153.36719
  66    P  3  px     Cor( 2p)     2.00000      -4.57018
  67    P  3  px     Val( 3p)     1.28193      -0.11339
  68    P  3  px     Ryd( 4p)     0.00587       1.56604
  69    P  3  px     Ryd( 6p)     0.00068       1.88022
  70    P  3  px     Ryd( 5p)     0.00004       1.07266
  71    P  3  px     Ryd( 7p)     0.00000      13.49203
  72    P  3  py     Cor( 2p)     2.00000      -4.57315
  73    P  3  py     Val( 3p)     1.00877      -0.16908
  74    P  3  py     Ryd( 4p)     0.00144       0.62204
  75    P  3  py     Ryd( 6p)     0.00025       0.81980
  76    P  3  py     Ryd( 5p)     0.00005       1.12149
  77    P  3  py     Ryd( 7p)     0.00000      13.51346
  78    P  3  pz     Cor( 2p)     2.00000      -4.57306
  79    P  3  pz     Val( 3p)     1.00042      -0.17106
  80    P  3  pz     Ryd( 4p)     0.00191       0.52344
  81    P  3  pz     Ryd( 6p)     0.00035       0.68252
  82    P  3  pz     Ryd( 5p)     0.00001       1.05662
  83    P  3  pz     Ryd( 7p)     0.00000      13.51840
  84    P  3  dxy    Ryd( 3d)     0.00775       0.88025
  85    P  3  dxz    Ryd( 3d)     0.00902       0.86379
  86    P  3  dyz    Ryd( 3d)     0.00300       0.82168
  87    P  3  dx2y2  Ryd( 3d)     0.00228       0.99337
  88    P  3  dz2    Ryd( 3d)     0.00295       0.90463

  89    F  4  s      Cor( 1s)     2.00000     -24.14526
  90    F  4  s      Val( 2s)     1.94733      -0.91698
  91    F  4  s      Ryd( 4s)     0.00072       6.48634
  92    F  4  s      Ryd( 3s)     0.00003       3.64499
  93    F  4  s      Ryd( 5s)     0.00000      65.70460
  94    F  4  px     Val( 2p)     1.97679      -0.25938
  95    F  4  px     Ryd( 4p)     0.00228       0.54785
  96    F  4  px     Ryd( 3p)     0.00021       1.28294
  97    F  4  px     Ryd( 5p)     0.00000       6.30309
  98    F  4  py     Val( 2p)     1.76682      -0.26777
  99    F  4  py     Ryd( 4p)     0.00069       3.70503
 100    F  4  py     Ryd( 3p)     0.00023       1.43222
 101    F  4  py     Ryd( 5p)     0.00001       6.24546
 102    F  4  pz     Val( 2p)     1.94777      -0.25925
 103    F  4  pz     Ryd( 4p)     0.00222       0.51959
 104    F  4  pz     Ryd( 3p)     0.00002       1.23091
 105    F  4  pz     Ryd( 5p)     0.00000       6.27336
 106    F  4  dxy    Ryd( 3d)     0.00014       3.80432
 107    F  4  dxz    Ryd( 3d)     0.00000       3.77148
 108    F  4  dyz    Ryd( 3d)     0.00014       3.78143
 109    F  4  dx2y2  Ryd( 3d)     0.00022       3.91684
 110    F  4  dz2    Ryd( 3d)     0.00007       3.82106

 111    P  5  s      Cor( 1s)     2.00000     -75.99643
 112    P  5  s      Cor( 2s)     1.99997      -6.70352
 113    P  5  s      Val( 3s)     1.44647      -0.39814
 114    P  5  s      Ryd( 4s)     0.00382       1.68546
 115    P  5  s      Ryd( 5s)     0.00099       6.08543
 116    P  5  s      Ryd( 6s)     0.00000      15.83547
 117    P  5  s      Ryd( 7s)     0.00000     153.36711
 118    P  5  px     Cor( 2p)     2.00000      -4.57018
 119    P  5  px     Val( 3p)     1.28193      -0.11339
 120    P  5  px     Ryd( 4p)     0.00587       1.56604
 121    P  5  px     Ryd( 6p)     0.00068       1.88022
 122    P  5  px     Ryd( 5p)     0.00004       1.07267
 123    P  5  px     Ryd( 7p)     0.00000      13.49203
 124    P  5  py     Cor( 2p)     2.00000      -4.57315
 125    P  5  py     Val( 3p)     1.00877      -0.16908
 126    P  5  py     Ryd( 4p)     0.00144       0.62204
 127    P  5  py     Ryd( 6p)     0.00025       0.81980
 128    P  5  py     Ryd( 5p)     0.00005       1.12149
 129    P  5  py     Ryd( 7p)     0.00000      13.51346
 130    P  5  pz     Cor( 2p)     2.00000      -4.57306
 131    P  5  pz     Val( 3p)     1.00042      -0.17106
 132    P  5  pz     Ryd( 4p)     0.00191       0.52344
 133    P  5  pz     Ryd( 6p)     0.00035       0.68252
 134    P  5  pz     Ryd( 5p)     0.00001       1.05663
 135    P  5  pz     Ryd( 7p)     0.00000      13.51840
 136    P  5  dxy    Ryd( 3d)     0.00775       0.88025
 137    P  5  dxz    Ryd( 3d)     0.00902       0.86379
 138    P  5  dyz    Ryd( 3d)     0.00300       0.82168
 139    P  5  dx2y2  Ryd( 3d)     0.00228       0.99337
 140    P  5  dz2    Ryd( 3d)     0.00295       0.90463

 141    O  6  s      Cor( 1s)     1.99999     -18.80031
 142    O  6  s      Val( 2s)     1.70566      -0.65299
 143    O  6  s      Ryd( 4s)     0.00740       3.96400
 144    O  6  s      Ryd( 3s)     0.00003       1.68329
 145    O  6  s      Ryd( 5s)     0.00000      49.05448
 146    O  6  px     Val( 2p)     1.53567      -0.28112
 147    O  6  px     Ryd( 3p)     0.00164       0.48493
 148    O  6  px     Ryd( 4p)     0.00005       1.18233
 149    O  6  px     Ryd( 5p)     0.00001       4.61721
 150    O  6  py     Val( 2p)     1.62932      -0.31050
 151    O  6  py     Ryd( 3p)     0.00061       1.04620
 152    O  6  py     Ryd( 4p)     0.00030       1.54981
 153    O  6  py     Ryd( 5p)     0.00003       5.03107
 154    O  6  pz     Val( 2p)     1.57743      -0.27909
 155    O  6  pz     Ryd( 3p)     0.00304       0.48493
 156    O  6  pz     Ryd( 4p)     0.00002       1.19563
 157    O  6  pz     Ryd( 5p)     0.00000       4.56481
 158    O  6  dxy    Ryd( 3d)     0.00260       2.86082
 159    O  6  dxz    Ryd( 3d)     0.00000       2.67621
 160    O  6  dyz    Ryd( 3d)     0.00261       2.86003
 161    O  6  dx2y2  Ryd( 3d)     0.00344       3.18497
 162    O  6  dz2    Ryd( 3d)     0.00117       2.84785

 163    H  7  s      Val( 1s)     0.94896      -0.14390
 164    H  7  s      Ryd( 2s)     0.00150       0.46259
 165    H  7  s      Ryd( 3s)     0.00007       2.21132
 166    H  7  px     Ryd( 2p)     0.00063       1.49778
 167    H  7  py     Ryd( 2p)     0.00062       1.47685
 168    H  7  pz     Ryd( 2p)     0.00153       1.71505

 169    H  8  s      Val( 1s)     0.94896      -0.14390
 170    H  8  s      Ryd( 2s)     0.00150       0.46259
 171    H  8  s      Ryd( 3s)     0.00007       2.21131
 172    H  8  px     Ryd( 2p)     0.00063       1.49778
 173    H  8  py     Ryd( 2p)     0.00062       1.47683
 174    H  8  pz     Ryd( 2p)     0.00153       1.71506

 175    H  9  s      Val( 1s)     0.93299      -0.13511
 176    H  9  s      Ryd( 2s)     0.00146       0.45966
 177    H  9  s      Ryd( 3s)     0.00006       2.28727
 178    H  9  px     Ryd( 2p)     0.00042       1.54558
 179    H  9  py     Ryd( 2p)     0.00201       1.84295
 180    H  9  pz     Ryd( 2p)     0.00014       1.35983

 181    H 10  s      Val( 1s)     0.94896      -0.14390
 182    H 10  s      Ryd( 2s)     0.00150       0.46259
 183    H 10  s      Ryd( 3s)     0.00007       2.21131
 184    H 10  px     Ryd( 2p)     0.00063       1.49778
 185    H 10  py     Ryd( 2p)     0.00062       1.47684
 186    H 10  pz     Ryd( 2p)     0.00153       1.71506

 187    H 11  s      Val( 1s)     0.94896      -0.14390
 188    H 11  s      Ryd( 2s)     0.00150       0.46259
 189    H 11  s      Ryd( 3s)     0.00007       2.21132
 190    H 11  px     Ryd( 2p)     0.00063       1.49778
 191    H 11  py     Ryd( 2p)     0.00062       1.47685
 192    H 11  pz     Ryd( 2p)     0.00153       1.71505

 193    H 12  s      Val( 1s)     0.93299      -0.13511
 194    H 12  s      Ryd( 2s)     0.00146       0.45966
 195    H 12  s      Ryd( 3s)     0.00006       2.28727
 196    H 12  px     Ryd( 2p)     0.00042       1.54558
 197    H 12  py     Ryd( 2p)     0.00201       1.84294
 198    H 12  pz     Ryd( 2p)     0.00014       1.35983

 [60 electrons found in the effective core potential]


 Summary of Natural Population Analysis:

                                     Natural Population
             Natural    ---------------------------------------------
  Atom No    Charge        Core      Valence    Rydberg      Total
 --------------------------------------------------------------------
   Ir  1   -0.09025     67.99972     9.04729    0.04325    77.09025
    C  2    0.45027      1.99998     3.48698    0.06278     5.54973
    P  3    0.22204      9.99997     4.73759    0.04041    14.77796
    F  4   -0.64569      2.00000     7.63872    0.00697     9.64569
    P  5    0.22203      9.99997     4.73759    0.04041    14.77797
    O  6   -0.47101      1.99999     6.44808    0.02293     8.47101
    H  7    0.04669      0.00000     0.94896    0.00435     0.95331
    H  8    0.04669      0.00000     0.94896    0.00435     0.95331
    H  9    0.06292      0.00000     0.93299    0.00409     0.93708
    H 10    0.04669      0.00000     0.94896    0.00435     0.95331
    H 11    0.04670      0.00000     0.94896    0.00435     0.95330
    H 12    0.06292      0.00000     0.93299    0.00409     0.93708
 ====================================================================
 * Total *  0.00000     93.99963    41.75807    0.24230   136.00000

                                 Natural Population
 ---------------------------------------------------------
   Effective Core            60.00000
   Core                      33.99963 ( 99.9989% of   34)
   Valence                   41.75807 ( 99.4240% of   42)
   Natural Minimal Basis    135.75770 ( 99.8218% of  136)
   Natural Rydberg Basis      0.24230 (  0.1782% of  136)
 ---------------------------------------------------------

    Atom No         Natural Electron Configuration
 ----------------------------------------------------------------------------
     Ir  1      [core]6s( 0.67)5d( 8.37)6p( 0.01)6d( 0.01)
      C  2      [core]2s( 1.17)2p( 2.32)3s( 0.03)3p( 0.02)3d( 0.01)
      P  3      [core]3s( 1.45)3p( 3.29)3d( 0.02)4p( 0.01)
      F  4      [core]2s( 1.95)2p( 5.69)4p( 0.01)
      P  5      [core]3s( 1.45)3p( 3.29)3d( 0.02)4p( 0.01)
      O  6      [core]2s( 1.71)2p( 4.74)3p( 0.01)4s( 0.01)3d( 0.01)
      H  7            1s( 0.95)
      H  8            1s( 0.95)
      H  9            1s( 0.93)
      H 10            1s( 0.95)
      H 11            1s( 0.95)
      H 12            1s( 0.93)


 NATURAL BOND ORBITAL ANALYSIS:

                            Occupancies       Lewis Structure    Low   High
         Max    Occ     -------------------  -----------------   occ   occ
  Cycle  Ctr   Thresh    Lewis   non-Lewis     CR  BD  nC  LP    (L)   (NL)
 ============================================================================
    1     2     1.90   133.53262   2.46738     17  13   0   8     4      4
    2     2     1.89   133.53262   2.46738     17  13   0   8     3      4
    3     2     1.76   133.53262   2.46738     17  13   0   8     3      4
    4     2     1.74   133.90228   2.09772     17  11   0  10     3      4
    5     2     1.72   134.19646   1.80354     17  11   0  10     2      4
    6     2     1.68   134.19646   1.80354     17  11   0  10     1      4
    7     2     1.58   133.77687   2.22313     17  10   0  11     1      4
    8     2     1.55   133.37075   2.62925     17   9   0  12     0      4
    9     2     1.53   132.90968   3.09032     17   8   0  13     0      4
   10     3     1.72   134.19646   1.80354     17  11   0  10     2      4
   11     2     1.72   134.19646   1.80354     17  11   0  10     2      4
 ----------------------------------------------------------------------------

 Strongly delocalized structure accepted

 -------------------------------------------------------
   Effective core           60.00000
   Core                     33.99963 ( 99.999% of  34)
   Valence Lewis            40.19684 ( 95.707% of  42)
  ==================      =============================
   Total Lewis             134.19646 ( 98.674% of 136)
  -----------------------------------------------------
   Valence non-Lewis         1.66958 (  1.228% of 136)
   Rydberg non-Lewis         0.13396 (  0.098% of 136)
  ==================      =============================
   Total non-Lewis           1.80354 (  1.326% of 136)
 -------------------------------------------------------


     (Occupancy)   Bond orbital / Coefficients / Hybrids
 ------------------ Lewis ------------------------------------------------------
   1. (1.99997) CR ( 1)Ir  1            s(100.00%)
                                         1.0000  0.0000  0.0000  0.0000  0.0000
                                         0.0000  0.0000  0.0000  0.0000  0.0000
                                         0.0000  0.0000  0.0000  0.0000  0.0000
                                         0.0000  0.0000  0.0000  0.0000  0.0000
                                         0.0000  0.0000  0.0000  0.0000  0.0000
                                         0.0000  0.0000  0.0000  0.0000  0.0000
                                         0.0000  0.0000  0.0000  0.0000  0.0000
                                         0.0000
   2. (1.99993) CR ( 2)Ir  1            s(  0.00%)p 1.00(100.00%)
                                         0.0000  0.0000  0.0000  0.0000  0.0000
                                         0.0000  1.0000  0.0000  0.0000  0.0000
                                         0.0000  0.0000  0.0000  0.0000  0.0000
                                         0.0000  0.0000  0.0000  0.0000  0.0000
                                         0.0000  0.0000  0.0000  0.0000  0.0000
                                         0.0000  0.0000  0.0000  0.0000  0.0000
                                         0.0000  0.0000  0.0000  0.0000  0.0000
                                         0.0000
   3. (1.99986) CR ( 3)Ir  1            s(  0.00%)p 1.00(100.00%)
                                         0.0000  0.0000  0.0000  0.0000  0.0000
                                         0.0000  0.0000  0.0000  0.0000  0.0000
                                         0.0000  1.0000  0.0000  0.0000  0.0000
                                         0.0000  0.0000  0.0000  0.0000  0.0000
                                         0.0000  0.0000  0.0000  0.0000  0.0000
                                         0.0000  0.0000  0.0000  0.0000  0.0000
                                         0.0000  0.0000  0.0000  0.0000  0.0000
                                         0.0000
   4. (1.99996) CR ( 4)Ir  1            s(  0.00%)p 1.00(100.00%)
                                         0.0000  0.0000  0.0000  0.0000  0.0000
                                         0.0000  0.0000  0.0000  0.0000  0.0000
                                         0.0000  0.0000  0.0000  0.0000  0.0000
                                         0.0000  1.0000  0.0000  0.0000  0.0000
                                         0.0000  0.0000  0.0000  0.0000  0.0000
                                         0.0000  0.0000  0.0000  0.0000  0.0000
                                         0.0000  0.0000  0.0000  0.0000  0.0000
                                         0.0000
   5. (1.99998) CR ( 1) C  2            s(100.00%)
                                         1.0000  0.0000  0.0000  0.0000  0.0000
                                         0.0000  0.0000  0.0000  0.0000  0.0000
                                         0.0000  0.0000  0.0000  0.0000  0.0000
                                         0.0000  0.0000  0.0000  0.0000  0.0000
                                         0.0000  0.0000
   6. (2.00000) CR ( 1) P  3            s(100.00%)
                                         1.0000  0.0000  0.0000  0.0000  0.0000
                                         0.0000  0.0000  0.0000  0.0000  0.0000
                                         0.0000  0.0000  0.0000  0.0000  0.0000
                                         0.0000  0.0000  0.0000  0.0000  0.0000
                                         0.0000  0.0000  0.0000  0.0000  0.0000
                                         0.0000  0.0000  0.0000  0.0000  0.0000
   7. (1.99997) CR ( 2) P  3            s(100.00%)
                                         0.0000  1.0000  0.0000  0.0000  0.0000
                                         0.0000  0.0000  0.0000  0.0000  0.0000
                                         0.0000  0.0000  0.0000  0.0000  0.0000
                                         0.0000  0.0000  0.0000  0.0000  0.0000
                                         0.0000  0.0000  0.0000  0.0000  0.0000
                                         0.0000  0.0000  0.0000  0.0000  0.0000
   8. (2.00000) CR ( 3) P  3            s(  0.00%)p 1.00(100.00%)
                                         0.0000  0.0000  0.0000  0.0000  0.0000
                                         0.0000  0.0000  1.0000  0.0000  0.0000
                                         0.0000  0.0000  0.0000  0.0000  0.0000
                                         0.0000  0.0000  0.0000  0.0000  0.0000
                                         0.0000  0.0000  0.0000  0.0000  0.0000
                                         0.0000  0.0000  0.0000  0.0000  0.0000
   9. (2.00000) CR ( 4) P  3            s(  0.00%)p 1.00(100.00%)
                                         0.0000  0.0000  0.0000  0.0000  0.0000
                                         0.0000  0.0000  0.0000  0.0000  0.0000
                                         0.0000  0.0000  0.0000  1.0000  0.0000
                                         0.0000  0.0000  0.0000  0.0000  0.0000
                                         0.0000  0.0000  0.0000  0.0000  0.0000
                                         0.0000  0.0000  0.0000  0.0000  0.0000
  10. (2.00000) CR ( 5) P  3            s(  0.00%)p 1.00(100.00%)
                                         0.0000  0.0000  0.0000  0.0000  0.0000
                                         0.0000  0.0000  0.0000  0.0000  0.0000
                                         0.0000  0.0000  0.0000  0.0000  0.0000
                                         0.0000  0.0000  0.0000  0.0000  1.0000
                                         0.0000  0.0000  0.0000  0.0000  0.0000
                                         0.0000  0.0000  0.0000  0.0000  0.0000
  11. (2.00000) CR ( 1) F  4            s(100.00%)
                                         1.0000  0.0000  0.0000  0.0000  0.0000
                                         0.0000  0.0000  0.0000  0.0000  0.0000
                                         0.0000  0.0000  0.0000  0.0000  0.0000
                                         0.0000  0.0000  0.0000  0.0000  0.0000
                                         0.0000  0.0000
  12. (2.00000) CR ( 1) P  5            s(100.00%)
                                         1.0000  0.0000  0.0000  0.0000  0.0000
                                         0.0000  0.0000  0.0000  0.0000  0.0000
                                         0.0000  0.0000  0.0000  0.0000  0.0000
                                         0.0000  0.0000  0.0000  0.0000  0.0000
                                         0.0000  0.0000  0.0000  0.0000  0.0000
                                         0.0000  0.0000  0.0000  0.0000  0.0000
  13. (1.99997) CR ( 2) P  5            s(100.00%)
                                         0.0000  1.0000  0.0000  0.0000  0.0000
                                         0.0000  0.0000  0.0000  0.0000  0.0000
                                         0.0000  0.0000  0.0000  0.0000  0.0000
                                         0.0000  0.0000  0.0000  0.0000  0.0000
                                         0.0000  0.0000  0.0000  0.0000  0.0000
                                         0.0000  0.0000  0.0000  0.0000  0.0000
  14. (2.00000) CR ( 3) P  5            s(  0.00%)p 1.00(100.00%)
                                         0.0000  0.0000  0.0000  0.0000  0.0000
                                         0.0000  0.0000  1.0000  0.0000  0.0000
                                         0.0000  0.0000  0.0000  0.0000  0.0000
                                         0.0000  0.0000  0.0000  0.0000  0.0000
                                         0.0000  0.0000  0.0000  0.0000  0.0000
                                         0.0000  0.0000  0.0000  0.0000  0.0000
  15. (2.00000) CR ( 4) P  5            s(  0.00%)p 1.00(100.00%)
                                         0.0000  0.0000  0.0000  0.0000  0.0000
                                         0.0000  0.0000  0.0000  0.0000  0.0000
                                         0.0000  0.0000  0.0000  1.0000  0.0000
                                         0.0000  0.0000  0.0000  0.0000  0.0000
                                         0.0000  0.0000  0.0000  0.0000  0.0000
                                         0.0000  0.0000  0.0000  0.0000  0.0000
  16. (2.00000) CR ( 5) P  5            s(  0.00%)p 1.00(100.00%)
                                         0.0000  0.0000  0.0000  0.0000  0.0000
                                         0.0000  0.0000  0.0000  0.0000  0.0000
                                         0.0000  0.0000  0.0000  0.0000  0.0000
                                         0.0000  0.0000  0.0000  0.0000  1.0000
                                         0.0000  0.0000  0.0000  0.0000  0.0000
                                         0.0000  0.0000  0.0000  0.0000  0.0000
  17. (1.99999) CR ( 1) O  6            s(100.00%)
                                         1.0000  0.0000  0.0000  0.0000  0.0000
                                         0.0000  0.0000  0.0000  0.0000  0.0000
                                         0.0000  0.0000  0.0000  0.0000  0.0000
                                         0.0000  0.0000  0.0000  0.0000  0.0000
                                         0.0000  0.0000
  18. (1.97605) LP ( 1)Ir  1            s(  5.49%)p 0.00(  0.01%)d17.20( 94.50%)
                                         0.0000  0.2304 -0.0423 -0.0068 -0.0014
                                        -0.0001  0.0000  0.0000  0.0000  0.0000
                                         0.0000  0.0000 -0.0045 -0.0073  0.0022
                                        -0.0014  0.0000  0.0000  0.0000  0.0000
                                         0.0000  0.0000  0.0000  0.0000  0.0000
                                         0.0000  0.0000  0.0000  0.0000  0.0000
                                        -0.1396 -0.0357 -0.0037  0.9609  0.0014
                                        -0.0282
  19. (1.89168) LP ( 2)Ir  1            s(  0.00%)p 0.00(  0.00%)d 1.00(100.00%)
                                         0.0000  0.0000  0.0000  0.0000  0.0000
                                         0.0000  0.0000  0.0000  0.0000  0.0000
                                         0.0000  0.0000  0.0000  0.0000  0.0000
                                         0.0000  0.0000  0.0000  0.0000  0.0000
                                         0.0000  0.0000  0.0000  0.0000  1.0000
                                         0.0089 -0.0010  0.0000  0.0000  0.0000
                                         0.0000  0.0000  0.0000  0.0000  0.0000
                                         0.0000
  20. (1.74040) LP ( 3)Ir  1            s(  0.00%)p 1.00(  0.02%)d99.99( 99.98%)
                                         0.0000  0.0000  0.0000  0.0000  0.0000
                                         0.0000  0.0000 -0.0153 -0.0020  0.0020
                                         0.0021  0.0000  0.0000  0.0000  0.0000
                                         0.0000  0.0000  0.0000  0.0000  0.0000
                                         0.0000  0.9997  0.0128  0.0146  0.0000
                                         0.0000  0.0000  0.0000  0.0000  0.0000
                                         0.0000  0.0000  0.0000  0.0000  0.0000
                                         0.0000
  21. (1.68340) LP ( 4)Ir  1            s(  0.00%)p 1.00(  0.33%)d99.99( 99.67%)
                                         0.0000  0.0001  0.0000  0.0000  0.0000
                                         0.0000  0.0000  0.0000  0.0000  0.0000
                                         0.0000  0.0000  0.0000  0.0000  0.0000
                                         0.0000  0.0000 -0.0554 -0.0151 -0.0021
                                        -0.0001  0.0000  0.0000  0.0000  0.0000
                                         0.0000  0.0000  0.9973 -0.0448  0.0053
                                         0.0000  0.0000  0.0000  0.0000  0.0000
                                         0.0000
  22. (1.46019) LP ( 1) P  3            s( 22.22%)p 3.50( 77.69%)d 0.00(  0.08%)
                                         0.0000  0.0000  0.4707  0.0181  0.0189
                                        -0.0001  0.0000  0.0000  0.8802 -0.0410
                                         0.0103  0.0023  0.0000  0.0000 -0.0178
                                         0.0006 -0.0010  0.0004 -0.0001  0.0000
                                         0.0000  0.0000  0.0000  0.0000  0.0000
                                        -0.0005  0.0000  0.0000  0.0260 -0.0117
  23. (1.99401) LP ( 1) F  4            s( 82.97%)p 0.21( 17.03%)d 0.00(  0.00%)
                                         0.0000  0.9109 -0.0004  0.0004  0.0002
                                         0.0000  0.0000  0.0000  0.0000  0.4126
                                        -0.0036 -0.0052  0.0016  0.0000  0.0000
                                         0.0000  0.0000  0.0000  0.0000  0.0000
                                         0.0006  0.0005
  24. (1.97700) LP ( 2) F  4            s(  0.00%)p 1.00(100.00%)d 0.00(  0.00%)
                                         0.0000  0.0000  0.0000  0.0000  0.0000
                                         0.9999  0.0069 -0.0027 -0.0002  0.0000
                                         0.0000  0.0000  0.0000  0.0000  0.0000
                                         0.0000  0.0000 -0.0070  0.0000  0.0000
                                         0.0000  0.0000
  25. (1.94789) LP ( 3) F  4            s(  0.00%)p 1.00( 99.99%)d 0.00(  0.01%)
                                         0.0000  0.0000  0.0000  0.0000  0.0000
                                         0.0000  0.0000  0.0000  0.0000  0.0000
                                         0.0000  0.0000  0.0000  1.0000  0.0019
                                        -0.0013 -0.0001  0.0000  0.0000 -0.0073
                                         0.0000  0.0000
  26. (1.72073) LP ( 4) F  4            s( 17.02%)p 4.87( 82.96%)d 0.00(  0.01%)
                                         0.0000  0.4126  0.0009 -0.0010 -0.0004
                                         0.0000  0.0000  0.0000  0.0000 -0.9108
                                         0.0092 -0.0079  0.0004  0.0000  0.0000
                                         0.0000  0.0000  0.0000  0.0000  0.0000
                                        -0.0106 -0.0060
  27. (1.97976) LP ( 1) O  6            s( 55.70%)p 0.79( 44.26%)d 0.00(  0.04%)
                                         0.0000  0.7458  0.0268 -0.0005  0.0001
                                         0.0000  0.0000  0.0000  0.0000 -0.6652
                                        -0.0096  0.0022 -0.0028  0.0000  0.0000
                                         0.0000  0.0000  0.0000  0.0000  0.0000
                                         0.0185  0.0103
  28. (1.94927) BD ( 1)Ir  1- C  2
               ( 32.30%)   0.5683*Ir  1 s( 38.01%)p 0.00(  0.13%)d 1.63( 61.86%)
                                         0.0000  0.6162  0.0107  0.0094  0.0116
                                        -0.0005  0.0000  0.0081 -0.0131 -0.0004
                                        -0.0008  0.0000 -0.0236  0.0202 -0.0105
                                        -0.0057  0.0000  0.0000  0.0000  0.0000
                                         0.0000  0.0001 -0.0035  0.0002  0.0000
                                         0.0000  0.0000 -0.0001  0.0000  0.0000
                                        -0.7433  0.0209 -0.0157 -0.2548  0.0193
                                        -0.0100
               ( 67.70%)   0.8228* C  2 s( 63.65%)p 0.57( 36.34%)d 0.00(  0.02%)
                                         0.0000  0.7967  0.0417  0.0037  0.0015
                                         0.0000  0.0000  0.0000  0.0000  0.6013
                                         0.0405  0.0149 -0.0009  0.0000  0.0000
                                         0.0000  0.0000  0.0000  0.0000  0.0000
                                        -0.0099 -0.0085
  29. (1.94624) BD ( 1)Ir  1- P  5
               ( 30.54%)   0.5527*Ir  1 s( 56.21%)p 0.00(  0.24%)d 0.77( 43.55%)
                                         0.0000  0.7494  0.0202  0.0090  0.0009
                                         0.0008  0.0000  0.0259 -0.0418 -0.0012
                                        -0.0025  0.0000 -0.0024  0.0003 -0.0018
                                        -0.0014  0.0000  0.0000  0.0000  0.0000
                                         0.0000  0.0005 -0.0113  0.0006  0.0000
                                         0.0000  0.0000  0.0000  0.0000  0.0000
                                         0.6520  0.0471  0.0102 -0.0828 -0.0250
                                        -0.0196
               ( 69.46%)   0.8334* P  5 s( 35.83%)p 1.79( 64.08%)d 0.00(  0.09%)
                                         0.0000  0.0000  0.5984  0.0078  0.0145
                                        -0.0002  0.0000  0.0000 -0.7997  0.0332
                                        -0.0113 -0.0034 -0.0002  0.0000 -0.0074
                                        -0.0012 -0.0016  0.0001 -0.0001  0.0000
                                         0.0000  0.0000  0.0000  0.0000  0.0000
                                         0.0007  0.0000  0.0000  0.0280 -0.0123
  30. (1.99965) BD ( 1) C  2- O  6
               ( 25.23%)   0.5023* C  2 s(  0.00%)p 1.00( 99.47%)d 0.01(  0.53%)
                                         0.0000  0.0000  0.0000  0.0000  0.0000
                                         0.0000  0.0000  0.0000  0.0000  0.0000
                                         0.0000  0.0000  0.0000  0.9970 -0.0232
                                        -0.0167 -0.0010  0.0000  0.0000 -0.0726
                                         0.0000  0.0000
               ( 74.77%)   0.8647* O  6 s(  0.00%)p 1.00( 99.83%)d 0.00(  0.17%)
                                         0.0000  0.0000  0.0000  0.0000  0.0000
                                         0.0000  0.0000  0.0000  0.0000  0.0000
                                         0.0000  0.0000  0.0000  0.9991 -0.0066
                                         0.0032 -0.0015  0.0000  0.0000  0.0413
                                         0.0000  0.0000
  31. (1.99936) BD ( 2) C  2- O  6
               ( 26.15%)   0.5114* C  2 s(  0.00%)p 1.00( 99.50%)d 0.01(  0.50%)
                                         0.0000  0.0000  0.0000  0.0000  0.0000
                                         0.9973 -0.0054 -0.0204 -0.0001  0.0000
                                         0.0000  0.0000  0.0000  0.0000  0.0000
                                         0.0000  0.0000 -0.0706  0.0000  0.0000
                                         0.0000  0.0000
               ( 73.85%)   0.8593* O  6 s(  0.00%)p 1.00( 99.83%)d 0.00(  0.17%)
                                         0.0000  0.0000  0.0000  0.0000  0.0000
                                         0.9991 -0.0077  0.0045 -0.0014  0.0000
                                         0.0000  0.0000  0.0000  0.0000  0.0000
                                         0.0000  0.0000  0.0416  0.0000  0.0000
                                         0.0000  0.0000
  32. (1.99835) BD ( 3) C  2- O  6
               ( 31.81%)   0.5640* C  2 s( 37.63%)p 1.65( 62.25%)d 0.00(  0.12%)
                                         0.0000  0.5941 -0.1527 -0.0105 -0.0017
                                         0.0000  0.0000  0.0000  0.0000 -0.7834
                                         0.0938 -0.0071 -0.0027  0.0000  0.0000
                                         0.0000  0.0000  0.0000  0.0000  0.0000
                                        -0.0291 -0.0181
               ( 68.19%)   0.8258* O  6 s( 44.47%)p 1.24( 55.26%)d 0.01(  0.27%)
                                         0.0000  0.6656 -0.0413  0.0007 -0.0003
                                         0.0000  0.0000  0.0000  0.0000  0.7432
                                        -0.0161 -0.0077  0.0009  0.0000  0.0000
                                         0.0000  0.0000  0.0000  0.0000  0.0000
                                        -0.0447 -0.0263
  33. (1.98933) BD ( 1) P  3- H  7
               ( 53.67%)   0.7326* P  3 s( 25.51%)p 2.90( 73.98%)d 0.02(  0.51%)
                                         0.0000  0.0000  0.5050 -0.0058 -0.0089
                                         0.0000  0.0000  0.0000 -0.2780 -0.0024
                                         0.0047  0.0009  0.0000  0.0000 -0.4077
                                        -0.0080  0.0027 -0.0003  0.0000  0.0000
                                        -0.7041 -0.0193  0.0036  0.0005 -0.0001
                                         0.0291  0.0486  0.0376  0.0036  0.0207
               ( 46.33%)   0.6806* H  7 s( 99.76%)p 0.00(  0.24%)
                                         0.9988 -0.0081 -0.0005  0.0232  0.0212
                                         0.0375
  34. (1.98933) BD ( 1) P  3- H  8
               ( 53.67%)   0.7326* P  3 s( 25.51%)p 2.90( 73.98%)d 0.02(  0.51%)
                                         0.0000  0.0000  0.5050 -0.0058 -0.0089
                                         0.0000  0.0000  0.0000 -0.2780 -0.0024
                                         0.0047  0.0009  0.0000  0.0000 -0.4077
                                        -0.0080  0.0027 -0.0003  0.0000  0.0000
                                         0.7042  0.0193 -0.0036 -0.0005  0.0001
                                         0.0291 -0.0486 -0.0376  0.0036  0.0207
               ( 46.33%)   0.6806* H  8 s( 99.76%)p 0.00(  0.24%)
                                         0.9988 -0.0081 -0.0005  0.0232  0.0212
                                        -0.0375
  35. (1.98920) BD ( 1) P  3- H  9
               ( 54.49%)   0.7382* P  3 s( 26.79%)p 2.71( 72.72%)d 0.02(  0.49%)
                                         0.0000  0.0000  0.5175 -0.0086 -0.0054
                                         0.0001  0.0000  0.0000 -0.2596  0.0035
                                         0.0081  0.0003 -0.0001  0.0000  0.8120
                                         0.0184 -0.0061 -0.0008  0.0000  0.0000
                                         0.0000  0.0000  0.0000  0.0000  0.0000
                                        -0.0555  0.0000  0.0000 -0.0270 -0.0326
               ( 45.51%)   0.6746* H  9 s( 99.76%)p 0.00(  0.24%)
                                         0.9988 -0.0082 -0.0003  0.0200 -0.0446
                                         0.0000
  36. (1.98855) BD ( 1) P  5- H 10
               ( 53.31%)   0.7301* P  5 s( 21.22%)p 3.69( 78.27%)d 0.02(  0.51%)
                                         0.0000  0.0000  0.4605 -0.0065 -0.0102
                                         0.0000  0.0000  0.0000  0.3478 -0.0004
                                        -0.0038 -0.0007  0.0000  0.0000 -0.4067
                                        -0.0078  0.0029 -0.0003  0.0000  0.0000
                                         0.7042  0.0193 -0.0036 -0.0005  0.0001
                                        -0.0292  0.0486 -0.0376  0.0011  0.0218
               ( 46.69%)   0.6833* H 10 s( 99.76%)p 0.00(  0.24%)
                                         0.9988 -0.0081 -0.0005 -0.0232  0.0212
                                        -0.0375
  37. (1.98855) BD ( 1) P  5- H 11
               ( 53.31%)   0.7301* P  5 s( 21.22%)p 3.69( 78.27%)d 0.02(  0.51%)
                                         0.0000  0.0000  0.4605 -0.0065 -0.0102
                                         0.0000  0.0000  0.0000  0.3478 -0.0004
                                        -0.0038 -0.0007  0.0000  0.0000 -0.4067
                                        -0.0078  0.0029 -0.0003  0.0000  0.0000
                                        -0.7041 -0.0193  0.0036  0.0005 -0.0001
                                        -0.0292 -0.0486  0.0376  0.0011  0.0218
               ( 46.69%)   0.6833* H 11 s( 99.76%)p 0.00(  0.24%)
                                         0.9988 -0.0081 -0.0005 -0.0232  0.0212
                                         0.0375
  38. (1.98789) BD ( 1) P  5- H 12
               ( 54.02%)   0.7350* P  5 s( 21.74%)p 3.58( 77.76%)d 0.02(  0.49%)
                                         0.0000  0.0000  0.4662 -0.0094 -0.0069
                                         0.0001  0.0000  0.0000  0.3403 -0.0067
                                        -0.0071  0.0000  0.0001  0.0000  0.8132
                                         0.0185 -0.0059 -0.0008  0.0000  0.0000
                                         0.0000  0.0000  0.0000  0.0000  0.0000
                                         0.0554  0.0000  0.0000 -0.0298 -0.0314
               ( 45.98%)   0.6781* H 12 s( 99.76%)p 0.00(  0.24%)
                                         0.9988 -0.0082 -0.0003 -0.0200 -0.0446
                                         0.0000
 ---------------- non-Lewis ----------------------------------------------------
  39. (0.30536) BD*( 1)Ir  1- C  2
               ( 67.70%)   0.8228*Ir  1 s( 38.01%)p 0.00(  0.13%)d 1.63( 61.86%)
                                         0.0000  0.6162  0.0107  0.0094  0.0116
                                        -0.0005  0.0000  0.0081 -0.0131 -0.0004
                                        -0.0008  0.0000 -0.0236  0.0202 -0.0105
                                        -0.0057  0.0000  0.0000  0.0000  0.0000
                                         0.0000  0.0001 -0.0035  0.0002  0.0000
                                         0.0000  0.0000 -0.0001  0.0000  0.0000
                                        -0.7433  0.0209 -0.0157 -0.2548  0.0193
                                        -0.0100
               ( 32.30%)  -0.5683* C  2 s( 63.65%)p 0.57( 36.34%)d 0.00(  0.02%)
                                         0.0000  0.7967  0.0417  0.0037  0.0015
                                         0.0000  0.0000  0.0000  0.0000  0.6013
                                         0.0405  0.0149 -0.0009  0.0000  0.0000
                                         0.0000  0.0000  0.0000  0.0000  0.0000
                                        -0.0099 -0.0085
  40. (0.49619) BD*( 1)Ir  1- P  5
               ( 69.46%)   0.8334*Ir  1 s( 56.21%)p 0.00(  0.24%)d 0.77( 43.55%)
                                         0.0000  0.7494  0.0202  0.0090  0.0009
                                         0.0008  0.0000  0.0259 -0.0418 -0.0012
                                        -0.0025  0.0000 -0.0024  0.0003 -0.0018
                                        -0.0014  0.0000  0.0000  0.0000  0.0000
                                         0.0000  0.0005 -0.0113  0.0006  0.0000
                                         0.0000  0.0000  0.0000  0.0000  0.0000
                                         0.6520  0.0471  0.0102 -0.0828 -0.0250
                                        -0.0196
               ( 30.54%)  -0.5527* P  5 s( 35.83%)p 1.79( 64.08%)d 0.00(  0.09%)
                                         0.0000  0.0000  0.5984  0.0078  0.0145
                                        -0.0002  0.0000  0.0000 -0.7997  0.0332
                                        -0.0113 -0.0034 -0.0002  0.0000 -0.0074
                                        -0.0012 -0.0016  0.0001 -0.0001  0.0000
                                         0.0000  0.0000  0.0000  0.0000  0.0000
                                         0.0007  0.0000  0.0000  0.0280 -0.0123
  41. (0.33614) BD*( 1) C  2- O  6
               ( 74.77%)   0.8647* C  2 s(  0.00%)p 1.00( 99.47%)d 0.01(  0.53%)
                                         0.0000  0.0000  0.0000  0.0000  0.0000
                                         0.0000  0.0000  0.0000  0.0000  0.0000
                                         0.0000  0.0000  0.0000  0.9970 -0.0232
                                        -0.0167 -0.0010  0.0000  0.0000 -0.0726
                                         0.0000  0.0000
               ( 25.23%)  -0.5023* O  6 s(  0.00%)p 1.00( 99.83%)d 0.00(  0.17%)
                                         0.0000  0.0000  0.0000  0.0000  0.0000
                                         0.0000  0.0000  0.0000  0.0000  0.0000
                                         0.0000  0.0000  0.0000  0.9991 -0.0066
                                         0.0032 -0.0015  0.0000  0.0000  0.0413
                                         0.0000  0.0000
  42. (0.23626) BD*( 2) C  2- O  6
               ( 73.85%)   0.8593* C  2 s(  0.00%)p 1.00( 99.50%)d 0.01(  0.50%)
                                         0.0000  0.0000  0.0000  0.0000  0.0000
                                         0.9973 -0.0054 -0.0204 -0.0001  0.0000
                                         0.0000  0.0000  0.0000  0.0000  0.0000
                                         0.0000  0.0000 -0.0706  0.0000  0.0000
                                         0.0000  0.0000
               ( 26.15%)  -0.5114* O  6 s(  0.00%)p 1.00( 99.83%)d 0.00(  0.17%)
                                         0.0000  0.0000  0.0000  0.0000  0.0000
                                         0.9991 -0.0077  0.0045 -0.0014  0.0000
                                         0.0000  0.0000  0.0000  0.0000  0.0000
                                         0.0000  0.0000  0.0416  0.0000  0.0000
                                         0.0000  0.0000
  43. (0.00534) BD*( 3) C  2- O  6
               ( 68.19%)   0.8258* C  2 s( 37.63%)p 1.65( 62.25%)d 0.00(  0.12%)
                                         0.0000  0.5941 -0.1527 -0.0105 -0.0017
                                         0.0000  0.0000  0.0000  0.0000 -0.7834
                                         0.0938 -0.0071 -0.0027  0.0000  0.0000
                                         0.0000  0.0000  0.0000  0.0000  0.0000
[...]
                                                     135(g),104(r),142(g),169(r)
                                                     174(r),83(v),184(v),189(v)
                                                     95(r),133(g),121(r),69(g)
                                                     98(r),194(v),179(r),49(g)
                                                     105(r),123(r),47(g),48(g)
                                                     183(r),182(r),110(r),130(r)
                                                     44(r),45(r),181(r),172(r)
                                                     177(r),170(r),175(r)
   30. BD ( 1) C  2- O  6       1.99965    -0.38226  41(g)
   31. BD ( 2) C  2- O  6       1.99936    -0.38672  42(g),46(r)
   32. BD ( 3) C  2- O  6       1.99835    -0.92480  55(v),57(v),71(v),116(r)
                                                     93(r),100(r),119(r),102(r)
                                                     118(r),97(r)
   36. BD ( 1) P  5- H 10       1.98855    -0.44710  48(g),49(g),40(g),100(r)
                                                     98(r),97(r),101(r),93(r)
                                                     116(r),102(r),105(r)
   37. BD ( 1) P  5- H 11       1.98855    -0.44710  47(g),49(g),40(g),100(r)
                                                     98(r),97(r),101(r),93(r)
                                                     116(r),102(r),105(r)
   38. BD ( 1) P  5- H 12       1.98789    -0.44372  40(g),47(g),48(g),78(r)
                                                     52(v),71(v),65(v),57(v)
                                                     116(r),93(r),55(v),152(r)
                                                     100(r),118(r),102(r),119(r)
                                                     97(r),98(r),104(r),95(r)
                                                     129(r),121(r)
 ------ non-Lewis ----------------------------------
   39. BD*( 1)Ir  1- C  2       0.30536     0.62683
   40. BD*( 1)Ir  1- P  5       0.49619     0.43119
   41. BD*( 1) C  2- O  6       0.33614    -0.02056
   42. BD*( 2) C  2- O  6       0.23626    -0.02344
   43. BD*( 3) C  2- O  6       0.00534     0.62106
   47. BD*( 1) P  5- H 10       0.04280     0.10643
   48. BD*( 1) P  5- H 11       0.04280     0.10643
   49. BD*( 1) P  5- H 12       0.03931     0.11537
   50. RY ( 1)Ir  1             0.00660     1.45053
   51. RY ( 2)Ir  1             0.00584     0.28081
   52. RY ( 3)Ir  1             0.00371    25.85243
   53. RY ( 4)Ir  1             0.00193     0.69829
   54. RY ( 5)Ir  1             0.00164     0.52662
   55. RY ( 6)Ir  1             0.00127     3.52305
   56. RY ( 7)Ir  1             0.00069     6.05201
   57. RY ( 8)Ir  1             0.00059     9.49201
   58. RY ( 9)Ir  1             0.00045     0.57894
   59. RY (10)Ir  1             0.00036     0.53796
   60. RY (11)Ir  1             0.00018     2.64643
   61. RY (12)Ir  1             0.00017     2.44894
   62. RY (13)Ir  1             0.00015     0.69288
   63. RY (14)Ir  1             0.00003     3.73455
   64. RY (15)Ir  1             0.00001    26.97539
   65. RY (16)Ir  1             0.00001     7.42275
   66. RY (17)Ir  1             0.00000     2.27055
   67. RY (18)Ir  1             0.00000     0.26362
   68. RY (19)Ir  1             0.00000     6.22381
   69. RY (20)Ir  1             0.00000     2.16433
   70. RY (21)Ir  1             0.00000    47.83588
   71. RY (22)Ir  1             0.00000    45.86601
   72. RY (23)Ir  1             0.00000     6.46089
   73. RY (24)Ir  1             0.00000    38.12352
   74. RY (25)Ir  1             0.00000     0.34317
   75. RY (26)Ir  1             0.00000     2.05855
   76. RY ( 1) C  2             0.01656     0.76747
   77. RY ( 2) C  2             0.00810     1.41431
   78. RY ( 3) C  2             0.00626     7.67966
   79. RY ( 4) C  2             0.00509     1.55416
   80. RY ( 5) C  2             0.00107     0.74101
   81. RY ( 6) C  2             0.00100     0.68181
   82. RY ( 7) C  2             0.00033     6.65177
   83. RY ( 8) C  2             0.00012     3.86888
   84. RY ( 9) C  2             0.00012     1.33785
   85. RY (10) C  2             0.00009     1.25682
   86. RY (11) C  2             0.00006     2.19067
   87. RY (12) C  2             0.00003    11.68022
   88. RY (13) C  2             0.00002     5.36498
   89. RY (14) C  2             0.00001     4.13314
   90. RY (15) C  2             0.00000     5.71530
   91. RY (16) C  2             0.00000     1.25259
   92. RY (17) C  2             0.00000     2.24725
  131. RY ( 1) P  5             0.00829     2.44099
  132. RY ( 2) P  5             0.00656     0.86802
  133. RY ( 3) P  5             0.00469     0.99091
  134. RY ( 4) P  5             0.00125     0.60497
  135. RY ( 5) P  5             0.00081     1.22201
  136. RY ( 6) P  5             0.00048     2.29336
  137. RY ( 7) P  5             0.00015     0.72549
  138. RY ( 8) P  5             0.00013     3.91714
  139. RY ( 9) P  5             0.00006     1.86108
  140. RY (10) P  5             0.00003     1.36286
  141. RY (11) P  5             0.00001     2.09997
  142. RY (12) P  5             0.00001     1.07621
  143. RY (13) P  5             0.00000     1.53336
  144. RY (14) P  5             0.00000     1.73930
  145. RY (15) P  5             0.00000   154.89384
  146. RY (16) P  5             0.00000    12.94419
  147. RY (17) P  5             0.00000    13.48169
  148. RY (18) P  5             0.00000     0.84080
  149. RY (19) P  5             0.00000     2.17515
  150. RY (20) P  5             0.00000    11.51301
  151. RY (21) P  5             0.00000    12.67001
  152. RY ( 1) O  6             0.00361     3.57296
  153. RY ( 2) O  6             0.00322     0.45696
  154. RY ( 3) O  6             0.00171     0.49282
  155. RY ( 4) O  6             0.00010     1.42233
  156. RY ( 5) O  6             0.00002     1.53351
  157. RY ( 6) O  6             0.00002     0.99686
  158. RY ( 7) O  6             0.00001     3.48400
  159. RY ( 8) O  6             0.00000     8.26399
  160. RY ( 9) O  6             0.00000     2.87744
  161. RY (10) O  6             0.00000     2.47545
  162. RY (11) O  6             0.00000     3.57101
  163. RY (12) O  6             0.00000     2.67590
  164. RY (13) O  6             0.00000     4.21583
  165. RY (14) O  6             0.00000    26.13278
  166. RY (15) O  6             0.00000     1.95720
  167. RY (16) O  6             0.00000     4.77786
  168. RY (17) O  6             0.00000    20.36830
  184. RY ( 1) H 10             0.00159     0.50086
  185. RY ( 2) H 10             0.00018     1.74123
  186. RY ( 3) H 10             0.00013     1.56812
  187. RY ( 4) H 10             0.00010     1.55277
  188. RY ( 5) H 10             0.00005     1.99854
  189. RY ( 1) H 11             0.00159     0.50086
  190. RY ( 2) H 11             0.00018     1.74124
  191. RY ( 3) H 11             0.00013     1.56805
  192. RY ( 4) H 11             0.00010     1.55282
  193. RY ( 5) H 11             0.00005     1.99855
  194. RY ( 1) H 12             0.00155     0.48763
  195. RY ( 2) H 12             0.00014     1.35983
  196. RY ( 3) H 12             0.00012     2.29718
  197. RY ( 4) H 12             0.00006     1.45776
  198. RY ( 5) H 12             0.00003     1.89108
          -------------------------------
                 Total Lewis  107.12880  ( 98.5250%)
           Valence non-Lewis    1.50419  (  1.3834%)
           Rydberg non-Lewis    0.09966  (  0.0917%)
          -------------------------------
               Total unit  1  108.73265  (100.0000%)
              Charge unit  1    0.26735

 Molecular unit  2  (H3P)
 ------ Lewis --------------------------------------
    6. CR ( 1) P  3             2.00000   -75.99643
    7. CR ( 2) P  3             1.99997    -6.70353
    8. CR ( 3) P  3             2.00000    -4.57018
    9. CR ( 4) P  3             2.00000    -4.57315
   10. CR ( 5) P  3             2.00000    -4.57306
   22. LP ( 1) P  3             1.46019    -0.16136  40(r),57(r),52(r),71(r)
                                                     116(r),78(r),65(r),39(r)
                                                     152(r),131(r),75(r),93(g)
                                                     89(r),90(r),55(r),100(g)
                                                     155(r),138(r),118(r),119(r)
                                                     70(r),66(r),140(r),102(g)
                                                     82(r),87(r),46(g),44(g)
                                                     45(g),59(r),69(r),104(g)
                                                     135(r),129(r),97(g),142(r)
                                                     184(r),189(r),42(r),169(v)
                                                     174(v),194(r),133(r),121(r)
                                                     50(r),83(r),95(g),183(v)
                                                     182(v),76(r),88(r),156(r)
                                                     179(v),123(r),143(r),105(g)
                                                     197(r),198(r),162(r),48(r)
                                                     47(r),98(g),136(r),139(r)
                                                     177(v),172(v),49(r),175(v)
                                                     170(v),187(r),192(r),181(v)
                                                     60(r),56(r),101(g),173(v)
                                                     178(v),103(g),196(r),185(r)
                                                     190(r),149(r),130(r),159(r)
                                                     188(r),193(r),141(r),158(r)
                                                     62(r),165(r),43(r),79(r)
   33. BD ( 1) P  3- H  7       1.98933    -0.45339  45(g),46(g),40(r),56(r)
                                                     64(r),68(r),54(r),139(r)
                                                     52(r),71(r),89(r),42(r)
                                                     65(r),78(r),136(r),155(r)
                                                     116(r),39(r),57(r),83(r)
                                                     75(r),152(r),90(r),58(r)
                                                     84(r)
   34. BD ( 1) P  3- H  8       1.98933    -0.45339  44(g),46(g),40(r),56(r)
                                                     64(r),68(r),54(r),139(r)
                                                     52(r),71(r),89(r),42(r)
                                                     65(r),78(r),136(r),155(r)
                                                     116(r),39(r),57(r),83(r)
                                                     75(r),152(r),90(r),58(r)
                                                     84(r)
   35. BD ( 1) P  3- H  9       1.98920    -0.45160  44(g),45(g),40(r),53(r)
                                                     56(r),64(r),68(r),60(r)
                                                     50(r),82(r),78(r),138(r)
                                                     55(r),136(r),66(r),59(r)
                                                     131(r),139(r),52(r),88(r)
                                                     135(r),63(r),152(r)
 ------ non-Lewis ----------------------------------
   44. BD*( 1) P  3- H  7       0.05531     0.09989
   45. BD*( 1) P  3- H  8       0.05531     0.09989
   46. BD*( 1) P  3- H  9       0.05477     0.10779
   93. RY ( 1) P  3             0.00812     2.46008
   94. RY ( 2) P  3             0.00656     0.86802
   95. RY ( 3) P  3             0.00469     1.00281
   96. RY ( 4) P  3             0.00125     0.60497
   97. RY ( 5) P  3             0.00077     1.05151
   98. RY ( 6) P  3             0.00047     2.30019
   99. RY ( 7) P  3             0.00015     0.72550
  100. RY ( 8) P  3             0.00013     3.97877
  101. RY ( 9) P  3             0.00006     1.93059
  102. RY (10) P  3             0.00003     1.36815
  103. RY (11) P  3             0.00001     2.09786
  104. RY (12) P  3             0.00001     1.07614
  105. RY (13) P  3             0.00000     1.53328
  106. RY (14) P  3             0.00000     1.73931
  107. RY (15) P  3             0.00000    12.94416
  108. RY (16) P  3             0.00000    13.48135
  109. RY (17) P  3             0.00000     0.84074
  110. RY (18) P  3             0.00000     2.17818
  111. RY (19) P  3             0.00000    11.50432
  112. RY (20) P  3             0.00000    12.67005
  113. RY (21) P  3             0.00000   154.89346
  169. RY ( 1) H  7             0.00159     0.50086
  170. RY ( 2) H  7             0.00018     1.74124
  171. RY ( 3) H  7             0.00013     1.56806
  172. RY ( 4) H  7             0.00010     1.55282
  173. RY ( 5) H  7             0.00005     1.99854
  174. RY ( 1) H  8             0.00159     0.50087
  175. RY ( 2) H  8             0.00018     1.74123
  176. RY ( 3) H  8             0.00013     1.56812
  177. RY ( 4) H  8             0.00010     1.55277
  178. RY ( 5) H  8             0.00005     1.99854
  179. RY ( 1) H  9             0.00155     0.48763
  180. RY ( 2) H  9             0.00014     1.35983
  181. RY ( 3) H  9             0.00012     2.29719
  182. RY ( 4) H  9             0.00006     1.45776
  183. RY ( 5) H  9             0.00003     1.89108
          -------------------------------
                 Total Lewis   17.42803  ( 98.9012%)
           Valence non-Lewis    0.16539  (  0.9386%)
           Rydberg non-Lewis    0.02824  (  0.1603%)
          -------------------------------
               Total unit  2   17.62166  (100.0000%)
              Charge unit  2    0.37834

 Molecular unit  3  (F)
 ------ Lewis --------------------------------------
   11. CR ( 1) F  4             2.00000   -24.14526  39(r)
   23. LP ( 1) F  4             1.99401    -0.79676  39(r),57(r),40(r),52(r)
                                                     71(r),116(g),75(r),65(r)
                                                     89(r),78(r),131(r),93(r)
                                                     155(r),152(r),90(r),100(r)
                                                     138(r),59(r),66(r),83(r)
                                                     102(r),140(r),70(r),76(r)
                                                     43(r),142(r),104(r),82(r)
                                                     50(r),158(r),95(r)
   24. LP ( 2) F  4             1.97700    -0.25952  42(r),53(r),47(r),48(r)
                                                     40(r),44(r),45(r),79(r)
   25. LP ( 3) F  4             1.94789    -0.25941  41(r),51(r),61(r),44(r)
                                                     45(r),47(r),48(r),77(r)
   26. LP ( 4) F  4             1.72073    -0.39067  39(r),57(r),71(r),78(r)
                                                     65(r),93(r),131(r),116(g)
                                                     52(r),152(r),40(r),89(r)
                                                     75(r),90(r),70(r),119(g)
                                                     100(r),138(r),155(r),118(g)
                                                     55(r),102(r),140(r),87(r)
                                                     82(r),69(r),59(r),129(g)
                                                     66(r),135(r),97(r),142(r)
                                                     104(r),83(r),121(g),50(r)
                                                     169(r),174(r),184(r),189(r)
                                                     95(r),143(r),105(r),133(r)
                                                     179(r),194(r),136(r),98(r)
                                                     49(r),76(r),46(r),63(r)
                                                     162(r),156(r),183(r),198(r)
                                                     182(r),197(r),88(r),172(r)
                                                     177(r),187(r),192(r),43(r)
                                                     139(r),149(r),110(r),158(r)
                                                     181(r),196(r)
 ------ non-Lewis ----------------------------------
  114. RY ( 1) F  4             0.00226     0.51468
  115. RY ( 2) F  4             0.00224     0.65602
  116. RY ( 3) F  4             0.00118     9.16404
  117. RY ( 4) F  4             0.00018     1.30461
  118. RY ( 5) F  4             0.00015     0.98130
  119. RY ( 6) F  4             0.00003     2.64480
  120. RY ( 7) F  4             0.00001     1.41817
  121. RY ( 8) F  4             0.00000     3.25502
  122. RY ( 9) F  4             0.00000     3.77148
  123. RY (10) F  4             0.00000     3.20425
  124. RY (11) F  4             0.00000    66.08203
  125. RY (12) F  4             0.00000     6.15865
  126. RY (13) F  4             0.00000     6.09750
  127. RY (14) F  4             0.00000     3.71395
  128. RY (15) F  4             0.00000     3.88021
  129. RY (16) F  4             0.00000     3.65294
  130. RY (17) F  4             0.00000     5.97481
          -------------------------------
                 Total Lewis    9.63963  ( 99.9372%)
           Valence non-Lewis    0.00000  (  0.0000%)
           Rydberg non-Lewis    0.00606  (  0.0628%)
          -------------------------------
               Total unit  3    9.64569  (100.0000%)
              Charge unit  3   -0.64569

 $CHOOSE
   LONE 1 4 3 1 4 4 6 1 END
   BOND S 1 2 S 1 5 T 2 6 S 3 7 S 3 8 S 3 9 S 5 10 S 5 11 S 5 12 END
 $END

 NBO analysis completed in 4.96 CPU seconds (5 wall seconds)
 Maximum scratch memory used by NBO was 862591 words (6.58 MB)
 Maximum scratch memory used by G16NBO was 68551 words (0.52 MB)

 Opening RunExU unformatted file "/local/mvanvleet/pbs.15351.josephine/Gau-209836.EUF"
 Read unf file /local/mvanvleet/pbs.15351.josephine/Gau-209836.EUF:
 Label Gaussian matrix elements                                         IVers= 2 NLab= 2 Version=ES64L-G16RevC.01
 Title trans-(F)Ir(PH3)2(CO)                                           
 NAtoms=    12 NBasis=   198 NBsUse=   198 ICharg=     0 Multip=     1 NE=    76 Len12L=8 Len4L=8 IOpCl= 0 ICGU=111
 GAUSSIAN SCALARS                    NI= 1 NR= 1 NTot=       1 LenBuf=    2 NRI=1 N=    1000
 NPA CHARGES                         NI= 0 NR= 1 NTot=      12 LenBuf= 4000 NRI=1 N=      12
 Recovered energy= -1003.53717915     dipole=      0.000000864701     -0.576215879308     -0.000000970593
 Unable to Open any file for archive entry.
 1\1\GINC-NODE002\SP\RPBEPBE\GenECP\C1H6F1Ir1O1P2\MVANVLEET\05-Jun-2024
 \0\\# PBEPBE GenECP Pop=NBO7\\trans-(F)Ir(PH3)2(CO)\\0,1\Ir\C,1,1.8679
 6\P,1,2.30848332,2,90.\F,1,2.02043832,3,90.,2,-180.,0\P,1,2.30848389,2
 ,90.,3,-180.,0\O,2,1.17074014,1,179.99910481,3,-46.72125508,0\H,3,1.42
 496596,1,118.83563037,2,-59.79094907,0\H,3,1.42496009,1,118.83536716,2
 ,59.7931955,0\H,3,1.42388528,1,117.34977094,2,-179.99799281,0\H,5,1.42
 496375,1,118.83531691,2,-59.79290426,0\H,5,1.42496991,1,118.83560096,2
 ,59.79119934,0\H,5,1.42388655,1,117.34980369,2,179.9982539,0\\Version=
 ES64L-G16RevC.01\State=1-A\HF=-1003.5371792\RMSD=7.256e-09\Dipole=-0.0
 000029,-0.0000006,0.5762159\Quadrupole=14.5805372,-2.1569453,-12.42359
 19,0.0000008,-0.000031,-0.0000051\PG=C01 [X(C1H6F1Ir1O1P2)]\\@
 The archive entry for this job was punched.


 ADVERTISING--  HE WHO HAS SOMETHING TO SELL AND GOES AND WHISPERS
                IN A WELL, IS NOT SO APT TO GET THE DOLLARS AS HE
                WHO CLIMBS A TREE AND HOLLERS.

                   -- FROM THE BACK OF A SUGAR PACKET
 Job cpu time:       0 days  0 hours  6 minutes 45.5 seconds.
 Elapsed time:       0 days  0 hours  0 minutes 14.3 seconds.
 File lengths (MBytes):  RWF=     20 Int=      0 D2E=      0 Chk=      3 Scr=      1
 Normal termination of Gaussian 16 at Wed Jun  5 12:01:09 2024.
