 Entering Gaussian System, Link 0=/cm/shared/apps//g16/g16
 Input=trans-phenyl_Ir_PH3_2_CO.gjf
 Output=trans-phenyl_Ir_PH3_2_CO.log
 Initial command:
 /cm/shared/apps//g16/l1.exe "/local/mvanvleet/pbs.15368.josephine/Gau-246955.inp" -scrdir="/local/mvanvleet/pbs.15368.josephine/"
 Entering Link 1 = /cm/shared/apps//g16/l1.exe PID=    246958.
  
 Copyright (c) 1988-2019, Gaussian, Inc.  All Rights Reserved.
  
 This is part of the Gaussian(R) 16 program.  It is based on
 the Gaussian(R) 09 system (copyright 2009, Gaussian, Inc.),
 the Gaussian(R) 03 system (copyright 2003, Gaussian, Inc.),
 the Gaussian(R) 98 system (copyright 1998, Gaussian, Inc.),
 the Gaussian(R) 94 system (copyright 1995, Gaussian, Inc.),
 the Gaussian 92(TM) system (copyright 1992, Gaussian, Inc.),
 the Gaussian 90(TM) system (copyright 1990, Gaussian, Inc.),
 the Gaussian 88(TM) system (copyright 1988, Gaussian, Inc.),
 the Gaussian 86(TM) system (copyright 1986, Carnegie Mellon
 University), and the Gaussian 82(TM) system (copyright 1983,
 Carnegie Mellon University). Gaussian is a federally registered
 trademark of Gaussian, Inc.
  
 This software contains proprietary and confidential information,
 including trade secrets, belonging to Gaussian, Inc.
  
 This software is provided under written license and may be
 used, copied, transmitted, or stored only in accord with that
 written license.
  
 The following legend is applicable only to US Government
 contracts under FAR:
  
                    RESTRICTED RIGHTS LEGEND
  
 Use, reproduction and disclosure by the US Government is
 subject to restrictions as set forth in subparagraphs (a)
 and (c) of the Commercial Computer Software - Restricted
 Rights clause in FAR 52.227-19.
  
 Gaussian, Inc.
 340 Quinnipiac St., Bldg. 40, Wallingford CT 06492
  
  
 ---------------------------------------------------------------
 Warning -- This program may not be used in any manner that
 competes with the business of Gaussian, Inc. or will provide
 assistance to any competitor of Gaussian, Inc.  The licensee
 of this program is prohibited from giving any competitor of
 Gaussian, Inc. access to this program.  By using this program,
 the user acknowledges that Gaussian, Inc. is engaged in the
 business of creating and licensing software in the field of
 computational chemistry and represents and warrants to the
 licensee that it is not a competitor of Gaussian, Inc. and that
 it will not use this program in any manner prohibited above.
 ---------------------------------------------------------------
  

 Cite this work as:
 Gaussian 16, Revision C.01,
 M. J. Frisch, G. W. Trucks, H. B. Schlegel, G. E. Scuseria, 
 M. A. Robb, J. R. Cheeseman, G. Scalmani, V. Barone, 
 G. A. Petersson, H. Nakatsuji, X. Li, M. Caricato, A. V. Marenich, 
 J. Bloino, B. G. Janesko, R. Gomperts, B. Mennucci, H. P. Hratchian, 
 J. V. Ortiz, A. F. Izmaylov, J. L. Sonnenberg, D. Williams-Young, 
 F. Ding, F. Lipparini, F. Egidi, J. Goings, B. Peng, A. Petrone, 
 T. Henderson, D. Ranasinghe, V. G. Zakrzewski, J. Gao, N. Rega, 
 G. Zheng, W. Liang, M. Hada, M. Ehara, K. Toyota, R. Fukuda, 
 J. Hasegawa, M. Ishida, T. Nakajima, Y. Honda, O. Kitao, H. Nakai, 
 T. Vreven, K. Throssell, J. A. Montgomery, Jr., J. E. Peralta, 
 F. Ogliaro, M. J. Bearpark, J. J. Heyd, E. N. Brothers, K. N. Kudin, 
 V. N. Staroverov, T. A. Keith, R. Kobayashi, J. Normand, 
 K. Raghavachari, A. P. Rendell, J. C. Burant, S. S. Iyengar, 
 J. Tomasi, M. Cossi, J. M. Millam, M. Klene, C. Adamo, R. Cammi, 
 J. W. Ochterski, R. L. Martin, K. Morokuma, O. Farkas, 
 J. B. Foresman, and D. J. Fox, Gaussian, Inc., Wallingford CT, 2019.
 
 ******************************************
 Gaussian 16:  ES64L-G16RevC.01  3-Jul-2019
                 5-Jun-2024 
 ******************************************
 %nprocshared=48
 Will use up to   48 processors via shared memory.
 %chk=trans-phenyl_Ir_PH3_2_CO.chk
 %mem=16GB
 -----------------------------
 # PBEPBE GenECP POpt Pop=NBO7
 -----------------------------
 1/10=7,26=3,38=1/1,3;
 2/12=2,17=6,18=5,29=3,40=1/2;
 3/5=7,11=2,16=1,17=8,25=1,30=1,71=1,74=1009/1,2,3;
 4//1;
 5/5=2,38=5/2;
 6/7=2,8=2,9=2,10=2,28=1,40=1,113=1,114=1,124=3103/1,12;
 7/29=1/1,2,3,16;
 1/10=7,26=3/3(2);
 2/29=3/2;
 99//99;
 2/29=3/2;
 3/5=7,6=1,11=2,16=1,17=8,25=1,30=1,71=1,74=1009,82=7/1,2,3;
 4/5=5,16=3,69=1/1;
 5/5=2,38=5/2;
 7//1,2,3,16;
 1/26=3/3(-5);
 2/29=3/2;
 6/7=2,8=2,9=2,10=2,19=2,28=1,40=1,113=1,114=1,124=3103/1,12;
 99/9=1/99;
 ---------------------
 trans-(H)Ir(PH3)2(CO)
 ---------------------
 Symbolic Z-matrix:
 Charge =  0 Multiplicity = 1
 Ir                   1
 C                    1    B1
 P                    1    B2       2    A1
 C                    1    B3       3    A2       2    D1       0
 P                    1    B4       2    A3       3    D2       0
 H                    3    B5       1    A4       2    D3       0
 H                    3    B6       1    A5       2    D4       0
 H                    3    B7       1    A6       2    D5       0
 H                    5    B8       1    A7       2    D6       0
 H                    5    B9       1    A8       2    D7       0
 H                    5    B10      1    A9       2    D8       0
 O                    1    B11      3    A10      8    D9       0
 C                    3    B14      1    A13      2    D12      0
 C                    13   B15      2    A14      1    D13      0
 C                    14   B16      13   A15      2    D14      0
 C                    15   B17      14   A16      13   D15      0
 C                    2    B18      1    A17      3    D16      0
 H                    13   B19      2    A18      1    D17      0
 H                    14   B20      13   A19      2    D18      0
 H                    15   B21      14   A20      13   D19      0
 H                    16   B22      15   A21      14   D20      0
 H                    17   B23      2    A22      1    D21      0
       Variables:
  B1                    2.104                    
  B2                    2.264                    
  B4                    2.27                     
  B5                    1.431                    
  B6                    1.437                    
  B7                    1.431                    
  B8                    1.431                    
  B9                    1.435                    
  B10                   1.431                    
  B11                   3.145                    
  B14                   2.994                    
  B15                   1.395                    
  B16                   1.395                    
  B17                   1.395                    
  B18                   1.395                    
  B19                   1.087                    
  B20                   1.087                    
  B21                   1.087                    
  B22                   1.087                    
  B23                   1.087                    
  A4                  120.705                    
  A5                  118.798                    
  A6                  120.72                     
  A7                  120.114                    
  A8                  120.136                    
  A9                  120.119                    
  A10                  90.                       
  A13                  69.4                      
  A14                 119.984                    
  A15                 120.                       
  A16                 120.                       
  A17                 119.99                     
  A18                 120.009                    
  A19                 120.                       
  A20                 120.                       
  A21                 120.                       
  A22                 119.984                    
  D3                   60.7                      
  D4                  180.                       
  D5                  299.2                      
  D6                   60.                       
  D7                  179.9                      
  D8                  299.9                      
  D9                  119.2                      
  D14                 359.                       
  D16                 179.5                      
  D17                 359.1                      
  D18                 179.                       
  D19                 180.                       
  D20                 180.                       
  D21                   0.9                      
       Constants:
  B3                    1.868                    
  A1                   90.                       
  A2                   90.                       
  A3                   90.                       
  D1                  180.                       
  D2                 -180.                       
  D13                 180.                       
  D15                 360.                       
  D12                   0.                       
 

 GradGradGradGradGradGradGradGradGradGradGradGradGradGradGradGradGradGrad
 Berny optimization.
 Initialization pass.
                       ----------------------------
                       !    Initial Parameters    !
                       ! (Angstroms and Degrees)  !
 ----------------------                            ----------------------
 !      Name          Value   Derivative information (Atomic Units)     !
 ------------------------------------------------------------------------
 !       B1          2.104    estimate D2E/DX2                          !
 !       B2          2.264    estimate D2E/DX2                          !
 !       B4          2.27     estimate D2E/DX2                          !
 !       B5          1.431    estimate D2E/DX2                          !
 !       B6          1.437    estimate D2E/DX2                          !
 !       B7          1.431    estimate D2E/DX2                          !
 !       B8          1.431    estimate D2E/DX2                          !
 !       B9          1.435    estimate D2E/DX2                          !
 !       B10         1.431    estimate D2E/DX2                          !
 !       B11         3.145    estimate D2E/DX2                          !
 !       B14         2.994    estimate D2E/DX2                          !
 !       B15         1.395    estimate D2E/DX2                          !
 !       B16         1.395    estimate D2E/DX2                          !
 !       B17         1.395    estimate D2E/DX2                          !
 !       B18         1.395    estimate D2E/DX2                          !
 !       B19         1.087    estimate D2E/DX2                          !
 !       B20         1.087    estimate D2E/DX2                          !
 !       B21         1.087    estimate D2E/DX2                          !
 !       B22         1.087    estimate D2E/DX2                          !
 !       B23         1.087    estimate D2E/DX2                          !
 !       A4        120.705    estimate D2E/DX2                          !
 !       A5        118.798    estimate D2E/DX2                          !
 !       A6        120.72     estimate D2E/DX2                          !
 !       A7        120.114    estimate D2E/DX2                          !
 !       A8        120.136    estimate D2E/DX2                          !
 !       A9        120.119    estimate D2E/DX2                          !
 !       A10        90.0      estimate D2E/DX2                          !
 !       A13        69.4      estimate D2E/DX2                          !
 !       A14       119.984    estimate D2E/DX2                          !
 !       A15       120.0      estimate D2E/DX2                          !
 !       A16       120.0      estimate D2E/DX2                          !
 !       A17       119.99     estimate D2E/DX2                          !
 !       A18       120.009    estimate D2E/DX2                          !
 !       A19       120.0      estimate D2E/DX2                          !
 !       A20       120.0      estimate D2E/DX2                          !
 !       A21       120.0      estimate D2E/DX2                          !
 !       A22       119.984    estimate D2E/DX2                          !
 !       D3         60.7      estimate D2E/DX2                          !
 !       D4        180.0      estimate D2E/DX2                          !
 !       D5        299.2      estimate D2E/DX2                          !
 !       D6         60.0      estimate D2E/DX2                          !
 !       D7        179.9      estimate D2E/DX2                          !
 !       D8        299.9      estimate D2E/DX2                          !
 !       D9        119.2      estimate D2E/DX2                          !
 !       D14       359.0      estimate D2E/DX2                          !
 !       D16       179.5      estimate D2E/DX2                          !
 !       D17       359.1      estimate D2E/DX2                          !
 !       D18       179.0      estimate D2E/DX2                          !
 !       D19       180.0      estimate D2E/DX2                          !
 !       D20       180.0      estimate D2E/DX2                          !
 !       D21         0.9      estimate D2E/DX2                          !
 !       B3          1.868    Frozen                                    !
 !       A1         90.0      Frozen                                    !
 !       A2         90.0      Frozen                                    !
 !       A3         90.0      Frozen                                    !
 !       D1        180.0      Frozen                                    !
 !       D2       -180.0      Frozen                                    !
 !       D13       180.0      Frozen                                    !
 !       D15       360.0      Frozen                                    !
 !       D12         0.0      Frozen                                    !
 ------------------------------------------------------------------------
 Trust Radius=3.00D-01 FncErr=1.00D-07 GrdErr=1.00D-06 EigMax=2.50D+02 EigMin=1.00D-04
 Number of steps in this run=     70 maximum allowed number of steps=    120.
 GradGradGradGradGradGradGradGradGradGradGradGradGradGradGradGradGradGrad

 ---------------------------------------------------------------------------------------------------
                            Z-MATRIX (ANGSTROMS AND DEGREES)
   CD    Cent   Atom    N1       Length/X        N2       Alpha/Y        N3        Beta/Z          J
 ---------------------------------------------------------------------------------------------------
      1      1  Ir
      2      2  C        1   2.104000(     1)
      3      3  P        1   2.264000(     2)      2   90.000(    22)
      4      4  C        1   1.868000(     3)      3   90.000(    23)      2  180.000(    42)      0
      5      5  P        1   2.270000(     4)      2   90.000(    24)      3 -180.000(    43)      0
      6      6  H        3   1.431000(     5)      1  120.705(    25)      2   60.700(    44)      0
      7      7  H        3   1.437000(     6)      1  118.798(    26)      2  180.000(    45)      0
      8      8  H        3   1.431000(     7)      1  120.720(    27)      2  299.200(    46)      0
      9      9  H        5   1.431000(     8)      1  120.114(    28)      2   60.000(    47)      0
     10     10  H        5   1.435000(     9)      1  120.136(    29)      2  179.900(    48)      0
     11     11  H        5   1.431000(    10)      1  120.119(    30)      2  299.900(    49)      0
     12     12  O        1   3.145000(    11)      3   90.000(    31)      8  119.200(    50)      0
     13     13  C        3   2.994000(    12)      1   69.400(    32)      2    0.000(    51)      0
     14     14  C       13   1.395000(    13)      2  119.984(    33)      1  180.000(    52)      0
     15     15  C       14   1.395000(    14)     13  120.000(    34)      2  359.000(    53)      0
     16     16  C       15   1.395000(    15)     14  120.000(    35)     13  360.000(    54)      0
     17     17  C        2   1.395000(    16)      1  119.990(    36)      3  179.500(    55)      0
     18     18  H       13   1.087000(    17)      2  120.009(    37)      1  359.100(    56)      0
     19     19  H       14   1.087000(    18)     13  120.000(    38)      2  179.000(    57)      0
     20     20  H       15   1.087000(    19)     14  120.000(    39)     13  180.000(    58)      0
     21     21  H       16   1.087000(    20)     15  120.000(    40)     14  180.000(    59)      0
     22     22  H       17   1.087000(    21)      2  119.984(    41)      1    0.900(    60)      0
 ---------------------------------------------------------------------------------------------------
                         Z-Matrix orientation:                         
 ---------------------------------------------------------------------
 Center     Atomic      Atomic             Coordinates (Angstroms)
 Number     Number       Type             X           Y           Z
 ---------------------------------------------------------------------
      1         77           0        0.000000    0.000000    0.000000
      2          6           0        0.000000    0.000000    2.104000
      3         15           0        2.264000    0.000000    0.000000
      4          6           0        0.000000    0.000000   -1.868000
      5         15           0       -2.270000    0.000000    0.000000
      6          1           0        2.994694   -1.072981    0.602129
      7          1           0        2.956236   -0.000000   -1.259277
      8          1           0        2.995016    1.073863    0.600162
      9          1           0       -2.987964    1.072015    0.618928
     10          1           0       -2.990448    0.002166   -1.241038
     11          1           0       -2.988072   -1.073039    0.617025
     12          8           0        0.000000   -0.000000   -3.145000
     13          6           0        1.210586    0.000000    2.802562
     14          6           0        1.210516    0.000000    4.197562
     15          6           0        0.002560    0.021084    4.895002
     16          6           0       -1.205327    0.042169    4.197441
     17          6           0       -1.208181    0.010544    2.801289
     18          1           0        2.151858   -0.014785    2.259095
     19          1           0        2.151715   -0.016429    4.741109
     20          1           0        0.002506    0.021084    5.982002
     21          1           0       -2.146580    0.058598    4.740894
     22          1           0       -2.149339    0.003968    2.257463
 ---------------------------------------------------------------------
                    Distance matrix (angstroms):
                    1          2          3          4          5
     1  Ir   0.000000
     2  C    2.104000   0.000000
     3  P    2.264000   3.090714   0.000000
     4  C    1.868000   3.972000   2.935152   0.000000
     5  P    2.270000   3.095112   4.534000   2.939783   0.000000
     6  H    3.237598   3.517826   1.431000   4.027532   5.406556
     7  H    3.213271   4.477830   1.437000   3.018257   5.375809
     8  H    3.237823   3.519209   1.431000   4.026801   5.406827
     9  H    3.234226   3.504652   5.395870   4.032612   1.431000
    10  H    3.237740   4.486877   5.399019   3.055465   1.435000
    11  H    3.234302   3.505864   5.395961   4.031791   1.431000
    12  O    3.145000   5.249000   3.875141   1.277000   3.878650
    13  C    3.052847   1.397679   2.994000   4.824901   4.468650
    14  C    4.368624   2.418337   4.327743   6.185175   5.452845
    15  C    4.895048   2.791083   5.392179   6.763035   5.396852
    16  C    4.367277   2.416006   5.445780   6.184187   4.330568
    17  C    3.050743   1.395000   4.461320   4.823077   2.995796
    18  H    3.119972   2.157491   2.261925   4.654420   4.965537
    19  H    5.206560   3.403600   4.742467   6.950574   6.483051
    20  H    5.982040   3.878060   6.395244   7.850031   6.399146
    21  H    5.204548   3.400654   6.475549   6.949009   4.742863
    22  H    3.117020   2.154814   4.957188   4.651786   2.260688
                    6          7          8          9         10
     6  H    0.000000
     7  H    2.148860   0.000000
     8  H    2.146845   2.147603   0.000000
     9  H    6.355588   6.325377   5.983010   0.000000
    10  H    6.354143   5.946712   6.353293   2.145707   0.000000
    11  H    5.982785   6.325087   6.356636   2.145055   2.146735
    12  O    4.915329   3.506463   4.914218   4.923850   3.545117
    13  C    3.029231   4.421067   3.031162   4.852350   5.830900
    14  C    4.154723   5.729278   4.156791   5.619882   6.872152
    15  C    5.345896   6.826404   5.339362   5.322828   6.827111
    16  C    5.640036   6.862664   5.625628   4.128455   5.724100
    17  C    4.865644   5.816415   4.862353   3.009493   4.417800
    18  H    2.139086   3.609180   2.155952   5.503550   6.220493
    19  H    4.354087   6.054103   4.364326   6.677829   7.888490
    20  H    6.252456   7.820555   6.247213   6.229761   7.818595
    21  H    6.696458   7.876815   6.679255   4.327303   6.041425
    22  H    5.510084   6.199546   5.509602   2.128101   3.598190
                   11         12         13         14         15
    11  H    0.000000
    12  O    4.922684   0.000000
    13  C    4.853527   6.069515   0.000000
    14  C    5.621371   7.441678   1.395000   0.000000
    15  C    5.333111   8.040030   2.416211   1.395000   0.000000
    16  C    4.152259   7.440836   2.790000   2.416211   1.395000
    17  C    3.018804   6.067798   2.418791   2.792810   2.418603
    18  H    5.498653   5.816782   1.087000   2.154994   3.401290
    19  H    6.673973   8.174403   2.154985   1.087000   2.154985
    20  H    6.238881   9.127027   3.401285   2.154985   1.087000
    21  H    4.358327   8.173039   3.877000   3.401285   2.154985
    22  H    2.134116   5.814317   3.403858   3.879772   3.404053
                   16         17         18         19         20
    16  C    0.000000
    17  C    1.396513   0.000000
    18  H    3.876999   3.403598   0.000000
    19  H    3.401285   3.879760   2.482015   0.000000
    20  H    2.154985   3.403352   4.298958   2.482000   0.000000
    21  H    1.087000   2.155219   4.963999   4.298950   2.482000
    22  H    2.157808   1.087000   4.301239   4.966688   4.301502
                   21         22
    21  H    0.000000
    22  H    2.484034   0.000000
 Stoichiometry    C7H11IrOP2
 Framework group  C1[X(C7H11IrOP2)]
 Deg. of freedom    60
 Full point group                 C1      NOp   1
 Largest Abelian subgroup         C1      NOp   1
 Largest concise Abelian subgroup C1      NOp   1
                         Standard orientation:                         
 ---------------------------------------------------------------------
 Center     Atomic      Atomic             Coordinates (Angstroms)
 Number     Number       Type             X           Y           Z
 ---------------------------------------------------------------------
      1         77           0       -0.652015   -0.000671    0.000952
      2          6           0        1.451974    0.000714    0.007429
      3         15           0       -0.650509   -2.264664   -0.004196
      4          6           0       -2.520006   -0.001901   -0.004799
      5         15           0       -0.653526    2.269323    0.006113
      6          1           0       -0.051199   -2.997402    1.068970
      7          1           0       -1.909319   -2.957728   -0.009646
      8          1           0       -0.046559   -2.992840   -1.077865
      9          1           0       -0.031780    2.990132   -1.062356
     10          1           0       -1.895030    2.988956    0.001764
     11          1           0       -0.040284    2.985358    1.082677
     12          8           0       -3.797000   -0.002741   -0.008731
     13          6           0        2.151338   -1.209408    0.006828
     14          6           0        3.546331   -1.208420    0.011123
     15          6           0        4.243029    0.000040   -0.005068
     16          6           0        3.544733    1.207512   -0.025553
     17          6           0        2.148488    1.209375    0.001780
     18          1           0        1.608455   -2.151070    0.017799
     19          1           0        4.090452   -2.149296    0.027085
     20          1           0        5.330023    0.000810   -0.001721
     21          1           0        4.087607    2.149158   -0.038169
     22          1           0        1.604018    2.150158    0.008821
 ---------------------------------------------------------------------
 Rotational constants (GHZ):           1.0852605           0.4416038           0.3157088
 General basis read from cards:  (5D, 7F)
 ======================================================================================================
                                       Pseudopotential Parameters
 ======================================================================================================
  Center     Atomic      Valence      Angular      Power
  Number     Number     Electrons     Momentum     of R      Exponent        Coefficient   SO-Coeffient
 ======================================================================================================
    1         77           17
                                      H and up 
                                                     2        1.0000000        0.00000000    0.00000000
                                      S - H
                                                     2       13.6522030      732.26920000    0.00000000
                                                     2        6.8261010       26.48472100    0.00000000
                                      P - H
                                                     2       10.2798680      299.48947400    0.00000000
                                                     2        5.1399340       26.46623400    0.00000000
                                      D - H
                                                     2        7.3498590      124.45759500    0.00000000
                                                     2        3.6749290       14.03599500    0.00000000
                                      F - H
                                                     2        3.0340720       21.53103100    0.00000000
                                      G - H
                                                     2        4.8088570      -21.60759700    0.00000000
    2          6
                                   No pseudopotential on this center.
    3         15
                                   No pseudopotential on this center.
    4          6
                                   No pseudopotential on this center.
    5         15
                                   No pseudopotential on this center.
    6          1
                                   No pseudopotential on this center.
    7          1
                                   No pseudopotential on this center.
    8          1
                                   No pseudopotential on this center.
    9          1
                                   No pseudopotential on this center.
   10          1
                                   No pseudopotential on this center.
   11          1
                                   No pseudopotential on this center.
   12          8
                                   No pseudopotential on this center.
   13          6
                                   No pseudopotential on this center.
   14          6
                                   No pseudopotential on this center.
   15          6
                                   No pseudopotential on this center.
   16          6
                                   No pseudopotential on this center.
   17          6
                                   No pseudopotential on this center.
   18          1
                                   No pseudopotential on this center.
   19          1
                                   No pseudopotential on this center.
   20          1
                                   No pseudopotential on this center.
   21          1
                                   No pseudopotential on this center.
   22          1
                                   No pseudopotential on this center.
 ======================================================================================================
 There are   351 symmetry adapted cartesian basis functions of A   symmetry.
 There are   338 symmetry adapted basis functions of A   symmetry.
   338 basis functions,   541 primitive gaussians,   351 cartesian basis functions
    54 alpha electrons       54 beta electrons
       nuclear repulsion energy       894.2761909593 Hartrees.
 NAtoms=   22 NActive=   22 NUniq=   22 SFac= 1.00D+00 NAtFMM=   60 NAOKFM=F Big=F
 Integral buffers will be    131072 words long.
 Raffenetti 2 integral format.
 Two-electron integral symmetry is turned on.
 One-electron integrals computed using PRISM.
   1 Symmetry operations used in ECPInt.
 ECPInt:  NShTT=    8778 NPrTT=   28918 LenC2=    8132 LenP2D=   19566.
 LDataN:  DoStor=T MaxTD1= 7 Len=  274
 NBasis=   338 RedAO= T EigKep=  2.24D-06  NBF=   338
 NBsUse=   337 1.00D-06 EigRej=  8.59D-07 NBFU=   337
 Defaulting to unpruned grid for atomic number  77.
 ExpMin= 1.50D-02 ExpMax= 7.75D+04 ExpMxC= 2.65D+03 IAcc=3 IRadAn=         5 AccDes= 0.00D+00
 Harris functional with IExCor= 1009 and IRadAn=       5 diagonalized for initial guess.
 HarFok:  IExCor= 1009 AccDes= 0.00D+00 IRadAn=         5 IDoV= 1 UseB2=F ITyADJ=14
 ICtDFT=  3500011 ScaDFX=  1.000000  1.000000  1.000000  1.000000
 Defaulting to unpruned grid for atomic number  77.
 FoFCou: FMM=F IPFlag=           0 FMFlag=      100000 FMFlg1=           0
         NFxFlg=           0 DoJE=T BraDBF=F KetDBF=T FulRan=T
         wScrn=  0.000000 ICntrl=       500 IOpCl=  0 I1Cent=   200000004 NGrid=           0
         NMat0=    1 NMatS0=      1 NMatT0=    0 NMatD0=    1 NMtDS0=    0 NMtDT0=    0
 Petite list used in FoFCou.
 Requested convergence on RMS density matrix=1.00D-08 within 128 cycles.
 Requested convergence on MAX density matrix=1.00D-06.
 Requested convergence on             energy=1.00D-06.
 No special actions if energy rises.
 Defaulting to unpruned grid for atomic number  77.
 Defaulting to unpruned grid for atomic number  77.
 Defaulting to unpruned grid for atomic number  77.
 Defaulting to unpruned grid for atomic number  77.
 Defaulting to unpruned grid for atomic number  77.
 Defaulting to unpruned grid for atomic number  77.
 Defaulting to unpruned grid for atomic number  77.
 Defaulting to unpruned grid for atomic number  77.
 Defaulting to unpruned grid for atomic number  77.
 Defaulting to unpruned grid for atomic number  77.
 Defaulting to unpruned grid for atomic number  77.
 Defaulting to unpruned grid for atomic number  77.
 Defaulting to unpruned grid for atomic number  77.
 Defaulting to unpruned grid for atomic number  77.
 Defaulting to unpruned grid for atomic number  77.
 Defaulting to unpruned grid for atomic number  77.
 Defaulting to unpruned grid for atomic number  77.
 Defaulting to unpruned grid for atomic number  77.
 Defaulting to unpruned grid for atomic number  77.
 Defaulting to unpruned grid for atomic number  77.
 Defaulting to unpruned grid for atomic number  77.
 Defaulting to unpruned grid for atomic number  77.
 Defaulting to unpruned grid for atomic number  77.
 Defaulting to unpruned grid for atomic number  77.
 Defaulting to unpruned grid for atomic number  77.
 Defaulting to unpruned grid for atomic number  77.
 Defaulting to unpruned grid for atomic number  77.
 Defaulting to unpruned grid for atomic number  77.
 Defaulting to unpruned grid for atomic number  77.
 Defaulting to unpruned grid for atomic number  77.
 Defaulting to unpruned grid for atomic number  77.
 Defaulting to unpruned grid for atomic number  77.
 Defaulting to unpruned grid for atomic number  77.
 Defaulting to unpruned grid for atomic number  77.
 Defaulting to unpruned grid for atomic number  77.
 Defaulting to unpruned grid for atomic number  77.
 Defaulting to unpruned grid for atomic number  77.
 Defaulting to unpruned grid for atomic number  77.
 Defaulting to unpruned grid for atomic number  77.
 Defaulting to unpruned grid for atomic number  77.
 Defaulting to unpruned grid for atomic number  77.
 Defaulting to unpruned grid for atomic number  77.
 Defaulting to unpruned grid for atomic number  77.
 Defaulting to unpruned grid for atomic number  77.
 Defaulting to unpruned grid for atomic number  77.
 Defaulting to unpruned grid for atomic number  77.
 Defaulting to unpruned grid for atomic number  77.
 Defaulting to unpruned grid for atomic number  77.
 EnCoef did     1 forward-backward iterations
 EnCoef did     5 forward-backward iterations
 EnCoef did     2 forward-backward iterations
 SCF Done:  E(RPBE-PBE) =  -1135.08838637     A.U. after   19 cycles
            NFock= 19  Conv=0.49D-08     -V/T= 2.0670

 **********************************************************************

            Population analysis using the SCF Density.

 **********************************************************************

 Orbital symmetries:
       Occupied  (A) (A) (A) (A) (A) (A) (A) (A) (A) (A) (A) (A)
                 (A) (A) (A) (A) (A) (A) (A) (A) (A) (A) (A) (A)
                 (A) (A) (A) (A) (A) (A) (A) (A) (A) (A) (A) (A)
                 (A) (A) (A) (A) (A) (A) (A) (A) (A) (A) (A) (A)
                 (A) (A) (A) (A) (A) (A)
       Virtual   (A) (A) (A) (A) (A) (A) (A) (A) (A) (A) (A) (A)
                 (A) (A) (A) (A) (A) (A) (A) (A) (A) (A) (A) (A)
                 (A) (A) (A) (A) (A) (A) (A) (A) (A) (A) (A) (A)
                 (A) (A) (A) (A) (A) (A) (A) (A) (A) (A) (A) (A)
                 (A) (A) (A) (A) (A) (A) (A) (A) (A) (A) (A) (A)
                 (A) (A) (A) (A) (A) (A) (A) (A) (A) (A) (A) (A)
                 (A) (A) (A) (A) (A) (A) (A) (A) (A) (A) (A) (A)
                 (A) (A) (A) (A) (A) (A) (A) (A) (A) (A) (A) (A)
                 (A) (A) (A) (A) (A) (A) (A) (A) (A) (A) (A) (A)
                 (A) (A) (A) (A) (A) (A) (A) (A) (A) (A) (A) (A)
                 (A) (A) (A) (A) (A) (A) (A) (A) (A) (A) (A) (A)
                 (A) (A) (A) (A) (A) (A) (A) (A) (A) (A) (A) (A)
                 (A) (A) (A) (A) (A) (A) (A) (A) (A) (A) (A) (A)
                 (A) (A) (A) (A) (A) (A) (A) (A) (A) (A) (A) (A)
                 (A) (A) (A) (A) (A) (A) (A) (A) (A) (A) (A) (A)
                 (A) (A) (A) (A) (A) (A) (A) (A) (A) (A) (A) (A)
                 (A) (A) (A) (A) (A) (A) (A) (A) (A) (A) (A) (A)
                 (A) (A) (A) (A) (A) (A) (A) (A) (A) (A) (A) (A)
                 (A) (A) (A) (A) (A) (A) (A) (A) (A) (A) (A) (A)
                 (A) (A) (A) (A) (A) (A) (A) (A) (A) (A) (A) (A)
                 (A) (A) (A) (A) (A) (A) (A) (A) (A) (A) (A) (A)
                 (A) (A) (A) (A) (A) (A) (A) (A) (A) (A) (A) (A)
                 (A) (A) (A) (A) (A) (A) (A) (A) (A) (A) (A) (A)
                 (A) (A) (A) (A) (A) (A) (A)
 The electronic state is 1-A.
 Alpha  occ. eigenvalues --  -76.34204 -76.34179 -18.78803  -9.98675  -9.88219
 Alpha  occ. eigenvalues --   -9.88202  -9.88162  -9.88022  -9.88003  -9.87206
 Alpha  occ. eigenvalues --   -6.35537  -6.35510  -4.57177  -4.57151  -4.57127
 Alpha  occ. eigenvalues --   -4.57099  -4.56847  -4.56820  -3.55164  -1.94416
 Alpha  occ. eigenvalues --   -1.94179  -1.89896  -0.94974  -0.77325  -0.67589
 Alpha  occ. eigenvalues --   -0.66960  -0.63532  -0.62750  -0.54369  -0.53508
 Alpha  occ. eigenvalues --   -0.51025  -0.46870  -0.41419  -0.41294  -0.40161
 Alpha  occ. eigenvalues --   -0.39543  -0.39228  -0.38751  -0.38402  -0.37376
 Alpha  occ. eigenvalues --   -0.36799  -0.34825  -0.34473  -0.33034  -0.32685
 Alpha  occ. eigenvalues --   -0.30261  -0.29677  -0.25368  -0.24679  -0.23233
 Alpha  occ. eigenvalues --   -0.22845  -0.22481  -0.20388  -0.18676
 Alpha virt. eigenvalues --   -0.09035  -0.05781  -0.05727  -0.04144  -0.02428
 Alpha virt. eigenvalues --   -0.02319  -0.02197  -0.01731  -0.01301  -0.00042
 Alpha virt. eigenvalues --    0.00284   0.00330   0.01472   0.01641   0.02171
 Alpha virt. eigenvalues --    0.03262   0.03543   0.03651   0.04014   0.04483
 Alpha virt. eigenvalues --    0.05131   0.05542   0.07079   0.07189   0.07536
 Alpha virt. eigenvalues --    0.08676   0.08698   0.08934   0.09383   0.10673
 Alpha virt. eigenvalues --    0.10759   0.11089   0.11530   0.11574   0.11809
 Alpha virt. eigenvalues --    0.13304   0.13540   0.13567   0.13629   0.14273
 Alpha virt. eigenvalues --    0.14637   0.15032   0.15494   0.16463   0.17458
 Alpha virt. eigenvalues --    0.18158   0.18201   0.18614   0.18924   0.19219
 Alpha virt. eigenvalues --    0.19915   0.20037   0.20341   0.22258   0.22277
 Alpha virt. eigenvalues --    0.22518   0.22915   0.23170   0.25208   0.25325
 Alpha virt. eigenvalues --    0.25426   0.26066   0.26475   0.27160   0.27586
 Alpha virt. eigenvalues --    0.28556   0.28903   0.29563   0.29783   0.30277
 Alpha virt. eigenvalues --    0.30754   0.31193   0.31842   0.32823   0.33297
 Alpha virt. eigenvalues --    0.33916   0.35015   0.38332   0.38566   0.38843
 Alpha virt. eigenvalues --    0.40027   0.40341   0.41273   0.41519   0.44853
 Alpha virt. eigenvalues --    0.47348   0.48979   0.49961   0.50049   0.50109
 Alpha virt. eigenvalues --    0.50255   0.51682   0.51899   0.53590   0.53710
 Alpha virt. eigenvalues --    0.53946   0.55764   0.56980   0.57692   0.58727
 Alpha virt. eigenvalues --    0.59681   0.59849   0.62144   0.62979   0.63114
 Alpha virt. eigenvalues --    0.63845   0.64617   0.65050   0.65117   0.67251
 Alpha virt. eigenvalues --    0.67894   0.68936   0.70558   0.70846   0.71836
 Alpha virt. eigenvalues --    0.73770   0.76429   0.77127   0.78929   0.80540
 Alpha virt. eigenvalues --    0.80727   0.82468   0.83403   0.83850   0.84789
 Alpha virt. eigenvalues --    0.85645   0.85744   0.86122   0.89149   0.91340
 Alpha virt. eigenvalues --    0.93341   0.93632   0.95103   0.96758   0.96849
 Alpha virt. eigenvalues --    0.99057   0.99539   1.01632   1.02343   1.05199
 Alpha virt. eigenvalues --    1.07480   1.08337   1.08967   1.14111   1.15251
 Alpha virt. eigenvalues --    1.16152   1.16674   1.20806   1.20887   1.21112
 Alpha virt. eigenvalues --    1.24278   1.24703   1.27775   1.27932   1.28616
 Alpha virt. eigenvalues --    1.28855   1.33909   1.33991   1.39067   1.40611
 Alpha virt. eigenvalues --    1.42715   1.43626   1.45634   1.45720   1.46583
 Alpha virt. eigenvalues --    1.47171   1.47852   1.51021   1.51097   1.51218
 Alpha virt. eigenvalues --    1.53057   1.56184   1.56251   1.56930   1.58538
 Alpha virt. eigenvalues --    1.58604   1.60327   1.60888   1.63092   1.63373
 Alpha virt. eigenvalues --    1.64175   1.67627   1.67947   1.70831   1.72633
 Alpha virt. eigenvalues --    1.73828   1.80659   1.80868   1.84521   1.85158
 Alpha virt. eigenvalues --    1.85902   1.86338   1.88776   1.90671   1.91428
 Alpha virt. eigenvalues --    1.93818   1.98202   1.98422   2.01178   2.01850
 Alpha virt. eigenvalues --    2.06300   2.06794   2.07371   2.10180   2.12113
 Alpha virt. eigenvalues --    2.13481   2.20981   2.26891   2.27126   2.33019
 Alpha virt. eigenvalues --    2.34556   2.36933   2.40379   2.47559   2.50690
 Alpha virt. eigenvalues --    2.50740   2.53594   2.56663   2.57934   2.59369
 Alpha virt. eigenvalues --    2.60991   2.62164   2.63369   2.66161   2.67832
 Alpha virt. eigenvalues --    2.68354   2.69099   2.72375   2.72733   2.73041
 Alpha virt. eigenvalues --    2.73561   2.73974   2.74465   2.76392   2.82501
 Alpha virt. eigenvalues --    2.83038   2.85243   2.85484   2.89029   2.95138
 Alpha virt. eigenvalues --    3.01844   3.08343   3.09769   3.14541   3.16895
 Alpha virt. eigenvalues --    3.17786   3.28085   3.29400   3.42240   3.44490
 Alpha virt. eigenvalues --    3.54880   3.70171   3.76816   3.90899   3.95906
 Alpha virt. eigenvalues --    4.08065   4.08680   4.76450   4.89571   4.94515
 Alpha virt. eigenvalues --    5.45215   6.97629   6.99482  13.64791  13.67960
 Alpha virt. eigenvalues --   13.77098  13.78822  13.81422  13.86107  23.35941
 Alpha virt. eigenvalues --   23.40433  23.70511  23.72374  23.83066  23.84687
 Alpha virt. eigenvalues --   23.94148  47.19455  47.49408  47.75999  49.53260
 Alpha virt. eigenvalues --  139.60214 162.55637 162.58107
          Condensed to atoms (all electrons):
               1          2          3          4          5          6
     1  Ir  17.582395  -0.010349  -0.071297  -1.146026  -0.045881  -0.016668
     2  C   -0.010349  48.339209  -4.089116   0.593385  -4.132925   0.403611
     3  P   -0.071297  -4.089116  16.496399  -0.310878  -0.761135   0.242591
     4  C   -1.146026   0.593385  -0.310878   7.491567  -0.312596   0.004338
     5  P   -0.045881  -4.132925  -0.761135  -0.312596  16.452822   0.012182
     6  H   -0.016668   0.403611   0.242591   0.004338   0.012182   0.693122
     7  H    0.033778   0.064679   0.294442  -0.051189   0.011400  -0.013552
     8  H   -0.017629   0.409212   0.245220   0.004399   0.012149  -0.029817
     9  H   -0.019988   0.402393   0.012162   0.004247   0.248498  -0.000007
    10  H    0.035058   0.069460   0.011255  -0.049890   0.291055  -0.000006
    11  H   -0.017065   0.422421   0.012828   0.004436   0.240704  -0.000045
    12  O   -0.091541  -0.018711  -0.004100   0.515979  -0.002941   0.000070
    13  C   -0.051347 -10.084681   7.406569  -0.132399  -4.842127  -0.428837
    14  C   -0.003531  -7.135061   1.065945  -0.030355  -0.310424  -0.089844
    15  C   -0.017371  -4.486119   0.181297  -0.009667   0.172059  -0.009438
    16  C    0.007003  -7.366759  -0.347031  -0.029109   1.112948   0.007177
    17  C    0.022498 -10.400464  -4.907236  -0.129141   7.335526   0.129095
    18  H   -0.042238   0.179628  -0.040774  -0.001052   0.014014   0.007545
    19  H   -0.001220   0.031916  -0.001002   0.000033  -0.000184   0.000052
    20  H   -0.001218   0.016991   0.000014   0.000023   0.000032   0.000000
    21  H   -0.001172   0.033434  -0.000143   0.000034  -0.001290  -0.000000
    22  H   -0.041884   0.172175   0.014987  -0.000731  -0.044817  -0.000012
               7          8          9         10         11         12
     1  Ir   0.033778  -0.017629  -0.019988   0.035058  -0.017065  -0.091541
     2  C    0.064679   0.409212   0.402393   0.069460   0.422421  -0.018711
     3  P    0.294442   0.245220   0.012162   0.011255   0.012828  -0.004100
     4  C   -0.051189   0.004399   0.004247  -0.049890   0.004436   0.515979
     5  P    0.011400   0.012149   0.248498   0.291055   0.240704  -0.002941
     6  H   -0.013552  -0.029817  -0.000007  -0.000006  -0.000045   0.000070
     7  H    0.623819  -0.013387  -0.000006  -0.000004  -0.000006   0.004837
     8  H   -0.013387   0.692382  -0.000044  -0.000006  -0.000008   0.000053
     9  H   -0.000006  -0.000044   0.692479  -0.013866  -0.029582   0.000054
    10  H   -0.000004  -0.000006  -0.013866   0.625080  -0.013826   0.004417
    11  H   -0.000006  -0.000008  -0.029582  -0.013826   0.693491   0.000047
    12  O    0.004837   0.000053   0.000054   0.004417   0.000047   7.827205
    13  C   -0.080006  -0.428190   0.126757   0.040342   0.133029   0.003412
    14  C   -0.011665  -0.095176   0.006608   0.001474   0.006530   0.000103
    15  C   -0.000937  -0.010208  -0.009118  -0.000948  -0.009953   0.000121
    16  C    0.001533   0.007533  -0.093142  -0.012460  -0.098290   0.000196
    17  C    0.040742   0.127877  -0.423923  -0.082973  -0.441692   0.004830
    18  H    0.002491   0.006530  -0.000011  -0.000015  -0.000014   0.000081
    19  H   -0.000004   0.000056  -0.000000   0.000000   0.000000   0.000000
    20  H   -0.000000   0.000000   0.000001  -0.000000   0.000000   0.000000
    21  H    0.000000   0.000000   0.000043  -0.000005   0.000068   0.000000
    22  H   -0.000014  -0.000013   0.007752   0.002306   0.007637   0.000077
              13         14         15         16         17         18
     1  Ir  -0.051347  -0.003531  -0.017371   0.007003   0.022498  -0.042238
     2  C  -10.084681  -7.135061  -4.486119  -7.366759 -10.400464   0.179628
     3  P    7.406569   1.065945   0.181297  -0.347031  -4.907236  -0.040774
     4  C   -0.132399  -0.030355  -0.009667  -0.029109  -0.129141  -0.001052
     5  P   -4.842127  -0.310424   0.172059   1.112948   7.335526   0.014014
     6  H   -0.428837  -0.089844  -0.009438   0.007177   0.129095   0.007545
     7  H   -0.080006  -0.011665  -0.000937   0.001533   0.040742   0.002491
     8  H   -0.428190  -0.095176  -0.010208   0.007533   0.127877   0.006530
     9  H    0.126757   0.006608  -0.009118  -0.093142  -0.423923  -0.000011
    10  H    0.040342   0.001474  -0.000948  -0.012460  -0.082973  -0.000015
    11  H    0.133029   0.006530  -0.009953  -0.098290  -0.441692  -0.000014
    12  O    0.003412   0.000103   0.000121   0.000196   0.004830   0.000081
    13  C   55.289545   7.358818   0.202939  -5.043181 -42.814791   0.028369
    14  C    7.358818  10.169719   1.531308  -1.527420  -4.529577  -0.100553
    15  C    0.202939   1.531308   6.680204   1.521753   0.063650   0.005064
    16  C   -5.043181  -1.527420   1.521753  10.408819   7.843108  -0.019074
    17  C  -42.814791  -4.529577   0.063650   7.843108  54.819851   0.158358
    18  H    0.028369  -0.100553   0.005064  -0.019074   0.158358   0.737588
    19  H   -0.044493   0.385864  -0.013785   0.000034  -0.018198  -0.010472
    20  H    0.016803  -0.056074   0.406780  -0.058224   0.017322  -0.000645
    21  H   -0.016440  -0.001551  -0.014898   0.390382  -0.049418   0.000177
    22  H    0.157452  -0.026054   0.007315  -0.082595   0.021955   0.000739
              19         20         21         22
     1  Ir  -0.001220  -0.001218  -0.001172  -0.041884
     2  C    0.031916   0.016991   0.033434   0.172175
     3  P   -0.001002   0.000014  -0.000143   0.014987
     4  C    0.000033   0.000023   0.000034  -0.000731
     5  P   -0.000184   0.000032  -0.001290  -0.044817
     6  H    0.000052   0.000000  -0.000000  -0.000012
     7  H   -0.000004  -0.000000   0.000000  -0.000014
     8  H    0.000056   0.000000   0.000000  -0.000013
     9  H   -0.000000   0.000001   0.000043   0.007752
    10  H    0.000000  -0.000000  -0.000005   0.002306
    11  H    0.000000   0.000000   0.000068   0.007637
    12  O    0.000000   0.000000   0.000000   0.000077
    13  C   -0.044493   0.016803  -0.016440   0.157452
    14  C    0.385864  -0.056074  -0.001551  -0.026054
    15  C   -0.013785   0.406780  -0.014898   0.007315
    16  C    0.000034  -0.058224   0.390382  -0.082595
    17  C   -0.018198   0.017322  -0.049418   0.021955
    18  H   -0.010472  -0.000645   0.000177   0.000739
    19  H    0.557164  -0.009158  -0.000332   0.000180
    20  H   -0.009158   0.546255  -0.009168  -0.000643
    21  H   -0.000332  -0.009168   0.557096  -0.010506
    22  H    0.000180  -0.000643  -0.010506   0.743622
 Mulliken charges:
               1
     1  Ir   0.915692
     2  C    2.585672
     3  P   -0.450997
     4  C   -0.415408
     5  P   -0.449070
     6  H    0.088445
     7  H    0.093048
     8  H    0.089066
     9  H    0.088693
    10  H    0.093551
    11  H    0.089289
    12  O   -0.244187
    13  C   -0.797543
    14  C   -0.609082
    15  C   -0.190050
    16  C   -0.623200
    17  C   -0.787397
    18  H    0.074263
    19  H    0.123547
    20  H    0.130909
    21  H    0.123688
    22  H    0.071071
 Sum of Mulliken charges =  -0.00000
 Mulliken charges with hydrogens summed into heavy atoms:
               1
     1  Ir   0.915692
     2  C    2.585672
     3  P   -0.180437
     4  C   -0.415408
     5  P   -0.177536
    12  O   -0.244187
    13  C   -0.723280
    14  C   -0.485535
    15  C   -0.059141
    16  C   -0.499513
    17  C   -0.716326
 Electronic spatial extent (au):  <R**2>=           3220.2004
 Charge=             -0.0000 electrons
 Dipole moment (field-independent basis, Debye):
    X=              1.6009    Y=              0.0263    Z=              0.0142  Tot=              1.6012
 Quadrupole moment (field-independent basis, Debye-Ang):
   XX=           -110.6607   YY=            -79.0783   ZZ=           -104.5472
   XY=             -0.0899   XZ=              0.0004   YZ=             -0.0230
 Traceless Quadrupole moment (field-independent basis, Debye-Ang):
   XX=            -12.5653   YY=             19.0171   ZZ=             -6.4518
   XY=             -0.0899   XZ=              0.0004   YZ=             -0.0230
 Octapole moment (field-independent basis, Debye-Ang**2):
  XXX=            -17.2341  YYY=              0.2265  ZZZ=              0.1149  XYY=            -37.5996
  XXY=              0.0451  XXZ=              0.2867  XZZ=            -42.8497  YZZ=             -0.0178
  YYZ=              0.1058  XYZ=             -0.3377
 Hexadecapole moment (field-independent basis, Debye-Ang**3):
 XXXX=          -3067.3468 YYYY=          -1281.0905 ZZZZ=           -162.2389 XXXY=             -0.7109
 XXXZ=              0.1385 YYYX=             -1.0509 YYYZ=             -0.2269 ZZZX=              0.1939
 ZZZY=              0.2540 XXYY=           -679.7813 XXZZ=           -569.5349 YYZZ=           -252.8726
 XXYZ=             -1.2506 YYXZ=              0.1131 ZZXY=              0.0159
 N-N= 8.942761909593D+02 E-N=-4.439256476662D+03  KE= 1.063795804240D+03
 Running external command "gaunbo7 R"
         input file       "/local/mvanvleet/pbs.15368.josephine/Gau-246958.EIn"
         output file      "/local/mvanvleet/pbs.15368.josephine/Gau-246958.EOu"
         message file     "/local/mvanvleet/pbs.15368.josephine/Gau-246958.EMs"
         fchk file        "/local/mvanvleet/pbs.15368.josephine/Gau-246958.EFC"
         mat. el file     "/local/mvanvleet/pbs.15368.josephine/Gau-246958.EUF"

 Writing WrtUnf unformatted file "/local/mvanvleet/pbs.15368.josephine/Gau-246958.EUF"
 Gaussian matrix elements                                         Version   2 NLab=11 Len12L=8 Len4L=8
 Write SHELL TO ATOM MAP                   from file      0 offset           0 length                 132 to matrix element file.
 Write SHELL TYPES                         from file      0 offset           0 length                 132 to matrix element file.
 Write NUMBER OF PRIMITIVES PER SHELL      from file      0 offset           0 length                 132 to matrix element file.
 Write PRIMITIVE EXPONENTS                 from file      0 offset           0 length                 239 to matrix element file.
 Write CONTRACTION COEFFICIENTS            from file      0 offset           0 length                 239 to matrix element file.
 Write P(S=P) CONTRACTION COEFFICIENTS     from file      0 offset           0 length                 239 to matrix element file.
 Write COORDINATES OF EACH SHELL           from file      0 offset           0 length                 396 to matrix element file.
 Write BONDS PER ATOM                      from file      0 offset           0 length                  22 to matrix element file.
 Write BONDED ATOMS                        from file      0 offset           0 length                  44 to matrix element file.
 Write BOND TYPES                          from file      0 offset           0 length                  44 to matrix element file.
 Write ONIOM CHARGE/MULT                   from file      0 offset           0 length                  32 to matrix element file.
 Write ONIOM ATOM LAYERS                   from file      0 offset           0 length                  22 to matrix element file.
 Write ONIOM ATOM MODIFIERS                from file      0 offset           0 length                  22 to matrix element file.
 Write ONIOM ATOM TYPES                    from file      0 offset           0 length                  22 to matrix element file.
 Write ONIOM LINK ATOMS                    from file      0 offset           0 length                  22 to matrix element file.
 Write ONIOM LINK CHARGES                  from file      0 offset           0 length                  22 to matrix element file.
 Write ONIOM LINK DISTANCES                from file      0 offset           0 length                  88 to matrix element file.
 Write SYMINF INTS                         from file      0 offset           0 length                  26 to matrix element file.
 Write ROTTR TO SO                         from file      0 offset           0 length                  12 to matrix element file.
 Write GAUSSIAN SCALARS                    from file    501 offset           0 to matrix element file.
 Write OPTIMIZATION FLAGS                  from file      0 offset           0 length                  22 to matrix element file.
 Write INTEGER ISO                         from file      0 offset           0 length                  22 to matrix element file.
 Write INTEGER SPIN                        from file      0 offset           0 length                  22 to matrix element file.
 Write REAL ZEFFECTIVE                     from file      0 offset           0 length                  22 to matrix element file.
 Write REAL QUADRUPOLEMOMENT               from file      0 offset           0 length                  22 to matrix element file.
 Write REAL GFACTOR                        from file      0 offset           0 length                  22 to matrix element file.
 Write REAL ZNUCLEAR                       from file      0 offset           0 length                  22 to matrix element file.
 Write MULLIKEN CHARGES                    from file      0 offset           0 length                  22 to matrix element file.
 Write NUCLEAR GRADIENT                    from file  10584 offset           0 length                  66 to matrix element file.
 Array NUCLEAR FORCE CONSTANTS              on  file  10585 does not exist.
 Write ELECTRIC DIPOLE MOMENT              from file      0 offset           0 length                   3 to matrix element file.
 Write NON-ADIABATIC COUPLING              from file  10810 offset           0 length                  66 to matrix element file.
 Write FINITE EM FIELD                     from file  10521 offset           0 length                  35 to matrix element file.
 Write OVERLAP                             from file  10514 offset           0 length               57291 to matrix element file.
 Write CORE HAMILTONIAN ALPHA              from file  10515 offset           0 length               57291 to matrix element file.
 Write CORE HAMILTONIAN BETA               from file  10515 offset       57291 length               57291 to matrix element file.
 Write KINETIC ENERGY                      from file  10516 offset           0 length               57291 to matrix element file.
 Write ORTHOGONAL BASIS                    from file  10685 offset           0 length              113906 to matrix element file.
 Write DIPOLE INTEGRALS                    from file  10518 offset           0 length              171873 to matrix element file.
 Array DIP VEL INTEGRALS                    on  file  10572 does not exist.
 Array R X DEL INTEGRALS                    on  file  10572 does not exist.
 Write ALPHA ORBITAL ENERGIES              from file      0 offset           0 length                 337 to matrix element file.
 Write ALPHA MO COEFFICIENTS               from file  10524 offset           0 length              113906 to matrix element file.
 Write ALPHA DENSITY MATRIX                from file      0 offset           0 length               57291 to matrix element file.
 Write ALPHA FOCK MATRIX                   from file  10536 offset           0 length               57291 to matrix element file.
 Write ENERGY-WEIGHTED DENSITY             from file  10571 offset           0 length               57291 to matrix element file.
 Write ALPHA SCF DENSITY MATRIX            from file      0 offset           0 length               57291 to matrix element file.
 No 2e integrals to process.
 Perform NBO analysis...executing G16NBO...

 *********************************** NBO 7.0 ***********************************
             N A T U R A L   A T O M I C   O R B I T A L   A N D
          N A T U R A L   B O N D   O R B I T A L   A N A L Y S I S
 *************************** Mary Van Vleet (I102706) **************************
  (c) Copyright 1996-2021 Board of Regents of the University of Wisconsin System
      on behalf of the Theoretical Chemistry Institute.  All rights reserved.

          Cite this program [NBO 7.0.10 (8-Feb-2021)] as:

          NBO 7.0.  E. D. Glendening, J. K. Badenhoop, A. E. Reed,
          J. E. Carpenter, J. A. Bohmann, C. M. Morales, P. Karafiloglou,
          C. R. Landis, and F. Weinhold, Theoretical Chemistry Institute,
          University of Wisconsin, Madison, WI (2018)

 Filename set to /local/mvanvleet/pbs.15368.josephine/Gau-246958

 Job title: trans-(H)Ir(PH3)2(CO)

 Interatomic linear dependence detected; s-type subshell on  C 14 discarded
 FIXDM: density matrix trace differs from integer value by -0.00001e; fixed


 NATURAL POPULATIONS:  Natural atomic orbital occupancies

  NAO Atom No lang   Type(AO)    Occupancy      Energy
 -------------------------------------------------------
   1   Ir  1  s      Cor( 5s)     1.99998      -3.55128
   2   Ir  1  s      Val( 6s)     0.67901       1.84631
   3   Ir  1  s      Ryd( 9s)     0.00321      13.56157
   4   Ir  1  s      Ryd( 7s)     0.00051       2.06899
   5   Ir  1  s      Ryd( 8s)     0.00005       3.21537
   6   Ir  1  s      Ryd(10s)     0.00003      38.89247
   7   Ir  1  px     Cor( 5p)     1.99983      -1.94311
   8   Ir  1  px     Ryd( 6p)     0.00117       1.21616
   9   Ir  1  px     Ryd( 7p)     0.00082       6.09251
  10   Ir  1  px     Ryd( 8p)     0.00055       5.64939
  11   Ir  1  px     Ryd( 9p)     0.00005      35.26023
  12   Ir  1  py     Cor( 5p)     1.99990      -1.94118
  13   Ir  1  py     Ryd( 6p)     0.00159       1.29802
  14   Ir  1  py     Ryd( 7p)     0.00242       5.84709
  15   Ir  1  py     Ryd( 8p)     0.00052       8.59684
  16   Ir  1  py     Ryd( 9p)     0.00002      24.14941
  17   Ir  1  pz     Cor( 5p)     1.99995      -1.89886
  18   Ir  1  pz     Ryd( 6p)     0.00400       0.41700
  19   Ir  1  pz     Ryd( 7p)     0.00154       2.36309
  20   Ir  1  pz     Ryd( 8p)     0.00001       1.68213
  21   Ir  1  pz     Ryd( 9p)     0.00001      43.04456
  22   Ir  1  dxy    Val( 5d)     1.73598      -0.24272
  23   Ir  1  dxy    Ryd( 7d)     0.00437       0.77204
  24   Ir  1  dxy    Ryd( 6d)     0.00072       0.49523
  25   Ir  1  dxz    Val( 5d)     1.64078      -0.19950
  26   Ir  1  dxz    Ryd( 7d)     0.00352       0.54839
  27   Ir  1  dxz    Ryd( 6d)     0.00006       0.38441
  28   Ir  1  dyz    Val( 5d)     1.87943      -0.21462
  29   Ir  1  dyz    Ryd( 7d)     0.00312       0.53100
  30   Ir  1  dyz    Ryd( 6d)     0.00029       0.35023
  31   Ir  1  dx2y2  Val( 5d)     1.35883      -0.19976
  32   Ir  1  dx2y2  Ryd( 7d)     0.00309       6.77828
  33   Ir  1  dx2y2  Ryd( 6d)     0.00109       1.66799
  34   Ir  1  dz2    Val( 5d)     1.90511      -0.20115
  35   Ir  1  dz2    Ryd( 7d)     0.00075       6.68476
  36   Ir  1  dz2    Ryd( 6d)     0.00251       0.59760

  37    C  2  s      Cor( 1s)     1.99998      -9.87194
  38    C  2  s      Val( 2s)     1.01846      -0.08643
  39    C  2  s      Ryd( 3s)     0.00677       3.74520
  40    C  2  s      Ryd( 4s)     0.00038       8.03563
  41    C  2  s      Ryd( 5s)     0.00004      10.53971
  42    C  2  px     Val( 2p)     1.26962      -0.03933
  43    C  2  px     Ryd( 5p)     0.01384      14.42258
  44    C  2  px     Ryd( 3p)     0.00068       5.82428
  45    C  2  px     Ryd( 4p)     0.00006       3.01177
  46    C  2  py     Val( 2p)     1.03242       0.02400
  47    C  2  py     Ryd( 5p)     0.00610       0.78505
  48    C  2  py     Ryd( 3p)     0.00037       1.64663
  49    C  2  py     Ryd( 4p)     0.00015       3.45466
  50    C  2  pz     Val( 2p)     0.94164      -0.09311
  51    C  2  pz     Ryd( 5p)     0.00525       0.55733
  52    C  2  pz     Ryd( 3p)     0.00024       0.67588
  53    C  2  pz     Ryd( 4p)     0.00010       2.68994
  54    C  2  dxy    Ryd( 3d)     0.00125       2.21305
  55    C  2  dxz    Ryd( 3d)     0.00052       1.49662
  56    C  2  dyz    Ryd( 3d)     0.00040       1.63491
  57    C  2  dx2y2  Ryd( 3d)     0.00042       2.41167
  58    C  2  dz2    Ryd( 3d)     0.00059       2.05340

  59    P  3  s      Cor( 1s)     2.00000     -75.99504
  60    P  3  s      Cor( 2s)     1.99996      -6.70158
  61    P  3  s      Val( 3s)     1.44537      -0.38751
  62    P  3  s      Ryd( 4s)     0.00444       1.91211
  63    P  3  s      Ryd( 5s)     0.00061       5.92800
  64    P  3  s      Ryd( 6s)     0.00001      15.00761
  65    P  3  s      Ryd( 7s)     0.00000     153.84809
  66    P  3  px     Cor( 2p)     2.00000      -4.57148
  67    P  3  px     Val( 3p)     1.01705      -0.16045
  68    P  3  px     Ryd( 4p)     0.00195       0.78905
  69    P  3  px     Ryd( 6p)     0.00023       0.91602
  70    P  3  px     Ryd( 5p)     0.00012       1.18116
  71    P  3  px     Ryd( 7p)     0.00000      13.52965
  72    P  3  py     Cor( 2p)     2.00000      -4.56823
  73    P  3  py     Val( 3p)     1.27242      -0.07734
  74    P  3  py     Ryd( 4p)     0.00540       1.76504
  75    P  3  py     Ryd( 6p)     0.00038       2.31364
  76    P  3  py     Ryd( 5p)     0.00009       1.10209
  77    P  3  py     Ryd( 7p)     0.00000      13.49586
  78    P  3  pz     Cor( 2p)     2.00000      -4.57098
  79    P  3  pz     Val( 3p)     1.00880      -0.16929
  80    P  3  pz     Ryd( 4p)     0.00264       0.46554
  81    P  3  pz     Ryd( 6p)     0.00027       0.65681
  82    P  3  pz     Ryd( 5p)     0.00002       1.05575
  83    P  3  pz     Ryd( 7p)     0.00000      13.57774
  84    P  3  dxy    Ryd( 3d)     0.00894       0.92648
  85    P  3  dxz    Ryd( 3d)     0.00280       0.80601
  86    P  3  dyz    Ryd( 3d)     0.00987       0.88581
  87    P  3  dx2y2  Ryd( 3d)     0.00323       0.91341
  88    P  3  dz2    Ryd( 3d)     0.00350       0.87510

  89    C  4  s      Cor( 1s)     1.99999      -9.98660
  90    C  4  s      Val( 2s)     1.29422      -0.25307
  91    C  4  s      Ryd( 4s)     0.03055       8.69762
  92    C  4  s      Ryd( 3s)     0.00037       6.03968
  93    C  4  s      Ryd( 5s)     0.00005      10.67190
  94    C  4  px     Val( 2p)     0.82571       0.00698
  95    C  4  px     Ryd( 5p)     0.01780       9.25476
  96    C  4  px     Ryd( 3p)     0.00041       5.44522
  97    C  4  px     Ryd( 4p)     0.00003       4.15104
  98    C  4  py     Val( 2p)     0.65993      -0.13909
  99    C  4  py     Ryd( 5p)     0.00103       0.64850
 100    C  4  py     Ryd( 3p)     0.00028       0.74150
 101    C  4  py     Ryd( 4p)     0.00004       2.57630
 102    C  4  pz     Val( 2p)     0.73669      -0.13698
 103    C  4  pz     Ryd( 5p)     0.00126       0.59146
 104    C  4  pz     Ryd( 3p)     0.00012       0.60362
 105    C  4  pz     Ryd( 4p)     0.00002       2.57774
 106    C  4  dxy    Ryd( 3d)     0.00314       1.67849
 107    C  4  dxz    Ryd( 3d)     0.00396       1.57048
 108    C  4  dyz    Ryd( 3d)     0.00010       1.26234
 109    C  4  dx2y2  Ryd( 3d)     0.00105       2.28691
 110    C  4  dz2    Ryd( 3d)     0.00058       1.58718

 111    P  5  s      Cor( 1s)     2.00000     -75.99502
 112    P  5  s      Cor( 2s)     1.99996      -6.70211
 113    P  5  s      Val( 3s)     1.44687      -0.38827
 114    P  5  s      Ryd( 4s)     0.00447       1.89771
 115    P  5  s      Ryd( 5s)     0.00062       5.93932
 116    P  5  s      Ryd( 6s)     0.00001      14.94152
 117    P  5  s      Ryd( 7s)     0.00000     153.90487
 118    P  5  px     Cor( 2p)     2.00000      -4.57175
 119    P  5  px     Val( 3p)     1.01608      -0.16097
 120    P  5  px     Ryd( 4p)     0.00199       0.78679
 121    P  5  px     Ryd( 6p)     0.00023       0.91573
 122    P  5  px     Ryd( 5p)     0.00012       1.19767
 123    P  5  px     Ryd( 7p)     0.00000      13.53409
 124    P  5  py     Cor( 2p)     2.00000      -4.56849
 125    P  5  py     Val( 3p)     1.27456      -0.07930
 126    P  5  py     Ryd( 4p)     0.00542       1.77209
 127    P  5  py     Ryd( 6p)     0.00038       2.32228
 128    P  5  py     Ryd( 5p)     0.00009       1.10570
 129    P  5  py     Ryd( 7p)     0.00000      13.49914
 130    P  5  pz     Cor( 2p)     2.00000      -4.57126
 131    P  5  pz     Val( 3p)     1.00882      -0.16990
 132    P  5  pz     Ryd( 4p)     0.00263       0.46303
 133    P  5  pz     Ryd( 6p)     0.00026       0.65176
 134    P  5  pz     Ryd( 5p)     0.00002       1.05812
 135    P  5  pz     Ryd( 7p)     0.00000      13.57838
 136    P  5  dxy    Ryd( 3d)     0.00901       0.93352
 137    P  5  dxz    Ryd( 3d)     0.00293       0.81342
 138    P  5  dyz    Ryd( 3d)     0.00964       0.88000
 139    P  5  dx2y2  Ryd( 3d)     0.00301       0.90438
 140    P  5  dz2    Ryd( 3d)     0.00345       0.87054

 141    H  6  s      Val( 1s)     0.94608      -0.13520
 142    H  6  s      Ryd( 2s)     0.00171       0.54206
 143    H  6  s      Ryd( 3s)     0.00007       2.22488
 144    H  6  px     Ryd( 2p)     0.00064       1.49563
 145    H  6  py     Ryd( 2p)     0.00066       1.52674
 146    H  6  pz     Ryd( 2p)     0.00146       1.72889

 147    H  7  s      Val( 1s)     0.94583      -0.12603
 148    H  7  s      Ryd( 2s)     0.00111       0.57782
 149    H  7  s      Ryd( 3s)     0.00008       2.19557
 150    H  7  px     Ryd( 2p)     0.00171       1.86946
 151    H  7  py     Ryd( 2p)     0.00057       1.52997
 152    H  7  pz     Ryd( 2p)     0.00015       1.36469

 153    H  8  s      Val( 1s)     0.94574      -0.13493
 154    H  8  s      Ryd( 2s)     0.00171       0.54670
 155    H  8  s      Ryd( 3s)     0.00007       2.22435
 156    H  8  px     Ryd( 2p)     0.00065       1.49635
 157    H  8  py     Ryd( 2p)     0.00065       1.52583
 158    H  8  pz     Ryd( 2p)     0.00145       1.73056

 159    H  9  s      Val( 1s)     0.94583      -0.13553
 160    H  9  s      Ryd( 2s)     0.00170       0.54209
 161    H  9  s      Ryd( 3s)     0.00007       2.22666
 162    H  9  px     Ryd( 2p)     0.00068       1.50084
 163    H  9  py     Ryd( 2p)     0.00063       1.52299
 164    H  9  pz     Ryd( 2p)     0.00144       1.72587

 165    H 10  s      Val( 1s)     0.94531      -0.12651
 166    H 10  s      Ryd( 2s)     0.00109       0.57793
 167    H 10  s      Ryd( 3s)     0.00008       2.19296
 168    H 10  px     Ryd( 2p)     0.00169       1.85960
 169    H 10  py     Ryd( 2p)     0.00063       1.53736
 170    H 10  pz     Ryd( 2p)     0.00015       1.36300

 171    H 11  s      Val( 1s)     0.94578      -0.13557
 172    H 11  s      Ryd( 2s)     0.00170       0.54092
 173    H 11  s      Ryd( 3s)     0.00007       2.22570
 174    H 11  px     Ryd( 2p)     0.00067       1.49891
 175    H 11  py     Ryd( 2p)     0.00063       1.52114
 176    H 11  pz     Ryd( 2p)     0.00146       1.73064

 177    O 12  s      Cor( 1s)     1.99999     -18.78737
 178    O 12  s      Val( 2s)     1.75934      -0.67149
 179    O 12  s      Ryd( 4s)     0.00510      10.33553
 180    O 12  s      Ryd( 3s)     0.00008       2.32578
 181    O 12  s      Ryd( 5s)     0.00000      48.84990
 182    O 12  px     Val( 2p)     1.56557      -0.27720
 183    O 12  px     Ryd( 3p)     0.00039       1.85739
 184    O 12  px     Ryd( 4p)     0.00018       1.68704
 185    O 12  px     Ryd( 5p)     0.00005       4.97576
 186    O 12  py     Val( 2p)     1.55921      -0.25986
 187    O 12  py     Ryd( 3p)     0.00074       0.44700
 188    O 12  py     Ryd( 4p)     0.00002       1.29498
 189    O 12  py     Ryd( 5p)     0.00001       4.54957
 190    O 12  pz     Val( 2p)     1.60454      -0.25743
 191    O 12  pz     Ryd( 3p)     0.00149       0.43832
 192    O 12  pz     Ryd( 4p)     0.00001       1.29570
 193    O 12  pz     Ryd( 5p)     0.00001       4.50343
 194    O 12  dxy    Ryd( 3d)     0.00162       2.85099
 195    O 12  dxz    Ryd( 3d)     0.00162       2.84740
 196    O 12  dyz    Ryd( 3d)     0.00000       2.70389
 197    O 12  dx2y2  Ryd( 3d)     0.00198       3.15792
 198    O 12  dz2    Ryd( 3d)     0.00067       2.85743

 199    C 13  s      Cor( 1s)     1.99998      -9.88008
 200    C 13  s      Val( 2s)     0.95298      -0.05893
 201    C 13  s      Ryd( 3s)     0.00292       2.37798
 202    C 13  s      Ryd( 4s)     0.00032       4.26724
 203    C 13  s      Ryd( 5s)     0.00007      20.46030
 204    C 13  px     Val( 2p)     1.09607       0.01187
 205    C 13  px     Ryd( 4p)     0.00507       1.62622
 206    C 13  px     Ryd( 3p)     0.00059       1.46461
 207    C 13  px     Ryd( 5p)     0.00022       3.40218
 208    C 13  py     Val( 2p)     1.15359      -0.02073
 209    C 13  py     Ryd( 4p)     0.00649       1.88078
 210    C 13  py     Ryd( 3p)     0.00044       1.86305
 211    C 13  py     Ryd( 5p)     0.00007       3.30459
 212    C 13  pz     Val( 2p)     1.01489      -0.10826
 213    C 13  pz     Ryd( 4p)     0.00107       0.44549
 214    C 13  pz     Ryd( 3p)     0.00049       0.43969
 215    C 13  pz     Ryd( 5p)     0.00001       2.64357
 216    C 13  dxy    Ryd( 3d)     0.00110       2.15640
 217    C 13  dxz    Ryd( 3d)     0.00040       1.55049
 218    C 13  dyz    Ryd( 3d)     0.00035       1.51770
 219    C 13  dx2y2  Ryd( 3d)     0.00105       2.20138
 220    C 13  dz2    Ryd( 3d)     0.00072       1.87706

 221    C 14  s      Cor( 1s)     1.99998      -9.88181
 222    C 14  s      Val( 2s)     0.94923      -0.07937
 223    C 14  s      Ryd( 3s)     0.00022       1.57176
 224    C 14  s      Ryd( 4s)     0.00001      22.52602
 225    C 14  px     Val( 2p)     1.09390      -0.00700
 226    C 14  px     Ryd( 3p)     0.00448       0.71916
 227    C 14  px     Ryd( 4p)     0.00027       1.43624
 228    C 14  px     Ryd( 5p)     0.00010       3.04241
 229    C 14  py     Val( 2p)     1.14463      -0.02708
 230    C 14  py     Ryd( 3p)     0.00637       0.89811
 231    C 14  py     Ryd( 4p)     0.00025       0.92839
 232    C 14  py     Ryd( 5p)     0.00009       3.03549
 233    C 14  pz     Val( 2p)     0.99268      -0.10829
 234    C 14  pz     Ryd( 3p)     0.00094       0.46622
 235    C 14  pz     Ryd( 4p)     0.00035       0.54874
 236    C 14  pz     Ryd( 5p)     0.00001       2.42899
 237    C 14  dxy    Ryd( 3d)     0.00102       2.20505
 238    C 14  dxz    Ryd( 3d)     0.00043       1.58094
 239    C 14  dyz    Ryd( 3d)     0.00032       1.53040
 240    C 14  dx2y2  Ryd( 3d)     0.00080       2.20271
 241    C 14  dz2    Ryd( 3d)     0.00095       1.88169

 242    C 15  s      Cor( 1s)     1.99998      -9.88161
 243    C 15  s      Val( 2s)     0.96421      -0.08110
 244    C 15  s      Ryd( 3s)     0.00180       1.30600
 245    C 15  s      Ryd( 5s)     0.00002      20.44330
 246    C 15  s      Ryd( 4s)     0.00001       1.70572
 247    C 15  px     Val( 2p)     1.17536      -0.03495
 248    C 15  px     Ryd( 4p)     0.00607       1.12905
 249    C 15  px     Ryd( 3p)     0.00021       0.66084
 250    C 15  px     Ryd( 5p)     0.00009       3.14097
 251    C 15  py     Val( 2p)     1.06046      -0.00374
 252    C 15  py     Ryd( 4p)     0.00316       0.69933
 253    C 15  py     Ryd( 3p)     0.00041       0.73228
 254    C 15  py     Ryd( 5p)     0.00017       3.19374
 255    C 15  pz     Val( 2p)     1.00929      -0.10835
 256    C 15  pz     Ryd( 4p)     0.00148       0.46304
 257    C 15  pz     Ryd( 3p)     0.00032       0.42314
 258    C 15  pz     Ryd( 5p)     0.00001       2.54916
 259    C 15  dxy    Ryd( 3d)     0.00069       2.15451
 260    C 15  dxz    Ryd( 3d)     0.00029       1.50621
 261    C 15  dyz    Ryd( 3d)     0.00041       1.59128
 262    C 15  dx2y2  Ryd( 3d)     0.00107       2.21610
 263    C 15  dz2    Ryd( 3d)     0.00067       1.89806

 264    C 16  s      Cor( 1s)     1.99998      -9.88191
 265    C 16  s      Val( 2s)     0.96227      -0.07356
 266    C 16  s      Ryd( 3s)     0.00122       1.27238
 267    C 16  s      Ryd( 4s)     0.00004       4.31169
 268    C 16  s      Ryd( 5s)     0.00002      17.31854
 269    C 16  px     Val( 2p)     1.09316      -0.00587
 270    C 16  px     Ryd( 3p)     0.00390       0.75117
 271    C 16  px     Ryd( 4p)     0.00032       1.51973
 272    C 16  px     Ryd( 5p)     0.00010       3.08816
 273    C 16  py     Val( 2p)     1.14533      -0.02614
 274    C 16  py     Ryd( 3p)     0.00593       0.94434
 275    C 16  py     Ryd( 4p)     0.00032       0.82277
 276    C 16  py     Ryd( 5p)     0.00008       3.03723
 277    C 16  pz     Val( 2p)     0.99270      -0.10823
 278    C 16  pz     Ryd( 3p)     0.00096       0.46852
 279    C 16  pz     Ryd( 4p)     0.00034       0.54462
 280    C 16  pz     Ryd( 5p)     0.00001       2.43246
 281    C 16  dxy    Ryd( 3d)     0.00101       2.20558
 282    C 16  dxz    Ryd( 3d)     0.00043       1.58218
 283    C 16  dyz    Ryd( 3d)     0.00032       1.53163
 284    C 16  dx2y2  Ryd( 3d)     0.00081       2.20706
 285    C 16  dz2    Ryd( 3d)     0.00065       1.90751

 286    C 17  s      Cor( 1s)     1.99998      -9.87989
 287    C 17  s      Val( 2s)     0.95153      -0.06019
 288    C 17  s      Ryd( 3s)     0.00240       2.22357
 289    C 17  s      Ryd( 4s)     0.00028       4.84801
 290    C 17  s      Ryd( 5s)     0.00006      20.60768
 291    C 17  px     Val( 2p)     1.09196       0.01937
 292    C 17  px     Ryd( 3p)     0.00504       1.81888
 293    C 17  px     Ryd( 4p)     0.00033       2.06931
 294    C 17  px     Ryd( 5p)     0.00022       3.53434
 295    C 17  py     Val( 2p)     1.15484      -0.02156
 296    C 17  py     Ryd( 3p)     0.00642       1.81294
 297    C 17  py     Ryd( 4p)     0.00051       1.69134
 298    C 17  py     Ryd( 5p)     0.00007       3.31254
 299    C 17  pz     Val( 2p)     1.01483      -0.10849
 300    C 17  pz     Ryd( 3p)     0.00096       0.46071
 301    C 17  pz     Ryd( 4p)     0.00045       0.40986
 302    C 17  pz     Ryd( 5p)     0.00001       2.65979
 303    C 17  dxy    Ryd( 3d)     0.00111       2.15728
 304    C 17  dxz    Ryd( 3d)     0.00040       1.55025
 305    C 17  dyz    Ryd( 3d)     0.00035       1.51831
 306    C 17  dx2y2  Ryd( 3d)     0.00111       2.19317
 307    C 17  dz2    Ryd( 3d)     0.00073       1.88062

 308    H 18  s      Val( 1s)     0.81528       0.04781
 309    H 18  s      Ryd( 2s)     0.00175       1.06550
 310    H 18  s      Ryd( 3s)     0.00025       2.35730
 311    H 18  px     Ryd( 2p)     0.00018       2.09013
 312    H 18  py     Ryd( 2p)     0.00038       2.52733
 313    H 18  pz     Ryd( 2p)     0.00037       1.57264

 314    H 19  s      Val( 1s)     0.78764       0.05821
 315    H 19  s      Ryd( 2s)     0.00168       0.73157
 316    H 19  s      Ryd( 3s)     0.00012       2.33246
 317    H 19  px     Ryd( 2p)     0.00018       2.09516
 318    H 19  py     Ryd( 2p)     0.00034       2.37474
 319    H 19  pz     Ryd( 2p)     0.00023       1.56599

 320    H 20  s      Val( 1s)     0.78420       0.05776
 321    H 20  s      Ryd( 2s)     0.00111       0.55611
 322    H 20  s      Ryd( 3s)     0.00013       2.29828
 323    H 20  px     Ryd( 2p)     0.00038       2.55795
 324    H 20  py     Ryd( 2p)     0.00009       1.91728
 325    H 20  pz     Ryd( 2p)     0.00021       1.56671

 326    H 21  s      Val( 1s)     0.78738       0.05660
 327    H 21  s      Ryd( 2s)     0.00109       0.57388
 328    H 21  s      Ryd( 3s)     0.00014       2.34504
 329    H 21  px     Ryd( 2p)     0.00018       2.09589
 330    H 21  py     Ryd( 2p)     0.00031       2.38581
 331    H 21  pz     Ryd( 2p)     0.00023       1.56609

 332    H 22  s      Val( 1s)     0.81505       0.04784
 333    H 22  s      Ryd( 2s)     0.00165       1.09333
 334    H 22  s      Ryd( 3s)     0.00024       2.34909
 335    H 22  px     Ryd( 2p)     0.00017       2.09065
 336    H 22  py     Ryd( 2p)     0.00038       2.54557
 337    H 22  pz     Ryd( 2p)     0.00037       1.57315

 [60 electrons found in the effective core potential]


 Summary of Natural Population Analysis:

                                     Natural Population
             Natural    ---------------------------------------------
  Atom No    Charge        Core      Valence    Rydberg      Total
 --------------------------------------------------------------------
   Ir  1   -0.23484     67.99966     9.19915    0.03602    77.23484
    C  2   -0.29927      1.99998     4.26214    0.03715     6.29927
    P  3    0.21190      9.99996     4.74363    0.04450    14.78810
    C  4    0.42265      1.99999     3.51655    0.06081     5.57735
    P  5    0.20942      9.99996     4.74634    0.04429    14.79058
    H  6    0.04939      0.00000     0.94608    0.00453     0.95061
    H  7    0.05055      0.00000     0.94583    0.00362     0.94945
    H  8    0.04973      0.00000     0.94574    0.00453     0.95027
    H  9    0.04965      0.00000     0.94583    0.00452     0.95035
    H 10    0.05105      0.00000     0.94531    0.00365     0.94895
    H 11    0.04971      0.00000     0.94578    0.00452     0.95029
    O 12   -0.50263      1.99999     6.48866    0.01397     8.50263
    C 13   -0.23887      1.99998     4.21753    0.02137     6.23887
    C 14   -0.19704      1.99998     4.18045    0.01662     6.19704
    C 15   -0.22617      1.99998     4.20932    0.01686     6.22617
    C 16   -0.20991      1.99998     4.19346    0.01647     6.20991
    C 17   -0.23359      1.99998     4.21316    0.02045     6.23359
    H 18    0.18178      0.00000     0.81528    0.00293     0.81822
    H 19    0.20981      0.00000     0.78764    0.00255     0.79019
    H 20    0.21387      0.00000     0.78420    0.00193     0.78613
    H 21    0.21067      0.00000     0.78738    0.00194     0.78933
    H 22    0.18214      0.00000     0.81505    0.00281     0.81786
 ====================================================================
 * Total *  0.00000    103.99946    63.63451    0.36604   168.00000

                                 Natural Population
 ---------------------------------------------------------
   Effective Core            60.00000
   Core                      43.99946 ( 99.9988% of   44)
   Valence                   63.63451 ( 99.4289% of   64)
   Natural Minimal Basis    167.63396 ( 99.7821% of  168)
   Natural Rydberg Basis      0.36604 (  0.2179% of  168)
 ---------------------------------------------------------

    Atom No         Natural Electron Configuration
 ----------------------------------------------------------------------------
     Ir  1      [core]6s( 0.68)5d( 8.52)6p( 0.01)
      C  2      [core]2s( 1.02)2p( 3.24)3s( 0.01)5p( 0.03)
      P  3      [core]3s( 1.45)3p( 3.30)3d( 0.03)4p( 0.01)
      C  4      [core]2s( 1.29)2p( 2.22)4s( 0.03)3d( 0.01)5p( 0.02)
      P  5      [core]3s( 1.45)3p( 3.30)3d( 0.03)4p( 0.01)
      H  6            1s( 0.95)
      H  7            1s( 0.95)
      H  8            1s( 0.95)
      H  9            1s( 0.95)
      H 10            1s( 0.95)
      H 11            1s( 0.95)
      O 12      [core]2s( 1.76)2p( 4.73)4s( 0.01)3d( 0.01)
      C 13      [core]2s( 0.95)2p( 3.26)4p( 0.01)
      C 14      [core]2s( 0.95)2p( 3.23)3p( 0.01)
      C 15      [core]2s( 0.96)2p( 3.25)4p( 0.01)
      C 16      [core]2s( 0.96)2p( 3.23)3p( 0.01)
      C 17      [core]2s( 0.95)2p( 3.26)3p( 0.01)
      H 18            1s( 0.82)
      H 19            1s( 0.79)
      H 20            1s( 0.78)
      H 21            1s( 0.79)
      H 22            1s( 0.82)


 NATURAL BOND ORBITAL ANALYSIS:

[...]
                                                     67(r),131(r),95(r),216(r)
                                                     169(r),84(r),110(v),280(v)
                                                     301(g),151(r),155(r),78(v)
                                                     102(r),166(r),120(v),251(r)
                                                     150(r),136(r),175(r),89(r)
                                                     202(r),68(r),66(r),223(r)
                                                     192(r),182(r),92(r),187(r)
                                                     91(r),126(r),197(r),207(r)
                                                     80(r),132(r),129(r),88(r)
                                                     164(r),94(r),101(r),137(r)
                                                     128(r),218(r),170(r),168(r)
                                                     174(r),171(r),134(r),172(r)
 ------ non-Lewis ----------------------------------
   57. BD*( 1) C  2- C 13       0.02109     0.52891
   58. BD*( 2) C  2- C 13       0.32689     0.01999
   59. BD*( 1) C  2- C 17       0.02150     0.50998
   69. BD*( 1) C 13- C 14       0.02385     0.55481
   70. BD*( 1) C 13- H 18       0.02327     0.38501
   71. BD*( 1) C 14- C 15       0.01619     0.52619
   72. BD*( 2) C 14- C 15       0.34561     0.01193
   73. BD*( 1) C 14- H 19       0.01598     0.37921
   74. BD*( 1) C 15- C 16       0.01617     0.52571
   75. BD*( 1) C 15- H 20       0.01576     0.38184
   76. BD*( 1) C 16- C 17       0.02386     0.53564
   77. BD*( 2) C 16- C 17       0.33456     0.01277
   78. BD*( 1) C 16- H 21       0.01603     0.37917
   79. BD*( 1) C 17- H 22       0.02357     0.38741
  106. RY ( 1) C  2             0.00807    16.21617
  107. RY ( 2) C  2             0.00454     1.06471
  108. RY ( 3) C  2             0.00390     0.55793
  109. RY ( 4) C  2             0.00237     2.48521
  110. RY ( 5) C  2             0.00047     2.21496
  111. RY ( 6) C  2             0.00040     1.59833
  112. RY ( 7) C  2             0.00026     7.85257
  113. RY ( 8) C  2             0.00025     0.83675
  114. RY ( 9) C  2             0.00017     4.41760
  115. RY (10) C  2             0.00008     1.27647
  116. RY (11) C  2             0.00008     3.70484
  117. RY (12) C  2             0.00006     3.22682
  118. RY (13) C  2             0.00004     2.01180
  119. RY (14) C  2             0.00001     4.78357
  120. RY (15) C  2             0.00001     5.97742
  121. RY (16) C  2             0.00000     2.61255
  122. RY (17) C  2             0.00000     2.80393
  229. RY ( 1) C 13             0.00803     3.56685
  230. RY ( 2) C 13             0.00267     1.18187
  231. RY ( 3) C 13             0.00131     0.56876
  232. RY ( 4) C 13             0.00091     3.21618
  233. RY ( 5) C 13             0.00046     1.37268
  234. RY ( 6) C 13             0.00040     4.18809
  235. RY ( 7) C 13             0.00019     3.59587
  236. RY ( 8) C 13             0.00015     2.21314
  237. RY ( 9) C 13             0.00012     3.72848
  238. RY (10) C 13             0.00007     2.91616
  239. RY (11) C 13             0.00005     0.87881
  240. RY (12) C 13             0.00004     2.62801
  241. RY (13) C 13             0.00001     3.98567
  242. RY (14) C 13             0.00001     1.07193
  243. RY (15) C 13             0.00001    16.10003
  244. RY (16) C 13             0.00000     3.31613
  245. RY (17) C 13             0.00000     2.73275
  246. RY ( 1) C 14             0.00602     1.02850
  247. RY ( 2) C 14             0.00159     1.41822
  248. RY ( 3) C 14             0.00106     0.38440
  249. RY ( 4) C 14             0.00057     1.52627
  250. RY ( 5) C 14             0.00055     1.73387
  251. RY ( 6) C 14             0.00026     2.59674
  252. RY ( 7) C 14             0.00010     1.80138
  253. RY ( 8) C 14             0.00007     2.72646
  254. RY ( 9) C 14             0.00004     2.49143
  255. RY (10) C 14             0.00003     2.09683
  256. RY (11) C 14             0.00001     0.88773
  257. RY (12) C 14             0.00001     1.89349
  258. RY (13) C 14             0.00001     8.13329
  259. RY (14) C 14             0.00000    11.75303
  260. RY (15) C 14             0.00000     3.15578
  261. RY (16) C 14             0.00000     2.04304
  262. RY (17) C 14             0.00000     1.72696
  263. RY ( 1) C 15             0.00506     1.12906
  264. RY ( 2) C 15             0.00158     1.51948
  265. RY ( 3) C 15             0.00133     0.36457
  266. RY ( 4) C 15             0.00048     1.58608
  267. RY ( 5) C 15             0.00047     1.62690
  268. RY ( 6) C 15             0.00019     2.62028
  269. RY ( 7) C 15             0.00015     1.52027
  270. RY ( 8) C 15             0.00005     3.05842
  271. RY ( 9) C 15             0.00003     2.83034
  272. RY (10) C 15             0.00001     2.22512
  273. RY (11) C 15             0.00001    15.35469
  274. RY (12) C 15             0.00001     0.91405
  275. RY (13) C 15             0.00000     1.27889
  276. RY (14) C 15             0.00000     3.17789
  277. RY (15) C 15             0.00000     0.97417
  278. RY (16) C 15             0.00000     2.83152
  279. RY (17) C 15             0.00000     2.73384
  280. RY ( 1) C 16             0.00637     1.04562
  281. RY ( 2) C 16             0.00140     1.48093
  282. RY ( 3) C 16             0.00113     0.43739
  283. RY ( 4) C 16             0.00066     2.09114
  284. RY ( 5) C 16             0.00053     1.47272
  285. RY ( 6) C 16             0.00028     2.49522
  286. RY ( 7) C 16             0.00016     4.62759
  287. RY ( 8) C 16             0.00009     2.01124
  288. RY ( 9) C 16             0.00006     3.02831
  289. RY (10) C 16             0.00003     1.47750
  290. RY (11) C 16             0.00001     1.85200
  291. RY (12) C 16             0.00001     4.17953
  292. RY (13) C 16             0.00001     0.88821
  293. RY (14) C 16             0.00000    13.95200
  294. RY (15) C 16             0.00000     2.04440
  295. RY (16) C 16             0.00000     1.72569
  296. RY (17) C 16             0.00000     2.82056
  297. RY ( 1) C 17             0.00744     2.26805
  298. RY ( 2) C 17             0.00230     0.98725
  299. RY ( 3) C 17             0.00121     0.54642
  300. RY ( 4) C 17             0.00050     1.39939
  301. RY ( 5) C 17             0.00050     1.59107
  302. RY ( 6) C 17             0.00032     1.92970
  303. RY ( 7) C 17             0.00020     2.10530
  304. RY ( 8) C 17             0.00010     3.23436
  305. RY ( 9) C 17             0.00009     1.87675
  306. RY (10) C 17             0.00005     0.88639
  307. RY (11) C 17             0.00005     3.04402
  308. RY (12) C 17             0.00002     2.33688
  309. RY (13) C 17             0.00001     1.06077
  310. RY (14) C 17             0.00000     5.38711
  311. RY (15) C 17             0.00000     2.73462
  312. RY (16) C 17             0.00000    18.58176
  313. RY ( 1) H 18             0.00149     1.19233
  314. RY ( 2) H 18             0.00033     1.57179
  315. RY ( 3) H 18             0.00029     2.57708
  316. RY ( 4) H 18             0.00017     1.97552
  317. RY ( 5) H 18             0.00002     2.49140
  318. RY ( 1) H 19             0.00121     0.69564
  319. RY ( 2) H 19             0.00023     1.56712
  320. RY ( 3) H 19             0.00019     2.44696
  321. RY ( 4) H 19             0.00010     1.94075
  322. RY ( 5) H 19             0.00001     2.27338
  323. RY ( 1) H 20             0.00115     0.74897
  324. RY ( 2) H 20             0.00021     1.56946
  325. RY ( 3) H 20             0.00019     2.41643
  326. RY ( 4) H 20             0.00009     1.91157
  327. RY ( 5) H 20             0.00001     2.31789
  328. RY ( 1) H 21             0.00121     0.73310
  329. RY ( 2) H 21             0.00023     1.56710
  330. RY ( 3) H 21             0.00016     2.38066
  331. RY ( 4) H 21             0.00010     1.92587
  332. RY ( 5) H 21             0.00002     2.28465
  333. RY ( 1) H 22             0.00221     1.44038
  334. RY ( 2) H 22             0.00033     1.57184
  335. RY ( 3) H 22             0.00029     2.52897
  336. RY ( 4) H 22             0.00018     1.95424
  337. RY ( 5) H 22             0.00002     2.60337
          -------------------------------
                 Total Lewis   40.14267  ( 96.8324%)
           Valence non-Lewis    1.22434  (  2.9534%)
           Rydberg non-Lewis    0.08882  (  0.2143%)
          -------------------------------
               Total unit  2   41.45583  (100.0000%)
              Charge unit  2   -0.45583

 Molecular unit  3  (H3P)
 ------ Lewis --------------------------------------
   12. CR ( 1) P  5             2.00000   -75.99489
   13. CR ( 2) P  5             1.99996    -6.69863
   14. CR ( 3) P  5             2.00000    -4.56989
   15. CR ( 4) P  5             2.00000    -4.56663
   16. CR ( 5) P  5             2.00000    -4.56949
   28. LP ( 1) P  5             1.46470    -0.13472  55(r),106(r),145(r),100(r)
                                                     212(r),229(r),144(r),56(r)
                                                     86(r),98(r),123(r),97(r)
                                                     93(r),297(r),161(g),82(r)
                                                     157(r),333(r),159(r),114(r)
                                                     215(r),112(r),313(r),84(r)
                                                     104(r),169(g),232(r),131(r)
                                                     95(r),216(r),66(g),68(g)
                                                     301(r),155(r),151(r),102(r)
                                                     285(r),67(g),120(r),304(r)
                                                     110(r),175(g),150(r),136(r)
                                                     91(r),89(r),337(r),317(r)
                                                     187(r),251(r),166(g),192(r)
                                                     182(r),235(r),234(r),126(r)
                                                     230(r),238(r),132(r),267(r)
                                                     223(r),164(g),271(r),241(r)
                                                     94(r),202(v),88(r),253(r)
                                                     207(v),289(r),197(v),92(r)
                                                     63(r),263(r),128(r),323(r)
                                                     137(r),308(r),69(r),57(r)
                                                     109(r),268(r),121(r),168(g)
                                                     163(g),298(r),218(r),62(r)
                                                     60(r),129(r),236(r),171(g)
                                                     307(r),254(r),247(r),252(r)
                                                     117(r),133(r),288(r),170(g)
                                                     205(v),83(r),101(r),125(r)
                                                     107(r),134(r),61(r),250(r)
                                                     116(r),246(r),209(v),199(v)
                                                     190(r),244(r),275(r),315(r)
                                                     321(r),153(r),270(r),293(r)
                                                     80(r),99(r),327(r),79(r)
                                                     76(r),206(v),305(r),96(r)
                                                     65(r),281(r),184(r),203(v)
                                                     194(r),335(r),156(r),85(r)
                                                     283(r),257(r),70(r),201(v)
                                                     211(v),172(g),118(r),147(r)
                                                     291(r),278(r),221(r),259(r)
                                                     149(r),318(r),174(g),331(r)
                                                     336(r),191(r),303(r),260(r)
                                                     287(r),188(r),290(r),154(r)
                                                     322(r),71(r),219(r),74(r)
                                                     90(r),296(r),214(r),300(r)
                                                     196(r),183(r),276(r),186(r)
                                                     193(r),258(r),328(r),264(r)
                                                     302(r),243(r),316(r),272(r)
                                                     119(r),269(r),227(r),240(r)
                                                     59(r),139(r),330(r),140(r)
                                                     273(r),220(r),332(r),75(r)
   41. BD ( 1) P  5- H  9       1.98736    -0.44747  68(g),67(g),55(r),79(r)
                                                     83(r),101(r),94(r),91(r)
                                                     88(r),80(r),76(r),129(r)
                                                     87(r),153(r),56(r),335(r)
                                                     298(r),150(r),133(r)
   42. BD ( 1) P  5- H 10       1.98892    -0.44574  68(g),66(g),55(r),84(r)
                                                     63(r),297(r),91(r),97(r)
                                                     82(r),100(r),102(r),94(r)
                                                     98(r),145(r),212(r),144(r)
                                                     79(r),88(r),216(r),56(r)
                                                     298(r),106(r),159(r),151(r)
                                                     229(r),313(r),101(r),129(r)
                                                     76(r),92(r),301(r)
   43. BD ( 1) P  5- H 11       1.98741    -0.44745  66(g),67(g),55(r),79(r)
                                                     83(r),101(r),94(r),91(r)
                                                     88(r),80(r),76(r),129(r)
                                                     87(r),153(r),56(r),335(r)
                                                     298(r),150(r),133(r)
 ------ non-Lewis ----------------------------------
   66. BD*( 1) P  5- H  9       0.06324     0.10987
   67. BD*( 1) P  5- H 10       0.05603     0.12115
   68. BD*( 1) P  5- H 11       0.06324     0.10987
  161. RY ( 1) P  5             0.00820     2.71085
  162. RY ( 2) P  5             0.00678     0.90225
  163. RY ( 3) P  5             0.00562     0.95873
  164. RY ( 4) P  5             0.00177     0.82154
  165. RY ( 5) P  5             0.00150     0.40524
  166. RY ( 6) P  5             0.00080     0.96359
  167. RY ( 7) P  5             0.00021     0.91506
  168. RY ( 8) P  5             0.00020     4.20128
  169. RY ( 9) P  5             0.00013     2.87662
  170. RY (10) P  5             0.00005     0.62327
  171. RY (11) P  5             0.00003     2.37560
  172. RY (12) P  5             0.00001     1.76779
  173. RY (13) P  5             0.00001     0.49147
  174. RY (14) P  5             0.00001     1.32033
  175. RY (15) P  5             0.00001     1.83394
  176. RY (16) P  5             0.00000     1.69816
  177. RY (17) P  5             0.00000     9.26234
  178. RY (18) P  5             0.00000   150.44311
  179. RY (19) P  5             0.00000    13.04347
  180. RY (20) P  5             0.00000    17.97535
  181. RY (21) P  5             0.00000    16.45965
  197. RY ( 1) H  9             0.00189     0.60004
  198. RY ( 2) H  9             0.00024     1.44266
  199. RY ( 3) H  9             0.00014     1.66667
  200. RY ( 4) H  9             0.00009     1.81430
  201. RY ( 5) H  9             0.00004     1.97630
  202. RY ( 1) H 10             0.00125     0.59857
  203. RY ( 2) H 10             0.00015     2.02977
  204. RY ( 3) H 10             0.00014     1.36390
  205. RY ( 4) H 10             0.00010     1.49049
  206. RY ( 5) H 10             0.00006     2.00665
  207. RY ( 1) H 11             0.00190     0.60098
  208. RY ( 2) H 11             0.00024     1.44319
  209. RY ( 3) H 11             0.00014     1.66635
  210. RY ( 4) H 11             0.00009     1.81182
  211. RY ( 5) H 11             0.00004     1.97761
          -------------------------------
                 Total Lewis   17.42835  ( 98.7851%)
           Valence non-Lewis    0.18251  (  1.0345%)
           Rydberg non-Lewis    0.03183  (  0.1804%)
          -------------------------------
               Total unit  3   17.64269  (100.0000%)
              Charge unit  3    0.35731

 $CHOOSE
   LONE 1 4 2 1 5 1 12 1 END
   BOND S 1 3 S 1 4 D 2 13 S 2 17 S 3 6 S 3 7 S 3 8 T 4 12 S 5 9 S 5 10 S 5 11
        S 13 14 S 13 18 D 14 15 S 14 19 S 15 16 S 15 20 D 16 17 S 16 21 S 17 22
        END
 $END

 NBO analysis completed in 10.58 CPU seconds (11 wall seconds)
 Maximum scratch memory used by NBO was 1475025 words (11.25 MB)
 Maximum scratch memory used by G16NBO was 182316 words (1.39 MB)

 Opening RunExU unformatted file "/local/mvanvleet/pbs.15368.josephine/Gau-246958.EUF"
 Read unf file /local/mvanvleet/pbs.15368.josephine/Gau-246958.EUF:
 Label Gaussian matrix elements                                         IVers= 2 NLab= 2 Version=ES64L-G16RevC.01
 Title trans-(H)Ir(PH3)2(CO)                                           
 NAtoms=    22 NBasis=   338 NBsUse=   337 ICharg=     0 Multip=     1 NE=   108 Len12L=8 Len4L=8 IOpCl= 0 ICGU=111
 GAUSSIAN SCALARS                    NI= 1 NR= 1 NTot=       1 LenBuf=    2 NRI=1 N=    1000
 NPA CHARGES                         NI= 0 NR= 1 NTot=      22 LenBuf= 4000 NRI=1 N=      22
 Recovered energy= -1135.11365329     dipole=     -0.015787848320     -0.002567898348      0.000285474777
 Unable to Open any file for archive entry.
 1\1\GINC-NODE002\POpt\RPBEPBE\GenECP\C7H11Ir1O1P2\MVANVLEET\05-Jun-202
 4\1\\# PBEPBE GenECP POpt Pop=NBO7\\trans-(H)Ir(PH3)2(CO)\\0,1\Ir\C,1,
 B1\P,1,B2,2,A1\C,1,B3,3,A2,2,D1,0\P,1,B4,2,A3,3,D2,0\H,3,B5,1,A4,2,D3,
 0\H,3,B6,1,A5,2,D4,0\H,3,B7,1,A6,2,D5,0\H,5,B8,1,A7,2,D6,0\H,5,B9,1,A8
 ,2,D7,0\H,5,B10,1,A9,2,D8,0\O,1,B11,3,A10,8,D9,0\C,3,B14,1,A13,2,D12,0
 \C,13,B15,2,A14,1,D13,0\C,14,B16,13,A15,2,D14,0\C,15,B17,14,A16,13,D15
 ,0\C,2,B18,1,A17,3,D16,0\H,13,B19,2,A18,1,D17,0\H,14,B20,13,A19,2,D18,
 0\H,15,B21,14,A20,13,D19,0\H,16,B22,15,A21,14,D20,0\H,17,B23,2,A22,1,D
 21,0\\B1=2.16487559\B2=2.30261181\B4=2.3004089\B5=1.42600799\B6=1.4248
 5376\B7=1.42598612\B8=1.42600146\B9=1.42485949\B10=1.42604208\B11=3.03
 66112\B14=3.15018012\B15=1.40063952\B16=1.39766989\B17=1.39763393\B18=
 1.41990398\B19=1.09433703\B20=1.09399638\B21=1.09280486\B22=1.09403148
 \B23=1.09429276\A4=119.73981732\A5=117.807901\A6=119.74184967\A7=119.7
 061817\A8=117.82940329\A9=119.71671084\A10=90.03362741\A13=69.23645333
 \A14=123.9634003\A15=120.26221514\A16=118.29451722\A17=123.37740393\A1
 8=120.83602094\A19=119.55085812\A20=120.86173634\A21=120.16742274\A22=
 120.89047736\D3=60.90365515\D4=180.06168868\D5=299.22166089\D6=60.5491
 2528\D7=179.72486709\D8=298.90702253\D9=119.22722189\D14=359.98425378\
 D16=179.97895895\D17=359.90730334\D18=179.989936\D19=180.00155121\D20=
 179.99996336\D21=0.00180415\B3=1.868\A1=90.\A2=90.\A3=90.\D1=180.\D2=-
 180.\D13=180.\D15=360.\D12=0.\\Version=ES64L-G16RevC.01\State=1-A\HF=-
 1135.1136533\RMSD=5.911e-09\RMSF=2.045e-03\Dipole=0.0025645,-0.0002867
 ,-0.0157884\Quadrupole=13.6303302,-5.7253118,-7.9050184,-0.0024584,-0.
 0075933,-0.0004675\PG=C01 [X(C7H11Ir1O1P2)]\\@
 The archive entry for this job was punched.


 LIFE CAN ONLY BE UNDERSTOOD BACKWARD, BUT MUST
 BE LIVED FORWARD. -- KIRKEGAARD
 Job cpu time:       0 days  1 hours 55 minutes 17.4 seconds.
 Elapsed time:       0 days  0 hours  2 minutes 30.6 seconds.
 File lengths (MBytes):  RWF=     73 Int=      0 D2E=      0 Chk=      9 Scr=      1
 Normal termination of Gaussian 16 at Wed Jun  5 15:49:25 2024.
