 Entering Gaussian System, Link 0=/cm/shared/apps//g16/g16
 Input=trans-pyridonate_Ir_PH3_2_NH3.gjf
 Output=trans-pyridonate_Ir_PH3_2_NH3.log
 Initial command:
 /cm/shared/apps//g16/l1.exe "/local/mvanvleet/pbs.15378.josephine/Gau-190925.inp" -scrdir="/local/mvanvleet/pbs.15378.josephine/"
 Entering Link 1 = /cm/shared/apps//g16/l1.exe PID=    190928.
  
 Copyright (c) 1988-2019, Gaussian, Inc.  All Rights Reserved.
  
 This is part of the Gaussian(R) 16 program.  It is based on
 the Gaussian(R) 09 system (copyright 2009, Gaussian, Inc.),
 the Gaussian(R) 03 system (copyright 2003, Gaussian, Inc.),
 the Gaussian(R) 98 system (copyright 1998, Gaussian, Inc.),
 the Gaussian(R) 94 system (copyright 1995, Gaussian, Inc.),
 the Gaussian 92(TM) system (copyright 1992, Gaussian, Inc.),
 the Gaussian 90(TM) system (copyright 1990, Gaussian, Inc.),
 the Gaussian 88(TM) system (copyright 1988, Gaussian, Inc.),
 the Gaussian 86(TM) system (copyright 1986, Carnegie Mellon
 University), and the Gaussian 82(TM) system (copyright 1983,
 Carnegie Mellon University). Gaussian is a federally registered
 trademark of Gaussian, Inc.
  
 This software contains proprietary and confidential information,
 including trade secrets, belonging to Gaussian, Inc.
  
 This software is provided under written license and may be
 used, copied, transmitted, or stored only in accord with that
 written license.
  
 The following legend is applicable only to US Government
 contracts under FAR:
  
                    RESTRICTED RIGHTS LEGEND
  
 Use, reproduction and disclosure by the US Government is
 subject to restrictions as set forth in subparagraphs (a)
 and (c) of the Commercial Computer Software - Restricted
 Rights clause in FAR 52.227-19.
  
 Gaussian, Inc.
 340 Quinnipiac St., Bldg. 40, Wallingford CT 06492
  
  
 ---------------------------------------------------------------
 Warning -- This program may not be used in any manner that
 competes with the business of Gaussian, Inc. or will provide
 assistance to any competitor of Gaussian, Inc.  The licensee
 of this program is prohibited from giving any competitor of
 Gaussian, Inc. access to this program.  By using this program,
 the user acknowledges that Gaussian, Inc. is engaged in the
 business of creating and licensing software in the field of
 computational chemistry and represents and warrants to the
 licensee that it is not a competitor of Gaussian, Inc. and that
 it will not use this program in any manner prohibited above.
 ---------------------------------------------------------------
  

 Cite this work as:
 Gaussian 16, Revision C.01,
 M. J. Frisch, G. W. Trucks, H. B. Schlegel, G. E. Scuseria, 
 M. A. Robb, J. R. Cheeseman, G. Scalmani, V. Barone, 
 G. A. Petersson, H. Nakatsuji, X. Li, M. Caricato, A. V. Marenich, 
 J. Bloino, B. G. Janesko, R. Gomperts, B. Mennucci, H. P. Hratchian, 
 J. V. Ortiz, A. F. Izmaylov, J. L. Sonnenberg, D. Williams-Young, 
 F. Ding, F. Lipparini, F. Egidi, J. Goings, B. Peng, A. Petrone, 
 T. Henderson, D. Ranasinghe, V. G. Zakrzewski, J. Gao, N. Rega, 
 G. Zheng, W. Liang, M. Hada, M. Ehara, K. Toyota, R. Fukuda, 
 J. Hasegawa, M. Ishida, T. Nakajima, Y. Honda, O. Kitao, H. Nakai, 
 T. Vreven, K. Throssell, J. A. Montgomery, Jr., J. E. Peralta, 
 F. Ogliaro, M. J. Bearpark, J. J. Heyd, E. N. Brothers, K. N. Kudin, 
 V. N. Staroverov, T. A. Keith, R. Kobayashi, J. Normand, 
 K. Raghavachari, A. P. Rendell, J. C. Burant, S. S. Iyengar, 
 J. Tomasi, M. Cossi, J. M. Millam, M. Klene, C. Adamo, R. Cammi, 
 J. W. Ochterski, R. L. Martin, K. Morokuma, O. Farkas, 
 J. B. Foresman, and D. J. Fox, Gaussian, Inc., Wallingford CT, 2019.
 
 ******************************************
 Gaussian 16:  ES64L-G16RevC.01  3-Jul-2019
                 6-Jun-2024 
 ******************************************
 %nprocshared=48
 Will use up to   48 processors via shared memory.
 %chk=trans-pyridonate_Ir_PH3_2_NH3.chk
 %mem=16GB
 --------------------
 # PBEPBE GenECP POpt
 --------------------
 1/10=7,26=3,38=1/1,3;
 2/12=2,17=6,18=5,29=3,40=1/2;
 3/5=7,11=2,16=1,17=8,25=1,30=1,71=1,74=1009/1,2,3;
 4//1;
 5/5=2,38=5/2;
 6/7=2,8=2,9=2,10=2,28=1/1;
 7/29=1/1,2,3,16;
 1/10=7,26=3/3(2);
 2/29=3/2;
 99//99;
 2/29=3/2;
 3/5=7,6=1,11=2,16=1,17=8,25=1,30=1,71=1,74=1009,82=7/1,2,3;
 4/5=5,16=3,69=1/1;
 5/5=2,38=5/2;
 7//1,2,3,16;
 1/26=3/3(-5);
 2/29=3/2;
 6/7=2,8=2,9=2,10=2,19=2,28=1/1;
 99/9=1/99;
 ----------------------
 trans-(H)Ir(PH3)2(NH3)
 ----------------------
 Symbolic Z-matrix:
 Charge =  1 Multiplicity = 1
 Ir                   1
 N                    1    B1
 P                    1    B2       2    A1
 N                    1    B3       3    A2       2    D1       0
 P                    1    B4       2    A3       3    D2       0
 H                    3    B5       1    A4       2    D3       0
 H                    3    B6       1    A5       2    D4       0
 H                    3    B7       1    A6       2    D5       0
 H                    5    B8       1    A7       2    D6       0
 H                    5    B9       1    A8       2    D7       0
 H                    5    B10      1    A9       2    D8       0
 H                    4    B11      1    A10      5    D9       0
 H                    4    B12      1    A11      5    D10      0
 H                    4    B13      1    A12      5    D11      0
 C                    3    B14      1    A13      2    D12      0
 C                    15   B15      2    A14      1    D13      0
 C                    16   B16      15   A15      2    D14      0
 C                    17   B17      16   A16      15   D15      0
 C                    2    B18      1    A17      3    D16      0
 H                    15   B19      2    A18      1    D17      0
 H                    16   B20      15   A19      2    D18      0
 H                    17   B21      16   A20      15   D19      0
 H                    18   B22      17   A21      16   D20      0
 H                    19   B23      2    A22      1    D21      0
       Variables:
  B1                    2.104                    
  B2                    2.264                    
  B3                    2.227                    
  B4                    2.27                     
  B5                    1.431                    
  B6                    1.437                    
  B7                    1.431                    
  B8                    1.431                    
  B9                    1.435                    
  B10                   1.431                    
  B11                   1.027                    
  B12                   1.027                    
  B13                   1.027                    
  B14                   2.994                    
  B15                   1.395                    
  B16                   1.395                    
  B17                   1.395                    
  B18                   1.395                    
  B19                   1.087                    
  B20                   1.087                    
  B21                   1.087                    
  B22                   1.087                    
  B23                   1.087                    
  A4                  120.705                    
  A5                  118.798                    
  A6                  120.72                     
  A7                  120.114                    
  A8                  120.136                    
  A9                  120.119                    
  A10                 111.517                    
  A11                 111.521                    
  A12                 113.183                    
  A13                  69.4                      
  A14                 119.984                    
  A15                 120.                       
  A16                 120.                       
  A17                 119.99                     
  A18                 120.009                    
  A19                 120.                       
  A20                 120.                       
  A21                 120.                       
  A22                 119.984                    
  D3                   60.7                      
  D4                  180.                       
  D5                  299.2                      
  D6                   60.                       
  D7                  179.9                      
  D8                  299.9                      
  D9                  299.8                      
  D10                  60.3                      
  D11                 180.                       
  D14                 359.                       
  D16                 179.5                      
  D17                 359.1                      
  D18                 179.                       
  D19                 180.                       
  D20                 180.                       
  D21                   0.9                      
       Constants:
  A1                   90.                       
  A2                   90.                       
  A3                   90.                       
  D1                  180.                       
  D2                 -180.                       
  D13                 180.                       
  D15                 360.                       
  D12                   0.                       
 

 GradGradGradGradGradGradGradGradGradGradGradGradGradGradGradGradGradGrad
 Berny optimization.
 Initialization pass.
                       ----------------------------
                       !    Initial Parameters    !
                       ! (Angstroms and Degrees)  !
 ----------------------                            ----------------------
 !      Name          Value   Derivative information (Atomic Units)     !
 ------------------------------------------------------------------------
 !       B1          2.104    estimate D2E/DX2                          !
 !       B2          2.264    estimate D2E/DX2                          !
 !       B3          2.227    estimate D2E/DX2                          !
 !       B4          2.27     estimate D2E/DX2                          !
 !       B5          1.431    estimate D2E/DX2                          !
 !       B6          1.437    estimate D2E/DX2                          !
 !       B7          1.431    estimate D2E/DX2                          !
 !       B8          1.431    estimate D2E/DX2                          !
 !       B9          1.435    estimate D2E/DX2                          !
 !       B10         1.431    estimate D2E/DX2                          !
 !       B11         1.027    estimate D2E/DX2                          !
 !       B12         1.027    estimate D2E/DX2                          !
 !       B13         1.027    estimate D2E/DX2                          !
 !       B14         2.994    estimate D2E/DX2                          !
 !       B15         1.395    estimate D2E/DX2                          !
 !       B16         1.395    estimate D2E/DX2                          !
 !       B17         1.395    estimate D2E/DX2                          !
 !       B18         1.395    estimate D2E/DX2                          !
 !       B19         1.087    estimate D2E/DX2                          !
 !       B20         1.087    estimate D2E/DX2                          !
 !       B21         1.087    estimate D2E/DX2                          !
 !       B22         1.087    estimate D2E/DX2                          !
 !       B23         1.087    estimate D2E/DX2                          !
 !       A4        120.705    estimate D2E/DX2                          !
 !       A5        118.798    estimate D2E/DX2                          !
 !       A6        120.72     estimate D2E/DX2                          !
 !       A7        120.114    estimate D2E/DX2                          !
 !       A8        120.136    estimate D2E/DX2                          !
 !       A9        120.119    estimate D2E/DX2                          !
 !       A10       111.517    estimate D2E/DX2                          !
 !       A11       111.521    estimate D2E/DX2                          !
 !       A12       113.183    estimate D2E/DX2                          !
 !       A13        69.4      estimate D2E/DX2                          !
 !       A14       119.984    estimate D2E/DX2                          !
 !       A15       120.0      estimate D2E/DX2                          !
 !       A16       120.0      estimate D2E/DX2                          !
 !       A17       119.99     estimate D2E/DX2                          !
 !       A18       120.009    estimate D2E/DX2                          !
 !       A19       120.0      estimate D2E/DX2                          !
 !       A20       120.0      estimate D2E/DX2                          !
 !       A21       120.0      estimate D2E/DX2                          !
 !       A22       119.984    estimate D2E/DX2                          !
 !       D3         60.7      estimate D2E/DX2                          !
 !       D4        180.0      estimate D2E/DX2                          !
 !       D5        299.2      estimate D2E/DX2                          !
 !       D6         60.0      estimate D2E/DX2                          !
 !       D7        179.9      estimate D2E/DX2                          !
 !       D8        299.9      estimate D2E/DX2                          !
 !       D9        299.8      estimate D2E/DX2                          !
 !       D10        60.3      estimate D2E/DX2                          !
 !       D11       180.0      estimate D2E/DX2                          !
 !       D14       359.0      estimate D2E/DX2                          !
 !       D16       179.5      estimate D2E/DX2                          !
 !       D17       359.1      estimate D2E/DX2                          !
 !       D18       179.0      estimate D2E/DX2                          !
 !       D19       180.0      estimate D2E/DX2                          !
 !       D20       180.0      estimate D2E/DX2                          !
 !       D21         0.9      estimate D2E/DX2                          !
 !       A1         90.0      Frozen                                    !
 !       A2         90.0      Frozen                                    !
 !       A3         90.0      Frozen                                    !
 !       D1        180.0      Frozen                                    !
 !       D2       -180.0      Frozen                                    !
 !       D13       180.0      Frozen                                    !
 !       D15       360.0      Frozen                                    !
 !       D12         0.0      Frozen                                    !
 ------------------------------------------------------------------------
 Trust Radius=3.00D-01 FncErr=1.00D-07 GrdErr=1.00D-06 EigMax=2.50D+02 EigMin=1.00D-04
 Number of steps in this run=     76 maximum allowed number of steps=    132.
 GradGradGradGradGradGradGradGradGradGradGradGradGradGradGradGradGradGrad

 ---------------------------------------------------------------------------------------------------
                            Z-MATRIX (ANGSTROMS AND DEGREES)
   CD    Cent   Atom    N1       Length/X        N2       Alpha/Y        N3        Beta/Z          J
 ---------------------------------------------------------------------------------------------------
      1      1  Ir
      2      2  N        1   2.104000(     1)
      3      3  P        1   2.264000(     2)      2   90.000(    24)
      4      4  N        1   2.227000(     3)      3   90.000(    25)      2  180.000(    46)      0
      5      5  P        1   2.270000(     4)      2   90.000(    26)      3 -180.000(    47)      0
      6      6  H        3   1.431000(     5)      1  120.705(    27)      2   60.700(    48)      0
      7      7  H        3   1.437000(     6)      1  118.798(    28)      2  180.000(    49)      0
      8      8  H        3   1.431000(     7)      1  120.720(    29)      2  299.200(    50)      0
      9      9  H        5   1.431000(     8)      1  120.114(    30)      2   60.000(    51)      0
     10     10  H        5   1.435000(     9)      1  120.136(    31)      2  179.900(    52)      0
     11     11  H        5   1.431000(    10)      1  120.119(    32)      2  299.900(    53)      0
     12     12  H        4   1.027000(    11)      1  111.517(    33)      5  299.800(    54)      0
     13     13  H        4   1.027000(    12)      1  111.521(    34)      5   60.300(    55)      0
     14     14  H        4   1.027000(    13)      1  113.183(    35)      5  180.000(    56)      0
     15     15  C        3   2.994000(    14)      1   69.400(    36)      2    0.000(    57)      0
     16     16  C       15   1.395000(    15)      2  119.984(    37)      1  180.000(    58)      0
     17     17  C       16   1.395000(    16)     15  120.000(    38)      2  359.000(    59)      0
     18     18  C       17   1.395000(    17)     16  120.000(    39)     15  360.000(    60)      0
     19     19  C        2   1.395000(    18)      1  119.990(    40)      3  179.500(    61)      0
     20     20  H       15   1.087000(    19)      2  120.009(    41)      1  359.100(    62)      0
     21     21  H       16   1.087000(    20)     15  120.000(    42)      2  179.000(    63)      0
     22     22  H       17   1.087000(    21)     16  120.000(    43)     15  180.000(    64)      0
     23     23  H       18   1.087000(    22)     17  120.000(    44)     16  180.000(    65)      0
     24     24  H       19   1.087000(    23)      2  119.984(    45)      1    0.900(    66)      0
 ---------------------------------------------------------------------------------------------------
                         Z-Matrix orientation:                         
 ---------------------------------------------------------------------
 Center     Atomic      Atomic             Coordinates (Angstroms)
 Number     Number       Type             X           Y           Z
 ---------------------------------------------------------------------
      1         77           0        0.000000    0.000000    0.000000
      2          7           0        0.000000    0.000000    2.104000
      3         15           0        2.264000    0.000000    0.000000
      4          7           0        0.000000    0.000000   -2.227000
      5         15           0       -2.270000    0.000000    0.000000
      6          1           0        2.994694   -1.072981    0.602129
      7          1           0        2.956236   -0.000000   -1.259277
      8          1           0        2.995016    1.073863    0.600162
      9          1           0       -2.987964    1.072015    0.618928
     10          1           0       -2.990448    0.002166   -1.241038
     11          1           0       -2.988072   -1.073039    0.617025
     12          1           0       -0.474822   -0.829087   -2.603680
     13          1           0       -0.473362    0.829891   -2.603747
     14          1           0        0.944072    0.000000   -2.631298
     15          6           0        1.210586    0.000000    2.802562
     16          6           0        1.210516    0.000000    4.197562
     17          6           0        0.002560    0.021084    4.895002
     18          6           0       -1.205327    0.042169    4.197441
     19          6           0       -1.208181    0.010544    2.801289
     20          1           0        2.151858   -0.014785    2.259095
     21          1           0        2.151715   -0.016429    4.741109
     22          1           0        0.002506    0.021084    5.982002
     23          1           0       -2.146580    0.058598    4.740894
     24          1           0       -2.149339    0.003968    2.257463
 ---------------------------------------------------------------------
                    Distance matrix (angstroms):
                    1          2          3          4          5
     1  Ir   0.000000
     2  N    2.104000   0.000000
     3  P    2.264000   3.090714   0.000000
     4  N    2.227000   4.331000   3.175724   0.000000
     5  P    2.270000   3.095112   4.534000   3.180005   0.000000
     6  H    3.237598   3.517826   1.431000   4.257165   5.406556
     7  H    3.213271   4.477830   1.437000   3.110598   5.375809
     8  H    3.237823   3.519209   1.431000   4.256307   5.406827
     9  H    3.234226   3.504652   5.395870   4.263385   1.431000
    10  H    3.237740   4.486877   5.399019   3.148794   1.435000
    11  H    3.234302   3.505864   5.395961   4.262449   1.431000
    12  H    2.773444   4.803654   3.868809   1.027000   3.269434
    13  H    2.773498   4.803714   3.867993   1.027000   3.270493
    14  H    2.795533   4.828491   2.943797   1.027000   4.153792
    15  C    3.052847   1.397679   2.994000   5.173202   4.468650
    16  C    4.368624   2.418337   4.327743   6.537610   5.452845
    17  C    4.895048   2.791083   5.392179   7.122034   5.396852
    18  C    4.367277   2.416006   5.445780   6.536669   4.330568
    19  C    3.050743   1.395000   4.461320   5.171412   2.995796
    20  H    3.119972   2.157491   2.261925   4.975516   4.965537
    21  H    5.206560   3.403600   4.742467   7.292784   6.483051
    22  H    5.982040   3.878060   6.395244   8.209029   6.399146
    23  H    5.204548   3.400654   6.475549   7.291282   4.742863
    24  H    3.117020   2.154814   4.957188   4.972935   2.260688
                    6          7          8          9         10
     6  H    0.000000
     7  H    2.148860   0.000000
     8  H    2.146845   2.147603   0.000000
     9  H    6.355588   6.325377   5.983010   0.000000
    10  H    6.354143   5.946712   6.353293   2.145707   0.000000
    11  H    5.982785   6.325087   6.356636   2.145055   2.146735
    12  H    4.730142   3.777164   5.091719   4.507247   2.979286
    13  H    5.091755   3.776038   4.728023   4.094812   2.979568
    14  H    3.976354   2.435415   3.975159   5.212878   4.172922
    15  C    3.029231   4.421067   3.031162   4.852350   5.830900
    16  C    4.154723   5.729278   4.156791   5.619882   6.872152
    17  C    5.345896   6.826404   5.339362   5.322828   6.827111
    18  C    5.640036   6.862664   5.625628   4.128455   5.724100
    19  C    4.865644   5.816415   4.862353   3.009493   4.417800
    20  H    2.139086   3.609180   2.155952   5.503550   6.220493
    21  H    4.354087   6.054103   4.364326   6.677829   7.888490
    22  H    6.252456   7.820555   6.247213   6.229761   7.818595
    23  H    6.696458   7.876815   6.679255   4.327303   6.041425
    24  H    5.510084   6.199546   5.509602   2.128101   3.598190
                   11         12         13         14         15
    11  H    0.000000
    12  H    4.092540   0.000000
    13  H    4.507581   1.658979   0.000000
    14  H    5.211984   1.643596   1.642741   0.000000
    15  C    4.853527   5.723237   5.722987   5.440392   0.000000
    16  C    5.621371   7.055824   7.055634   6.834057   1.395000
    17  C    5.333111   7.561807   7.557242   7.584991   2.416211
    18  C    4.152259   6.895504   6.885669   7.159146   2.790000
    19  C    3.018804   5.518740   5.515950   5.843399   2.418791
    20  H    5.498653   5.586512   5.590393   5.037352   1.087000
    21  H    6.673973   7.842515   7.845649   7.470680   2.154985
    22  H    6.238881   8.640866   8.636880   8.664637   3.401285
    23  H    4.358327   7.584559   7.572206   7.994047   3.877000
    24  H    2.134116   5.208521   5.207918   5.785256   3.403858
                   16         17         18         19         20
    16  C    0.000000
    17  C    1.395000   0.000000
    18  C    2.416211   1.395000   0.000000
    19  C    2.792810   2.418603   1.396513   0.000000
    20  H    2.154994   3.401290   3.876999   3.403598   0.000000
    21  H    1.087000   2.154985   3.401285   3.879760   2.482015
    22  H    2.154985   1.087000   2.154985   3.403352   4.298958
    23  H    3.401285   2.154985   1.087000   2.155219   4.963999
    24  H    3.879772   3.404053   2.157808   1.087000   4.301239
                   21         22         23         24
    21  H    0.000000
    22  H    2.482000   0.000000
    23  H    4.298950   2.482000   0.000000
    24  H    4.966688   4.301502   2.484034   0.000000
 Stoichiometry    C5H14IrN2P2(1+)
 Framework group  C1[X(C5H14IrN2P2)]
 Deg. of freedom    66
 Full point group                 C1      NOp   1
 Largest Abelian subgroup         C1      NOp   1
 Largest concise Abelian subgroup C1      NOp   1
                         Standard orientation:                         
 ---------------------------------------------------------------------
 Center     Atomic      Atomic             Coordinates (Angstroms)
 Number     Number       Type             X           Y           Z
 ---------------------------------------------------------------------
      1         77           0       -0.755047   -0.000863    0.000488
      2          7           0        1.348940    0.000786    0.007538
      3         15           0       -0.753256   -2.264856   -0.004653
      4          7           0       -2.982034   -0.002608   -0.006974
      5         15           0       -0.756843    2.269131    0.005643
      6          1           0       -0.154146   -2.997516    1.068677
      7          1           0       -2.011978   -2.958077   -0.010444
      8          1           0       -0.148923   -2.992959   -1.078156
      9          1           0       -0.134897    2.990015   -1.062659
     10          1           0       -1.998437    2.988609    0.000954
     11          1           0       -0.143984    2.985245    1.082371
     12          1           0       -3.361864    0.470033    0.821922
     13          1           0       -3.356374    0.472344   -0.837046
     14          1           0       -3.385583   -0.946994   -0.010472
     15          6           0        2.048456   -1.209249    0.007129
     16          6           0        3.443448   -1.208086    0.011804
     17          6           0        4.139998    0.000461   -0.004201
     18          6           0        3.441557    1.207845   -0.024879
     19          6           0        2.045305    1.209534    0.002074
     20          1           0        1.505687   -2.150978    0.017956
     21          1           0        3.987681   -2.148894    0.027917
     22          1           0        5.226992    0.001367   -0.000558
     23          1           0        3.984317    2.149559   -0.037350
     24          1           0        1.500715    2.150248    0.008965
 ---------------------------------------------------------------------
 Rotational constants (GHZ):           1.0789188           0.5075707           0.3480557
 General basis read from cards:  (5D, 7F)
 ======================================================================================================
                                       Pseudopotential Parameters
 ======================================================================================================
  Center     Atomic      Valence      Angular      Power
  Number     Number     Electrons     Momentum     of R      Exponent        Coefficient   SO-Coeffient
 ======================================================================================================
    1         77           17
                                      H and up 
                                                     2        1.0000000        0.00000000    0.00000000
                                      S - H
                                                     2       13.6522030      732.26920000    0.00000000
                                                     2        6.8261010       26.48472100    0.00000000
                                      P - H
                                                     2       10.2798680      299.48947400    0.00000000
                                                     2        5.1399340       26.46623400    0.00000000
                                      D - H
                                                     2        7.3498590      124.45759500    0.00000000
                                                     2        3.6749290       14.03599500    0.00000000
                                      F - H
                                                     2        3.0340720       21.53103100    0.00000000
                                      G - H
                                                     2        4.8088570      -21.60759700    0.00000000
    2          7
                                   No pseudopotential on this center.
    3         15
                                   No pseudopotential on this center.
    4          7
                                   No pseudopotential on this center.
    5         15
                                   No pseudopotential on this center.
    6          1
                                   No pseudopotential on this center.
    7          1
                                   No pseudopotential on this center.
    8          1
                                   No pseudopotential on this center.
    9          1
                                   No pseudopotential on this center.
   10          1
                                   No pseudopotential on this center.
   11          1
                                   No pseudopotential on this center.
   12          1
                                   No pseudopotential on this center.
   13          1
                                   No pseudopotential on this center.
   14          1
                                   No pseudopotential on this center.
   15          6
                                   No pseudopotential on this center.
   16          6
                                   No pseudopotential on this center.
   17          6
                                   No pseudopotential on this center.
   18          6
                                   No pseudopotential on this center.
   19          6
                                   No pseudopotential on this center.
   20          1
                                   No pseudopotential on this center.
   21          1
                                   No pseudopotential on this center.
   22          1
                                   No pseudopotential on this center.
   23          1
                                   No pseudopotential on this center.
   24          1
                                   No pseudopotential on this center.
 ======================================================================================================
 There are   346 symmetry adapted cartesian basis functions of A   symmetry.
 There are   334 symmetry adapted basis functions of A   symmetry.
   334 basis functions,   529 primitive gaussians,   346 cartesian basis functions
    52 alpha electrons       52 beta electrons
       nuclear repulsion energy       860.1739092733 Hartrees.
 NAtoms=   24 NActive=   24 NUniq=   24 SFac= 1.00D+00 NAtFMM=   60 NAOKFM=F Big=F
 Integral buffers will be    131072 words long.
 Raffenetti 2 integral format.
 Two-electron integral symmetry is turned on.
 One-electron integrals computed using PRISM.
   1 Symmetry operations used in ECPInt.
 ECPInt:  NShTT=    9591 NPrTT=   30119 LenC2=    8919 LenP2D=   20663.
 LDataN:  DoStor=T MaxTD1= 7 Len=  274
 NBasis=   334 RedAO= T EigKep=  3.57D-06  NBF=   334
 NBsUse=   334 1.00D-06 EigRej= -1.00D+00 NBFU=   334
 Defaulting to unpruned grid for atomic number  77.
 ExpMin= 1.50D-02 ExpMax= 7.75D+04 ExpMxC= 2.65D+03 IAcc=3 IRadAn=         5 AccDes= 0.00D+00
 Harris functional with IExCor= 1009 and IRadAn=       5 diagonalized for initial guess.
 HarFok:  IExCor= 1009 AccDes= 0.00D+00 IRadAn=         5 IDoV= 1 UseB2=F ITyADJ=14
 ICtDFT=  3500011 ScaDFX=  1.000000  1.000000  1.000000  1.000000
 Defaulting to unpruned grid for atomic number  77.
 FoFCou: FMM=F IPFlag=           0 FMFlag=      100000 FMFlg1=           0
         NFxFlg=           0 DoJE=T BraDBF=F KetDBF=T FulRan=T
         wScrn=  0.000000 ICntrl=       500 IOpCl=  0 I1Cent=   200000004 NGrid=           0
         NMat0=    1 NMatS0=      1 NMatT0=    0 NMatD0=    1 NMtDS0=    0 NMtDT0=    0
 Petite list used in FoFCou.
 Requested convergence on RMS density matrix=1.00D-08 within 128 cycles.
 Requested convergence on MAX density matrix=1.00D-06.
 Requested convergence on             energy=1.00D-06.
 No special actions if energy rises.
 Defaulting to unpruned grid for atomic number  77.
 Defaulting to unpruned grid for atomic number  77.
 Defaulting to unpruned grid for atomic number  77.
 Defaulting to unpruned grid for atomic number  77.
 Defaulting to unpruned grid for atomic number  77.
 Defaulting to unpruned grid for atomic number  77.
 Defaulting to unpruned grid for atomic number  77.
 Defaulting to unpruned grid for atomic number  77.
 Defaulting to unpruned grid for atomic number  77.
 Defaulting to unpruned grid for atomic number  77.
 Defaulting to unpruned grid for atomic number  77.
 Defaulting to unpruned grid for atomic number  77.
 Defaulting to unpruned grid for atomic number  77.
 Defaulting to unpruned grid for atomic number  77.
 Defaulting to unpruned grid for atomic number  77.
 Defaulting to unpruned grid for atomic number  77.
 Defaulting to unpruned grid for atomic number  77.
 Defaulting to unpruned grid for atomic number  77.
 Defaulting to unpruned grid for atomic number  77.
 Defaulting to unpruned grid for atomic number  77.
 Defaulting to unpruned grid for atomic number  77.
 Defaulting to unpruned grid for atomic number  77.
 Defaulting to unpruned grid for atomic number  77.
 Defaulting to unpruned grid for atomic number  77.
 Defaulting to unpruned grid for atomic number  77.
 Defaulting to unpruned grid for atomic number  77.
 Defaulting to unpruned grid for atomic number  77.
 Defaulting to unpruned grid for atomic number  77.
 Defaulting to unpruned grid for atomic number  77.
 Defaulting to unpruned grid for atomic number  77.
 Defaulting to unpruned grid for atomic number  77.
 Defaulting to unpruned grid for atomic number  77.
 Defaulting to unpruned grid for atomic number  77.
 Defaulting to unpruned grid for atomic number  77.
 Defaulting to unpruned grid for atomic number  77.
 Defaulting to unpruned grid for atomic number  77.
 Defaulting to unpruned grid for atomic number  77.
 Defaulting to unpruned grid for atomic number  77.
 Defaulting to unpruned grid for atomic number  77.
 Defaulting to unpruned grid for atomic number  77.
 Defaulting to unpruned grid for atomic number  77.
 Defaulting to unpruned grid for atomic number  77.
 Defaulting to unpruned grid for atomic number  77.
 Defaulting to unpruned grid for atomic number  77.
 Defaulting to unpruned grid for atomic number  77.
 Defaulting to unpruned grid for atomic number  77.
 Defaulting to unpruned grid for atomic number  77.
 Defaulting to unpruned grid for atomic number  77.
 EnCoef did     5 forward-backward iterations
 SCF Done:  E(RPBE-PBE) =  -1094.80092197     A.U. after   16 cycles
            NFock= 16  Conv=0.73D-08     -V/T= 2.0695

 **********************************************************************

            Population analysis using the SCF Density.

 **********************************************************************

 Orbital symmetries:
       Occupied  (A) (A) (A) (A) (A) (A) (A) (A) (A) (A) (A) (A)
                 (A) (A) (A) (A) (A) (A) (A) (A) (A) (A) (A) (A)
                 (A) (A) (A) (A) (A) (A) (A) (A) (A) (A) (A) (A)
                 (A) (A) (A) (A) (A) (A) (A) (A) (A) (A) (A) (A)
                 (A) (A) (A) (A)
       Virtual   (A) (A) (A) (A) (A) (A) (A) (A) (A) (A) (A) (A)
                 (A) (A) (A) (A) (A) (A) (A) (A) (A) (A) (A) (A)
                 (A) (A) (A) (A) (A) (A) (A) (A) (A) (A) (A) (A)
                 (A) (A) (A) (A) (A) (A) (A) (A) (A) (A) (A) (A)
                 (A) (A) (A) (A) (A) (A) (A) (A) (A) (A) (A) (A)
                 (A) (A) (A) (A) (A) (A) (A) (A) (A) (A) (A) (A)
                 (A) (A) (A) (A) (A) (A) (A) (A) (A) (A) (A) (A)
                 (A) (A) (A) (A) (A) (A) (A) (A) (A) (A) (A) (A)
                 (A) (A) (A) (A) (A) (A) (A) (A) (A) (A) (A) (A)
                 (A) (A) (A) (A) (A) (A) (A) (A) (A) (A) (A) (A)
                 (A) (A) (A) (A) (A) (A) (A) (A) (A) (A) (A) (A)
                 (A) (A) (A) (A) (A) (A) (A) (A) (A) (A) (A) (A)
                 (A) (A) (A) (A) (A) (A) (A) (A) (A) (A) (A) (A)
                 (A) (A) (A) (A) (A) (A) (A) (A) (A) (A) (A) (A)
                 (A) (A) (A) (A) (A) (A) (A) (A) (A) (A) (A) (A)
                 (A) (A) (A) (A) (A) (A) (A) (A) (A) (A) (A) (A)
                 (A) (A) (A) (A) (A) (A) (A) (A) (A) (A) (A) (A)
                 (A) (A) (A) (A) (A) (A) (A) (A) (A) (A) (A) (A)
                 (A) (A) (A) (A) (A) (A) (A) (A) (A) (A) (A) (A)
                 (A) (A) (A) (A) (A) (A) (A) (A) (A) (A) (A) (A)
                 (A) (A) (A) (A) (A) (A) (A) (A) (A) (A) (A) (A)
                 (A) (A) (A) (A) (A) (A) (A) (A) (A) (A) (A) (A)
                 (A) (A) (A) (A) (A) (A) (A) (A) (A) (A) (A) (A)
                 (A) (A) (A) (A) (A) (A)
 The electronic state is 1-A.
 Alpha  occ. eigenvalues --  -76.45192 -76.45156 -14.18651 -14.17603 -10.07055
 Alpha  occ. eigenvalues --  -10.07042 -10.03256 -10.03232 -10.03206  -6.46592
 Alpha  occ. eigenvalues --   -6.46557  -4.68247  -4.68206  -4.68172  -4.68142
 Alpha  occ. eigenvalues --   -4.67878  -4.67843  -3.65025  -2.04319  -2.04150
 Alpha  occ. eigenvalues --   -1.99508  -1.00826  -0.97457  -0.86967  -0.84044
 Alpha  occ. eigenvalues --   -0.75332  -0.74509  -0.71384  -0.71110  -0.62600
 Alpha  occ. eigenvalues --   -0.60912  -0.60714  -0.58126  -0.56591  -0.54426
 Alpha  occ. eigenvalues --   -0.52962  -0.51016  -0.50880  -0.50087  -0.49996
 Alpha  occ. eigenvalues --   -0.49202  -0.49094  -0.47227  -0.46000  -0.42861
 Alpha  occ. eigenvalues --   -0.41218  -0.40908  -0.38253  -0.35290  -0.33016
 Alpha  occ. eigenvalues --   -0.30073  -0.29083
 Alpha virt. eigenvalues --   -0.21756  -0.19143  -0.18723  -0.17022  -0.16416
 Alpha virt. eigenvalues --   -0.14671  -0.13264  -0.11996  -0.11888  -0.11220
 Alpha virt. eigenvalues --   -0.09509  -0.09315  -0.09001  -0.08643  -0.07367
 Alpha virt. eigenvalues --   -0.07121  -0.06804  -0.06530  -0.06226  -0.05753
 Alpha virt. eigenvalues --   -0.05111  -0.04601  -0.04239  -0.03712  -0.03489
 Alpha virt. eigenvalues --   -0.02748  -0.02538  -0.01580  -0.01524  -0.00880
 Alpha virt. eigenvalues --   -0.00226   0.00723   0.00756   0.01442   0.01784
 Alpha virt. eigenvalues --    0.02099   0.02730   0.02858   0.03086   0.03365
 Alpha virt. eigenvalues --    0.03669   0.04465   0.05384   0.05508   0.05904
 Alpha virt. eigenvalues --    0.06259   0.06808   0.07138   0.08502   0.08761
 Alpha virt. eigenvalues --    0.08828   0.09101   0.09277   0.10134   0.10996
 Alpha virt. eigenvalues --    0.11376   0.11883   0.13176   0.13360   0.13493
 Alpha virt. eigenvalues --    0.13907   0.14773   0.14845   0.15901   0.16298
 Alpha virt. eigenvalues --    0.16494   0.16939   0.17065   0.17453   0.19557
 Alpha virt. eigenvalues --    0.20173   0.21001   0.22710   0.23374   0.25392
 Alpha virt. eigenvalues --    0.25565   0.25815   0.26089   0.27993   0.29513
 Alpha virt. eigenvalues --    0.30317   0.30890   0.31859   0.33408   0.34103
 Alpha virt. eigenvalues --    0.34282   0.36398   0.37257   0.38350   0.38807
 Alpha virt. eigenvalues --    0.38848   0.39075   0.40200   0.40745   0.42717
 Alpha virt. eigenvalues --    0.42775   0.43540   0.44380   0.46400   0.46553
 Alpha virt. eigenvalues --    0.48719   0.48976   0.49940   0.50585   0.50660
 Alpha virt. eigenvalues --    0.51998   0.53431   0.54447   0.55514   0.55976
 Alpha virt. eigenvalues --    0.58659   0.59908   0.60335   0.60594   0.61527
 Alpha virt. eigenvalues --    0.63146   0.64933   0.66940   0.67389   0.68600
 Alpha virt. eigenvalues --    0.69959   0.70263   0.70565   0.71438   0.73383
 Alpha virt. eigenvalues --    0.73642   0.75254   0.76631   0.78413   0.79033
 Alpha virt. eigenvalues --    0.80629   0.81015   0.81702   0.83571   0.87152
 Alpha virt. eigenvalues --    0.87387   0.91314   0.93977   0.96598   0.96870
 Alpha virt. eigenvalues --    0.97149   1.00182   1.07605   1.08820   1.09520
 Alpha virt. eigenvalues --    1.09828   1.12402   1.13053   1.15860   1.16910
 Alpha virt. eigenvalues --    1.16943   1.18996   1.20676   1.22219   1.23525
 Alpha virt. eigenvalues --    1.27010   1.27603   1.28442   1.30621   1.30994
 Alpha virt. eigenvalues --    1.33364   1.34579   1.34918   1.36957   1.38158
 Alpha virt. eigenvalues --    1.39859   1.41467   1.42505   1.44107   1.44661
 Alpha virt. eigenvalues --    1.46020   1.47165   1.50323   1.50980   1.52197
 Alpha virt. eigenvalues --    1.52958   1.53814   1.55895   1.57245   1.58530
 Alpha virt. eigenvalues --    1.58866   1.60023   1.66454   1.66879   1.67775
 Alpha virt. eigenvalues --    1.68245   1.70626   1.70818   1.71326   1.72478
 Alpha virt. eigenvalues --    1.73404   1.75493   1.75778   1.79243   1.82617
 Alpha virt. eigenvalues --    1.85913   1.88041   1.89121   1.94371   1.95852
 Alpha virt. eigenvalues --    1.96134   1.96482   1.96722   1.99177   2.03396
 Alpha virt. eigenvalues --    2.07974   2.11503   2.13602   2.17606   2.23864
 Alpha virt. eigenvalues --    2.26844   2.27162   2.27533   2.30911   2.33045
 Alpha virt. eigenvalues --    2.37635   2.39054   2.39346   2.40186   2.40450
 Alpha virt. eigenvalues --    2.42933   2.45234   2.46380   2.46875   2.49080
 Alpha virt. eigenvalues --    2.49684   2.52028   2.54595   2.55882   2.57334
 Alpha virt. eigenvalues --    2.58062   2.59068   2.60378   2.62581   2.66648
 Alpha virt. eigenvalues --    2.67495   2.67783   2.69370   2.73384   2.75288
 Alpha virt. eigenvalues --    2.76423   2.79026   2.79588   2.82053   2.99643
 Alpha virt. eigenvalues --    3.14866   3.21988   3.32407   3.33612   3.38596
 Alpha virt. eigenvalues --    3.56216   3.65392   3.77723   3.81718   3.84983
 Alpha virt. eigenvalues --    3.93562   4.17623   4.23982   4.38416   4.38815
 Alpha virt. eigenvalues --    4.92462   6.85076   6.87029  13.53050  13.56933
 Alpha virt. eigenvalues --   13.65368  13.66631  13.70037  13.75273  23.27963
 Alpha virt. eigenvalues --   23.50314  23.59611  23.67284  23.75119  35.07335
 Alpha virt. eigenvalues --   35.09842  47.07760  47.37034  47.45013 139.27623
 Alpha virt. eigenvalues --  162.42804 162.45335
          Condensed to atoms (all electrons):
               1          2          3          4          5          6
     1  Ir  17.625118  -0.683818  -0.009090  -0.235303   0.042511  -0.037207
     2  N   -0.683818   7.328713  -0.021587   0.168200  -0.139373   0.001475
     3  P   -0.009090  -0.021587  14.805928   0.042562  -0.200051   0.359617
     4  N   -0.235303   0.168200   0.042562   6.642969  -0.002776  -0.001620
     5  P    0.042511  -0.139373  -0.200051  -0.002776  14.786273   0.001984
     6  H   -0.037207   0.001475   0.359617  -0.001620   0.001984   0.649906
     7  H    0.006472   0.004639   0.252721  -0.004077   0.006886  -0.011163
     8  H   -0.037572   0.000031   0.361218  -0.001833   0.001819  -0.039546
     9  H   -0.035939  -0.000379   0.002677  -0.001605   0.353745   0.000002
    10  H   -0.010631   0.003200   0.003714   0.008190   0.280179  -0.000001
    11  H   -0.036212   0.000775   0.002801  -0.001346   0.352790  -0.000027
    12  H   -0.008999  -0.001347   0.001977   0.352149  -0.001842   0.000153
    13  H   -0.008663  -0.001389   0.001857   0.351542  -0.001581  -0.000057
    14  H    0.057029  -0.008802  -0.002525   0.280938   0.004200  -0.000189
    15  C   -0.709881   0.455755   0.498365   0.012916  -0.231775  -0.058392
    16  C    0.836892  -0.417944  -0.776802  -0.062892   0.248469   0.030188
    17  C   -0.195705  -0.121373   0.003556   0.006947  -0.034592   0.008887
    18  C    0.625598  -0.289932   0.180911  -0.043237  -0.570423  -0.005003
    19  C   -0.474797   0.365097  -0.175182   0.012091   0.362686  -0.001489
    20  H   -0.007070  -0.102007  -0.002627  -0.003209   0.006295   0.005937
    21  H    0.001601   0.020092  -0.001931   0.000012   0.000189  -0.000033
    22  H   -0.000484   0.002557   0.000152   0.000000  -0.000069   0.000000
    23  H    0.001477   0.020254   0.000127   0.000014  -0.001625   0.000000
    24  H   -0.004179  -0.113297   0.002144  -0.001795   0.010410  -0.000016
               7          8          9         10         11         12
     1  Ir   0.006472  -0.037572  -0.035939  -0.010631  -0.036212  -0.008999
     2  N    0.004639   0.000031  -0.000379   0.003200   0.000775  -0.001347
     3  P    0.252721   0.361218   0.002677   0.003714   0.002801   0.001977
     4  N   -0.004077  -0.001833  -0.001605   0.008190  -0.001346   0.352149
     5  P    0.006886   0.001819   0.353745   0.280179   0.352790  -0.001842
     6  H   -0.011163  -0.039546   0.000002  -0.000001  -0.000027   0.000153
     7  H    0.640760  -0.011060  -0.000001  -0.000010  -0.000001  -0.000431
     8  H   -0.011060   0.647960  -0.000028  -0.000001   0.000002  -0.000059
     9  H   -0.000001  -0.000028   0.654335  -0.012169  -0.038217   0.000122
    10  H   -0.000010  -0.000001  -0.012169   0.624986  -0.012360   0.001620
    11  H   -0.000001   0.000002  -0.038217  -0.012360   0.652996  -0.000312
    12  H   -0.000431  -0.000059   0.000122   0.001620  -0.000312   0.398239
    13  H   -0.000427   0.000154  -0.000311   0.001559   0.000117  -0.020594
    14  H    0.011810  -0.000189  -0.000004   0.000022  -0.000006  -0.020063
    15  C    0.016741  -0.056658  -0.001683   0.000912  -0.001177   0.000153
    16  C    0.009819   0.031684  -0.004852  -0.000692  -0.005586   0.000211
    17  C   -0.000149   0.008029   0.009196  -0.000064   0.008540   0.000016
    18  C   -0.001066  -0.004180   0.039474   0.007506   0.034463   0.000365
    19  C    0.000539  -0.002386  -0.064910   0.012806  -0.058299   0.000762
    20  H    0.001309   0.004278  -0.000014  -0.000004  -0.000014  -0.000002
    21  H   -0.000002  -0.000030   0.000000   0.000000   0.000000  -0.000000
    22  H   -0.000000   0.000000   0.000000  -0.000000   0.000000   0.000000
    23  H    0.000000   0.000000  -0.000054  -0.000003  -0.000030  -0.000000
    24  H   -0.000004  -0.000016   0.005689   0.001278   0.005605  -0.000040
              13         14         15         16         17         18
     1  Ir  -0.008663   0.057029  -0.709881   0.836892  -0.195705   0.625598
     2  N   -0.001389  -0.008802   0.455755  -0.417944  -0.121373  -0.289932
     3  P    0.001857  -0.002525   0.498365  -0.776802   0.003556   0.180911
     4  N    0.351542   0.280938   0.012916  -0.062892   0.006947  -0.043237
     5  P   -0.001581   0.004200  -0.231775   0.248469  -0.034592  -0.570423
     6  H   -0.000057  -0.000189  -0.058392   0.030188   0.008887  -0.005003
     7  H   -0.000427   0.011810   0.016741   0.009819  -0.000149  -0.001066
     8  H    0.000154  -0.000189  -0.056658   0.031684   0.008029  -0.004180
     9  H   -0.000311  -0.000004  -0.001683  -0.004852   0.009196   0.039474
    10  H    0.001559   0.000022   0.000912  -0.000692  -0.000064   0.007506
    11  H    0.000117  -0.000006  -0.001177  -0.005586   0.008540   0.034463
    12  H   -0.020594  -0.020063   0.000153   0.000211   0.000016   0.000365
    13  H    0.398615  -0.020237   0.000212   0.000250   0.000012   0.000361
    14  H   -0.020237   0.420670   0.001782   0.002071  -0.000245   0.001125
    15  C    0.000212   0.001782  15.619357  -7.601667   0.441462  -1.112985
    16  C    0.000250   0.002071  -7.601667  13.167258  -0.487936   0.975572
    17  C    0.000012  -0.000245   0.441462  -0.487936   6.618258  -0.205743
    18  C    0.000361   0.001125  -1.112985   0.975572  -0.205743  11.333687
    19  C    0.000737   0.001160  -0.947646  -0.827394   0.112443  -5.768638
    20  H   -0.000003   0.000100   0.264324   0.113715   0.019306  -0.001871
    21  H   -0.000000   0.000000   0.004775   0.372228  -0.030571  -0.027797
    22  H    0.000000  -0.000000   0.030859  -0.063020   0.419226  -0.054941
    23  H   -0.000000  -0.000000   0.014437  -0.027260  -0.028125   0.365022
    24  H   -0.000042   0.000029  -0.018639   0.017194   0.018642   0.092045
              19         20         21         22         23         24
     1  Ir  -0.474797  -0.007070   0.001601  -0.000484   0.001477  -0.004179
     2  N    0.365097  -0.102007   0.020092   0.002557   0.020254  -0.113297
     3  P   -0.175182  -0.002627  -0.001931   0.000152   0.000127   0.002144
     4  N    0.012091  -0.003209   0.000012   0.000000   0.000014  -0.001795
     5  P    0.362686   0.006295   0.000189  -0.000069  -0.001625   0.010410
     6  H   -0.001489   0.005937  -0.000033   0.000000   0.000000  -0.000016
     7  H    0.000539   0.001309  -0.000002  -0.000000   0.000000  -0.000004
     8  H   -0.002386   0.004278  -0.000030   0.000000   0.000000  -0.000016
     9  H   -0.064910  -0.000014   0.000000   0.000000  -0.000054   0.005689
    10  H    0.012806  -0.000004   0.000000  -0.000000  -0.000003   0.001278
    11  H   -0.058299  -0.000014   0.000000   0.000000  -0.000030   0.005605
    12  H    0.000762  -0.000002  -0.000000   0.000000  -0.000000  -0.000040
    13  H    0.000737  -0.000003  -0.000000   0.000000  -0.000000  -0.000042
    14  H    0.001160   0.000100   0.000000  -0.000000  -0.000000   0.000029
    15  C   -0.947646   0.264324   0.004775   0.030859   0.014437  -0.018639
    16  C   -0.827394   0.113715   0.372228  -0.063020  -0.027260   0.017194
    17  C    0.112443   0.019306  -0.030571   0.419226  -0.028125   0.018642
    18  C   -5.768638  -0.001871  -0.027797  -0.054941   0.365022   0.092045
    19  C   13.716727   0.000574   0.014392   0.020216   0.008767   0.281977
    20  H    0.000574   0.588333  -0.007581  -0.000470   0.000105   0.000043
    21  H    0.014392  -0.007581   0.491025  -0.007779  -0.000166   0.000109
    22  H    0.020216  -0.000470  -0.007779   0.485651  -0.007780  -0.000486
    23  H    0.008767   0.000105  -0.000166  -0.007780   0.490994  -0.007620
    24  H    0.281977   0.000043   0.000109  -0.000486  -0.007620   0.593987
 Mulliken charges:
               1
     1  Ir   0.298849
     2  N    0.530459
     3  P   -0.330533
     4  N   -0.518835
     5  P   -0.274331
     6  H    0.096592
     7  H    0.076694
     8  H    0.098383
     9  H    0.094923
    10  H    0.089963
    11  H    0.095498
    12  H    0.297920
    13  H    0.297888
    14  H    0.271323
    15  C   -0.621547
    16  C    0.470494
    17  C   -0.570018
    18  C    0.429687
    19  C   -0.590236
    20  H    0.120551
    21  H    0.171466
    22  H    0.176367
    23  H    0.171463
    24  H    0.116980
 Sum of Mulliken charges =   1.00000
 Mulliken charges with hydrogens summed into heavy atoms:
               1
     1  Ir   0.298849
     2  N    0.530459
     3  P   -0.058864
     4  N    0.348296
     5  P    0.006053
    15  C   -0.500996
    16  C    0.641960
    17  C   -0.393652
    18  C    0.601149
    19  C   -0.473255
 Electronic spatial extent (au):  <R**2>=           2904.5149
 Charge=              1.0000 electrons
 Dipole moment (field-independent basis, Debye):
    X=             -1.1547    Y=              0.0478    Z=             -0.0054  Tot=              1.1557
 Quadrupole moment (field-independent basis, Debye-Ang):
   XX=            -40.9017   YY=            -64.1706   ZZ=            -96.3406
   XY=             -0.1992   XZ=              0.0905   YZ=             -0.0518
 Traceless Quadrupole moment (field-independent basis, Debye-Ang):
   XX=             26.2359   YY=              2.9670   ZZ=            -29.2030
   XY=             -0.1992   XZ=              0.0905   YZ=             -0.0518
 Octapole moment (field-independent basis, Debye-Ang**2):
  XXX=            -72.8839  YYY=             -0.8195  ZZZ=              0.0337  XYY=            -29.0489
  XXY=              0.1700  XXZ=             -0.1658  XZZ=            -46.2525  YZZ=              1.0840
  YYZ=              0.0987  XYZ=             -0.4844
 Hexadecapole moment (field-independent basis, Debye-Ang**3):
 XXXX=          -1652.1310 YYYY=          -1190.4907 ZZZZ=           -151.7823 XXXY=             -0.6409
 XXXZ=              0.8209 YYYX=              1.8659 YYYZ=             -0.3415 ZZZX=              0.3350
 ZZZY=              0.1738 XXYY=           -526.6569 XXZZ=           -457.3749 YYZZ=           -242.3444
 XXYZ=             -1.6805 YYXZ=              0.1817 ZZXY=             -3.9992
 N-N= 8.601739092733D+02 E-N=-4.261391442020D+03  KE= 1.023622008608D+03
   1 Symmetry operations used in ECPInt.
 ECPInt:  NShTT=    9591 NPrTT=   30119 LenC2=    8919 LenP2D=   20663.
 LDataN:  DoStor=T MaxTD1= 8 Len=  415
 Calling FoFJK, ICntrl=      2527 FMM=F ISym2X=0 I1Cent= 0 IOpClX= 0 NMat=1 NMatS=1 NMatT=0.
 Defaulting to unpruned grid for atomic number  77.
 Defaulting to unpruned grid for atomic number  77.
 Defaulting to unpruned grid for atomic number  77.
 Defaulting to unpruned grid for atomic number  77.
 Defaulting to unpruned grid for atomic number  77.
 Defaulting to unpruned grid for atomic number  77.
 Defaulting to unpruned grid for atomic number  77.
 Defaulting to unpruned grid for atomic number  77.
 Defaulting to unpruned grid for atomic number  77.
 Defaulting to unpruned grid for atomic number  77.
 Defaulting to unpruned grid for atomic number  77.
 Defaulting to unpruned grid for atomic number  77.
 Defaulting to unpruned grid for atomic number  77.
 Defaulting to unpruned grid for atomic number  77.
 Defaulting to unpruned grid for atomic number  77.
 Defaulting to unpruned grid for atomic number  77.
 Defaulting to unpruned grid for atomic number  77.
 Defaulting to unpruned grid for atomic number  77.
 Defaulting to unpruned grid for atomic number  77.
 Defaulting to unpruned grid for atomic number  77.
 Defaulting to unpruned grid for atomic number  77.
 Defaulting to unpruned grid for atomic number  77.
 Defaulting to unpruned grid for atomic number  77.
 Defaulting to unpruned grid for atomic number  77.
 Defaulting to unpruned grid for atomic number  77.
 Defaulting to unpruned grid for atomic number  77.
 Defaulting to unpruned grid for atomic number  77.
 Defaulting to unpruned grid for atomic number  77.
 Defaulting to unpruned grid for atomic number  77.
 Defaulting to unpruned grid for atomic number  77.
 Defaulting to unpruned grid for atomic number  77.
 Defaulting to unpruned grid for atomic number  77.
 Defaulting to unpruned grid for atomic number  77.
 Defaulting to unpruned grid for atomic number  77.
 Defaulting to unpruned grid for atomic number  77.
 Defaulting to unpruned grid for atomic number  77.
 Defaulting to unpruned grid for atomic number  77.
 Defaulting to unpruned grid for atomic number  77.
 Defaulting to unpruned grid for atomic number  77.
 Defaulting to unpruned grid for atomic number  77.
 Defaulting to unpruned grid for atomic number  77.
 Defaulting to unpruned grid for atomic number  77.
 Defaulting to unpruned grid for atomic number  77.
 Defaulting to unpruned grid for atomic number  77.
 Defaulting to unpruned grid for atomic number  77.
 Defaulting to unpruned grid for atomic number  77.
 Defaulting to unpruned grid for atomic number  77.
 Defaulting to unpruned grid for atomic number  77.
 ***** Axes restored to original set *****
 -------------------------------------------------------------------
 Center     Atomic                   Forces (Hartrees/Bohr)
 Number     Number              X              Y              Z
 -------------------------------------------------------------------
      1       77          -0.000040566   -0.000414523    0.003507205
      2        7           0.000969689    0.000133803   -0.011837420
      3       15           0.014102829    0.000127180   -0.013144234
      4        7           0.001122184    0.000207413    0.012916414
      5       15          -0.013953901    0.000078587   -0.012632495
      6        1          -0.001116141   -0.000307443   -0.001386976
      7        1          -0.001258930   -0.000054357    0.001243081
      8        1          -0.001191670    0.000268867   -0.001273017
      9        1           0.001089936    0.000326242   -0.001508559
     10        1           0.001565645   -0.000066629    0.000846884
     11        1           0.001086610   -0.000331919   -0.001451560
     12        1          -0.000159269    0.000232944    0.001020227
     13        1          -0.000258357   -0.000236293    0.001009403
     14        1          -0.000946541   -0.000089953    0.001011973
     15        6          -0.039206269   -0.000881565    0.012243260
     16        6          -0.000188992    0.000089887   -0.005853957
     17        6          -0.000341019    0.000778034    0.001842371
     18        6          -0.000178868   -0.002507685   -0.006190233
     19        6           0.038882111    0.001833344    0.013688971
     20        1          -0.004211310    0.000211108    0.001236792
     21        1           0.003496490    0.000098715   -0.000040500
     22        1          -0.000025996    0.000306266    0.003051487
     23        1          -0.003456317    0.000117778    0.000068988
     24        1           0.004218654    0.000080201    0.001631894
 -------------------------------------------------------------------
 Cartesian Forces:  Max     0.039206269 RMS     0.008008965
 -----------------------------------------------------------------------------------------------
                       Internal Coordinate Forces (Hartree/Bohr or radian)
  Cent   Atom   N1       Length/X         N2         Alpha/Y        N3         Beta/Z          J
 -----------------------------------------------------------------------------------------------
      1  Ir
      2  N        1  -0.002019(     1)
      3  P        1  -0.036752(     2)      2  -0.210802(    24)
      4  N        1  -0.015958(     3)      3   0.002052(    25)      2  -0.000394(    46)     0
      5  P        1   0.010212(     4)      2   0.067248(    26)      3  -0.000058(    47)     0
      6  H        3  -0.000923(     5)      1  -0.002028(    27)      2   0.003162(    48)     0
      7  H        3  -0.001696(     6)      1  -0.001370(    28)      2  -0.000129(    49)     0
      8  H        3  -0.000941(     7)      1  -0.002237(    29)      2  -0.002888(    50)     0
      9  H        5  -0.000955(     8)      1  -0.001910(    30)      2   0.003438(    51)     0
     10  H        5  -0.001519(     9)      1  -0.002519(    31)      2   0.000153(    52)     0
     11  H        5  -0.000922(    10)      1  -0.001950(    32)      2  -0.003330(    53)     0
     12  H        4  -0.000489(    11)      1  -0.001754(    33)      5   0.000459(    54)     0
     13  H        4  -0.000442(    12)      1  -0.001767(    34)      5  -0.000617(    55)     0
     14  H        4  -0.001268(    13)      1  -0.001082(    35)      5   0.000160(    56)     0
     15  C        3   0.027740(    14)      1  -0.226828(    36)      2  -0.011785(    57)     0
     16  C       15  -0.007122(    15)      2  -0.018906(    37)      1   0.004783(    58)     0
     17  C       16   0.002832(    16)     15  -0.020777(    38)      2   0.008638(    59)     0
     18  C       17   0.006172(    17)     16  -0.012667(    39)     15   0.005600(    60)     0
     19  C        2  -0.029656(    18)      1   0.090317(    40)      3  -0.005318(    61)     0
     20  H       15  -0.004268(    19)      2  -0.002123(    41)      1   0.000287(    62)     0
     21  H       16   0.003006(    20)     15  -0.003661(    42)      2   0.000284(    63)     0
     22  H       17   0.003051(    21)     16   0.000064(    43)     15   0.000544(    64)     0
     23  H       18   0.003029(    22)     17   0.003428(    44)     16   0.000102(    65)     0
     24  H       19  -0.004470(    23)      2  -0.001432(    45)      1  -0.000110(    66)     0
 -----------------------------------------------------------------------------------------------
 Internal  Forces:  Max     0.226827668 RMS     0.041461914

 GradGradGradGradGradGradGradGradGradGradGradGradGradGradGradGradGradGrad
 Berny optimization.
 Search for a local minimum.
 Step number   1 out of a maximum of   76
 All quantities printed in internal units (Hartrees-Bohrs-Radians)
 Second derivative matrix not updated -- first step.
 ITU=  0
     Eigenvalues ---    0.00460   0.00460   0.06475   0.07274   0.08355
     Eigenvalues ---    0.09735   0.10827   0.10837   0.10872   0.11240
     Eigenvalues ---    0.12698   0.12930   0.15469   0.19060   0.19203
     Eigenvalues ---    0.19965   0.20076   0.20299   0.20299   0.20299
     Eigenvalues ---    0.20299   0.20849   0.21058   0.22640   0.24842
     Eigenvalues ---    0.27039   0.28112   0.30245   0.30897   0.31705
     Eigenvalues ---    0.33985   0.33992   0.35162   0.35162   0.35162
     Eigenvalues ---    0.35162   0.35162   0.35254   0.37721   0.37836
     Eigenvalues ---    0.39360   0.43240   0.43240   0.43240   0.43949
     Eigenvalues ---    0.45621   0.46459   0.46459   0.48072   0.49404
     Eigenvalues ---    0.55413   0.59405   0.63188   0.70558   1.28719
     Eigenvalues ---    2.57846  14.16062  39.052721000.000001000.00000
     Eigenvalues --- 1000.000001000.000001000.000001000.000001000.00000
     Eigenvalues --- 1000.00000
 RFO step:  Lambda=-1.44921281D-02 EMin= 4.60000002D-03
 Linear search not attempted -- first point.
 Variable       Old X    -DE/DX   Delta X   Delta X   Delta X     New X
                                 (Linear)    (Quad)   (Total)
    B1        3.97598  -0.00202   0.00000   0.03793   0.03793   4.01392
    B2        4.27834  -0.03675   0.00000   0.02661   0.02661   4.30495
    B3        4.20842  -0.01596   0.00000  -0.12576  -0.12576   4.08266
    B4        4.28968   0.01021   0.00000   0.04239   0.04239   4.33207
    B5        2.70420  -0.00092   0.00000  -0.00424  -0.00424   2.69995
    B6        2.71554  -0.00170   0.00000  -0.00792  -0.00792   2.70762
    B7        2.70420  -0.00094   0.00000  -0.00433  -0.00433   2.69987
    B8        2.70420  -0.00095   0.00000  -0.00439  -0.00439   2.69981
    B9        2.71176  -0.00152   0.00000  -0.00705  -0.00705   2.70470
   B10        2.70420  -0.00092   0.00000  -0.00424  -0.00424   2.69996
   B11        1.94075  -0.00049   0.00000  -0.00109  -0.00109   1.93966
   B12        1.94075  -0.00044   0.00000  -0.00099  -0.00099   1.93976
   B13        1.94075  -0.00127   0.00000  -0.00284  -0.00284   1.93791
   B14        5.65784   0.02774   0.00000   0.12197   0.12197   5.77981
   B15        2.63617  -0.00712   0.00000  -0.00427  -0.00427   2.63189
   B16        2.63617   0.00283   0.00000  -0.00766  -0.00766   2.62850
   B17        2.63617   0.00617   0.00000  -0.01128  -0.01128   2.62488
   B18        2.63617  -0.02966   0.00000  -0.04830  -0.04830   2.58787
   B19        2.05413  -0.00427   0.00000  -0.01166  -0.01166   2.04247
   B20        2.05413   0.00301   0.00000   0.00821   0.00821   2.06234
   B21        2.05413   0.00305   0.00000   0.00833   0.00833   2.06247
   B22        2.05413   0.00303   0.00000   0.00827   0.00827   2.06241
   B23        2.05413  -0.00447   0.00000  -0.01221  -0.01221   2.04192
    A4        2.10670  -0.00203   0.00000  -0.00566  -0.00566   2.10104
    A5        2.07342  -0.00137   0.00000   0.00383   0.00383   2.07724
    A6        2.10696  -0.00224   0.00000  -0.00591  -0.00591   2.10105
    A7        2.09638  -0.00191   0.00000   0.00182   0.00182   2.09821
    A8        2.09677  -0.00252   0.00000  -0.01718  -0.01718   2.07959
    A9        2.09647  -0.00195   0.00000   0.00130   0.00130   2.09777
   A10        1.94634  -0.00175   0.00000  -0.00632  -0.00632   1.94002
   A11        1.94641  -0.00177   0.00000  -0.00581  -0.00581   1.94060
   A12        1.97542  -0.00108   0.00000  -0.00040  -0.00040   1.97501
   A13        1.21126  -0.22683   0.00000  -0.01276  -0.01276   1.19850
   A14        2.09412  -0.01891   0.00000   0.05959   0.05959   2.15371
   A15        2.09440  -0.02078   0.00000   0.00799   0.00799   2.10238
   A16        2.09440  -0.01267   0.00000  -0.04666  -0.04666   2.04773
   A17        2.09422   0.09032   0.00000   0.05958   0.05958   2.15380
   A18        2.09455  -0.00212   0.00000  -0.02995  -0.02995   2.06460
   A19        2.09440  -0.00366   0.00000  -0.01477  -0.01477   2.07963
   A20        2.09440   0.00006   0.00000   0.02251   0.02251   2.11691
   A21        2.09440   0.00343   0.00000   0.01461   0.01461   2.10900
   A22        2.09412  -0.00143   0.00000  -0.04283  -0.04283   2.05128
    D3        1.05941   0.00316   0.00000   0.00543   0.00543   1.06484
    D4        3.14159  -0.00013   0.00000   0.00009   0.00009   3.14168
    D5        5.22203  -0.00289   0.00000  -0.00406  -0.00406   5.21796
    D6        1.04720   0.00344   0.00000   0.02424   0.02424   1.07143
    D7        3.13985   0.00015   0.00000   0.00498   0.00498   3.14483
    D8        5.23424  -0.00333   0.00000  -0.01560  -0.01560   5.21864
    D9        5.23250   0.00046   0.00000   0.00262   0.00262   5.23512
   D10        1.05243  -0.00062   0.00000  -0.00316  -0.00316   1.04927
   D11        3.14159   0.00016   0.00000   0.00067   0.00067   3.14226
   D14        6.26573   0.00864   0.00000   0.00859   0.00859   6.27432
   D16        3.13287  -0.00532   0.00000  -0.00002  -0.00002   3.13284
   D17        6.26748   0.00029   0.00000   0.00294   0.00294   6.27042
   D18        3.12414   0.00028   0.00000   0.00648   0.00648   3.13062
   D19        3.14159   0.00054   0.00000   0.00017   0.00017   3.14176
   D20        3.14159   0.00010   0.00000  -0.00373  -0.00373   3.13786
   D21        0.01571  -0.00011   0.00000  -0.00469  -0.00469   0.01102
    A1        1.57080  -0.21080   0.00000   0.00000   0.00000   1.57080
    A2        1.57080   0.00205   0.00000   0.00000   0.00000   1.57080
    A3        1.57080   0.06725   0.00000   0.00000   0.00000   1.57080
    D1        3.14159  -0.00039   0.00000   0.00000   0.00000   3.14159
    D2       -3.14159  -0.00006   0.00000   0.00000   0.00000  -3.14159
   D13        3.14159   0.00478   0.00000   0.00000   0.00000   3.14159
   D15        6.28319   0.00560   0.00000   0.00000   0.00000   6.28319
   D12        0.00000  -0.01178   0.00000   0.00000   0.00000   0.00000
         Item               Value     Threshold  Converged?
 Maximum Force            0.226828     0.000450     NO 
 RMS     Force            0.033297     0.000300     NO 
 Maximum Displacement     0.125764     0.001800     NO 
 RMS     Displacement     0.028223     0.001200     NO 
 Predicted change in Energy=-7.626992D-03
 GradGradGradGradGradGradGradGradGradGradGradGradGradGradGradGradGradGrad

 ---------------------------------------------------------------------------------------------------
                            Z-MATRIX (ANGSTROMS AND DEGREES)
   CD    Cent   Atom    N1       Length/X        N2       Alpha/Y        N3        Beta/Z          J
 ---------------------------------------------------------------------------------------------------
      1      1  Ir
      2      2  N        1   2.124073(     1)
      3      3  P        1   2.278083(     2)      2   90.000(    24)
      4      4  N        1   2.160449(     3)      3   90.000(    25)      2  180.000(    46)      0
      5      5  P        1   2.292433(     4)      2   90.000(    26)      3 -180.000(    47)      0
      6      6  H        3   1.428754(     5)      1  120.381(    27)      2   61.011(    48)      0
      7      7  H        3   1.432809(     6)      1  119.017(    28)      2  180.005(    49)      0
      8      8  H        3   1.428711(     7)      1  120.381(    29)      2  298.967(    50)      0
      9      9  H        5   1.428677(     8)      1  120.218(    30)      2   61.389(    51)      0
     10     10  H        5   1.431267(     9)      1  119.152(    31)      2  180.185(    52)      0
     11     11  H        5   1.428756(    10)      1  120.193(    32)      2  299.006(    53)      0
     12     12  H        4   1.026421(    11)      1  111.155(    33)      5  299.950(    54)      0
     13     13  H        4   1.026476(    12)      1  111.188(    34)      5   60.119(    55)      0
     14     14  H        4   1.025498(    13)      1  113.160(    35)      5  180.038(    56)      0
     15     15  C        3   3.058543(    14)      1   68.669(    36)      2    0.000(    57)      0
     16     16  C       15   1.392738(    15)      2  123.398(    37)      1  180.000(    58)      0
     17     17  C       16   1.390944(    16)     15  120.458(    38)      2  359.492(    59)      0
     18     18  C       17   1.389029(    17)     16  117.326(    39)     15  360.000(    60)      0
     19     19  C        2   1.369441(    18)      1  123.403(    40)      3  179.499(    61)      0
     20     20  H       15   1.080831(    19)      2  118.293(    41)      1  359.269(    62)      0
     21     21  H       16   1.091345(    20)     15  119.154(    42)      2  179.371(    63)      0
     22     22  H       17   1.091411(    21)     16  121.290(    43)     15  180.010(    64)      0
     23     23  H       18   1.091378(    22)     17  120.837(    44)     16  179.786(    65)      0
     24     24  H       19   1.080540(    23)      2  117.530(    45)      1    0.631(    66)      0
 ---------------------------------------------------------------------------------------------------
                         Z-Matrix orientation:                         
 ---------------------------------------------------------------------
 Center     Atomic      Atomic             Coordinates (Angstroms)
 Number     Number       Type             X           Y           Z
 ---------------------------------------------------------------------
      1         77           0        0.000000    0.000000    0.000000
      2          7           0        0.000000    0.000000    2.124073
      3         15           0        2.278083    0.000000    0.000000
      4          7           0        0.000000    0.000000   -2.160449
      5         15           0       -2.292433    0.000000    0.000000
      6          1           0        3.000669   -1.078137    0.597351
      7          1           0        2.973098    0.000115   -1.252955
      8          1           0        3.000658    1.078326    0.596920
      9          1           0       -3.011480    1.083787    0.591179
     10          1           0       -2.989636   -0.004046   -1.249966
     11          1           0       -3.010985   -1.080020    0.598817
     12          1           0       -0.477905   -0.829416   -2.530877
     13          1           0       -0.476822    0.829850   -2.531451
     14          1           0        0.942854   -0.000633   -2.563775
     15          6           0        1.165520    0.000000    2.849016
     16          6           0        1.202392    0.000000    4.241266
     17          6           0        0.022526    0.010627    4.977831
     18          6           0       -1.171800    0.021044    4.268693
     19          6           0       -1.143186    0.010001    2.877993
     20          1           0        2.103143   -0.012149    2.311512
     21          1           0        2.169162   -0.010456    4.747506
     22          1           0        0.035573    0.010926    6.069164
     23          1           0       -2.131238    0.026170    4.788846
     24          1           0       -2.087660    0.007708    2.353084
 ---------------------------------------------------------------------
                    Distance matrix (angstroms):
                    1          2          3          4          5
     1  Ir   0.000000
     2  N    2.124073   0.000000
     3  P    2.278083   3.114698   0.000000
     4  N    2.160449   4.284522   3.139618   0.000000
     5  P    2.292433   3.125209   4.570515   3.150046   0.000000
     6  H    3.243951   3.535148   1.428754   4.215667   5.434715
     7  H    3.226331   4.499292   1.432809   3.108514   5.412551
     8  H    3.243925   3.535383   1.428711   4.215426   5.434695
     9  H    3.254704   3.548714   5.431718   4.220790   1.428677
    10  H    3.240425   4.508002   5.413990   3.125207   1.431267
    11  H    3.254391   3.543851   5.431323   4.224456   1.428756
    12  H    2.705857   4.752355   3.832589   1.026421   3.222697
    13  H    2.706337   4.752885   3.832284   1.026476   3.223870
    14  H    2.731651   4.781725   2.890637   1.025498   4.127956
    15  C    3.078202   1.372581   3.058543   5.143265   4.480439
    16  C    4.408410   2.434800   4.375551   6.513655   5.495647
    17  C    4.977894   2.853867   5.465021   7.138324   5.489805
    18  C    4.426658   2.443963   5.488522   6.535092   4.413389
    19  C    3.096743   1.369441   4.470796   5.166514   3.098985
    20  H    3.125131   2.111514   2.318154   4.941841   4.966319
    21  H    5.219596   3.404082   4.748767   7.240526   6.514964
    22  H    6.069278   3.945267   6.470218   8.229697   6.500345
    23  H    5.241746   3.412312   6.509672   7.268807   4.791629
    24  H    3.145693   2.100198   4.959513   4.972963   2.361989
                    6          7          8          9         10
     6  H    0.000000
     7  H    2.141733   0.000000
     8  H    2.156463   2.141339   0.000000
     9  H    6.389044   6.355340   6.012143   0.000000
    10  H    6.360031   5.962736   6.361300   2.138615   0.000000
    11  H    6.011654   6.356493   6.387356   2.163821   2.139200
    12  H    4.684885   3.772351   5.052028   4.452705   2.937815
    13  H    5.052006   3.771600   4.684156   4.029863   2.941397
    14  H    3.922797   2.416639   3.922844   5.173631   4.146152
    15  C    3.098410   4.482578   3.098783   4.870293   5.836694
    16  C    4.204081   5.772509   4.204498   5.679299   6.908455
    17  C    5.407712   6.894105   5.403854   5.440550   6.918006
    18  C    5.665373   6.904289   5.657665   4.247111   5.810401
    19  C    4.853545   5.831691   4.849335   3.142142   4.522126
    20  H    2.209125   3.669114   2.221372   5.506359   6.214547
    21  H    4.365219   6.054086   4.370835   6.731380   7.910936
    22  H    6.318116   7.889398   6.314787   6.359550   7.919709
    23  H    6.717484   7.909379   6.709369   4.417441   6.099591
    24  H    5.491152   6.214084   5.488289   2.261790   3.714252
                   11         12         13         14         15
    11  H    0.000000
    12  H    4.034139   0.000000
    13  H    4.457372   1.659266   0.000000
    14  H    5.176863   1.645150   1.645062   0.000000
    15  C    4.865494   5.686125   5.686420   5.417369   0.000000
    16  C    5.673308   7.026610   7.026956   6.809989   1.392738
    17  C    5.437598   7.572107   7.570324   7.597563   2.416279
    18  C    4.250051   6.887592   6.883250   7.152262   2.734774
    19  C    3.141888   5.513899   5.511649   5.827908   2.308910
    20  H    5.497998   5.547834   5.551529   5.011470   1.080831
    21  H    6.722315   7.787973   7.790415   7.413418   2.147480
    22  H    6.355814   8.656243   8.654697   8.680492   3.412661
    23  H    4.421985   7.552739   7.547830   7.969429   3.825211
    24  H    2.261224   5.210101   5.208589   5.775776   3.290773
                   16         17         18         19         20
    16  C    0.000000
    17  C    1.390944   0.000000
    18  C    2.374443   1.389029   0.000000
    19  C    2.712997   2.401710   1.391039   0.000000
    20  H    2.129660   3.382122   3.815352   3.295458   0.000000
    21  H    1.091345   2.159060   3.375245   3.803571   2.436889
    22  H    2.168594   1.091411   2.167844   3.401918   4.288978
    23  H    3.378405   2.162096   1.091378   2.151248   4.905980
    24  H    3.793380   3.367818   2.123332   1.080540   4.191056
                   21         22         23         24
    21  H    0.000000
    22  H    2.509869   0.000000
    23  H    4.300755   2.516847   0.000000
    24  H    4.884068   4.279881   2.436222   0.000000
 Stoichiometry    C5H14IrN2P2(1+)
 Framework group  C1[X(C5H14IrN2P2)]
 Deg. of freedom    66
 Full point group                 C1      NOp   1
 Largest Abelian subgroup         C1      NOp   1
 Largest concise Abelian subgroup C1      NOp   1
                         Standard orientation:                         
 ---------------------------------------------------------------------
 Center     Atomic      Atomic             Coordinates (Angstroms)
 Number     Number       Type             X           Y           Z
 ---------------------------------------------------------------------
      1         77           0       -0.773088   -0.002389    0.000292
      2          7           0        1.350952    0.008779    0.004027
      3         15           0       -0.761106   -2.280438   -0.002695
      4          7           0       -2.933503   -0.013747   -0.003507
      5         15           0       -0.785145    2.290010    0.003297
      6          1           0       -0.161852   -3.001296    1.075543
      7          1           0       -2.010386   -2.982030   -0.005925
      8          1           0       -0.158506   -2.998441   -1.080915
      9          1           0       -0.195859    3.013586   -1.078505
     10          1           0       -2.038767    2.980626    0.006059
     11          1           0       -0.192009    3.010275    1.085310
     12          1           0       -3.307892    0.461109    0.825882
     13          1           0       -3.305555    0.462213   -0.833383
     14          1           0       -3.331866   -0.958708   -0.004819
     15          6           0        2.082015   -1.152913    0.003773
     16          6           0        3.474437   -1.182465    0.006173
     17          6           0        4.204804    0.001270   -0.001613
     18          6           0        3.489413    1.191864   -0.011710
     19          6           0        2.098865    1.155925   -0.003150
     20          1           0        1.549429   -2.093364    0.013747
     21          1           0        3.985736   -2.146573    0.016251
     22          1           0        5.296189   -0.006038   -0.000009
     23          1           0        4.004520    2.154030   -0.014664
     24          1           0        1.568992    2.097622   -0.000542
 ---------------------------------------------------------------------
 Rotational constants (GHZ):           1.0769178           0.4972321           0.3429836
 Basis read from rwf:  (5D, 7F)
 Pseudo-potential data read from rwf file.
 There are   346 symmetry adapted cartesian basis functions of A   symmetry.
 There are   334 symmetry adapted basis functions of A   symmetry.
   334 basis functions,   529 primitive gaussians,   346 cartesian basis functions
    52 alpha electrons       52 beta electrons
       nuclear repulsion energy       858.5254163563 Hartrees.
 NAtoms=   24 NActive=   24 NUniq=   24 SFac= 1.00D+00 NAtFMM=   60 NAOKFM=F Big=F
 Integral buffers will be    131072 words long.
 Raffenetti 2 integral format.
 Two-electron integral symmetry is turned on.
 One-electron integrals computed using PRISM.
   1 Symmetry operations used in ECPInt.
 ECPInt:  NShTT=    9591 NPrTT=   30119 LenC2=    8920 LenP2D=   20661.
 LDataN:  DoStor=T MaxTD1= 7 Len=  274
 NBasis=   334 RedAO= T EigKep=  3.64D-06  NBF=   334
 NBsUse=   334 1.00D-06 EigRej= -1.00D+00 NBFU=   334
 Defaulting to unpruned grid for atomic number  77.
 Initial guess from the checkpoint file:  "trans-pyridonate_Ir_PH3_2_NH3.chk"
 B after Tr=     0.000000   -0.000000    0.000000
         Rot=    1.000000    0.000052   -0.000018   -0.000918 Ang=   0.11 deg.
 ExpMin= 1.50D-02 ExpMax= 7.75D+04 ExpMxC= 2.65D+03 IAcc=3 IRadAn=         5 AccDes= 0.00D+00
[...]
 Rotational constants (GHZ):           1.0673354           0.4976937           0.3422409

 **********************************************************************

            Population analysis using the SCF Density.

 **********************************************************************

 Orbital symmetries:
       Occupied  (A) (A) (A) (A) (A) (A) (A) (A) (A) (A) (A) (A)
                 (A) (A) (A) (A) (A) (A) (A) (A) (A) (A) (A) (A)
                 (A) (A) (A) (A) (A) (A) (A) (A) (A) (A) (A) (A)
                 (A) (A) (A) (A) (A) (A) (A) (A) (A) (A) (A) (A)
                 (A) (A) (A) (A)
       Virtual   (A) (A) (A) (A) (A) (A) (A) (A) (A) (A) (A) (A)
                 (A) (A) (A) (A) (A) (A) (A) (A) (A) (A) (A) (A)
                 (A) (A) (A) (A) (A) (A) (A) (A) (A) (A) (A) (A)
                 (A) (A) (A) (A) (A) (A) (A) (A) (A) (A) (A) (A)
                 (A) (A) (A) (A) (A) (A) (A) (A) (A) (A) (A) (A)
                 (A) (A) (A) (A) (A) (A) (A) (A) (A) (A) (A) (A)
                 (A) (A) (A) (A) (A) (A) (A) (A) (A) (A) (A) (A)
                 (A) (A) (A) (A) (A) (A) (A) (A) (A) (A) (A) (A)
                 (A) (A) (A) (A) (A) (A) (A) (A) (A) (A) (A) (A)
                 (A) (A) (A) (A) (A) (A) (A) (A) (A) (A) (A) (A)
                 (A) (A) (A) (A) (A) (A) (A) (A) (A) (A) (A) (A)
                 (A) (A) (A) (A) (A) (A) (A) (A) (A) (A) (A) (A)
                 (A) (A) (A) (A) (A) (A) (A) (A) (A) (A) (A) (A)
                 (A) (A) (A) (A) (A) (A) (A) (A) (A) (A) (A) (A)
                 (A) (A) (A) (A) (A) (A) (A) (A) (A) (A) (A) (A)
                 (A) (A) (A) (A) (A) (A) (A) (A) (A) (A) (A) (A)
                 (A) (A) (A) (A) (A) (A) (A) (A) (A) (A) (A) (A)
                 (A) (A) (A) (A) (A) (A) (A) (A) (A) (A) (A) (A)
                 (A) (A) (A) (A) (A) (A) (A) (A) (A) (A) (A) (A)
                 (A) (A) (A) (A) (A) (A) (A) (A) (A) (A) (A) (A)
                 (A) (A) (A) (A) (A) (A) (A) (A) (A) (A) (A) (A)
                 (A) (A) (A) (A) (A) (A) (A) (A) (A) (A) (A) (A)
                 (A) (A) (A) (A) (A) (A) (A) (A) (A) (A) (A) (A)
                 (A) (A) (A) (A) (A) (A)
 The electronic state is 1-A.
 Alpha  occ. eigenvalues --  -76.45295 -76.45265 -14.18084 -14.17954 -10.06218
 Alpha  occ. eigenvalues --  -10.06208 -10.03230 -10.02927 -10.02924  -6.46686
 Alpha  occ. eigenvalues --   -6.46656  -4.68342  -4.68305  -4.68268  -4.68243
 Alpha  occ. eigenvalues --   -4.67971  -4.67941  -3.64776  -2.03981  -2.03957
 Alpha  occ. eigenvalues --   -1.99266  -1.01869  -0.98088  -0.87277  -0.83498
 Alpha  occ. eigenvalues --   -0.75155  -0.74413  -0.71269  -0.71072  -0.62502
 Alpha  occ. eigenvalues --   -0.61505  -0.61205  -0.57808  -0.55876  -0.53841
 Alpha  occ. eigenvalues --   -0.53122  -0.51141  -0.50858  -0.50237  -0.50169
 Alpha  occ. eigenvalues --   -0.49606  -0.49147  -0.48067  -0.45323  -0.43041
 Alpha  occ. eigenvalues --   -0.41084  -0.40947  -0.37791  -0.34932  -0.32644
 Alpha  occ. eigenvalues --   -0.29927  -0.28912
 Alpha virt. eigenvalues --   -0.21252  -0.18530  -0.18422  -0.16850  -0.16456
 Alpha virt. eigenvalues --   -0.14695  -0.13372  -0.12152  -0.11927  -0.11290
 Alpha virt. eigenvalues --   -0.09538  -0.09266  -0.09042  -0.08280  -0.07515
 Alpha virt. eigenvalues --   -0.07077  -0.06649  -0.06447  -0.06327  -0.05346
 Alpha virt. eigenvalues --   -0.05202  -0.04594  -0.04300  -0.03701  -0.03513
 Alpha virt. eigenvalues --   -0.02737  -0.02486  -0.01608  -0.01520  -0.00802
 Alpha virt. eigenvalues --    0.00303   0.00738   0.00994   0.01313   0.01812
 Alpha virt. eigenvalues --    0.02342   0.02659   0.02714   0.03038   0.03297
 Alpha virt. eigenvalues --    0.03868   0.04389   0.05345   0.06014   0.06077
 Alpha virt. eigenvalues --    0.06542   0.06944   0.07330   0.08222   0.08834
 Alpha virt. eigenvalues --    0.08989   0.09335   0.09652   0.09999   0.11304
 Alpha virt. eigenvalues --    0.11490   0.12042   0.13276   0.13528   0.13706
 Alpha virt. eigenvalues --    0.13965   0.14772   0.15198   0.15626   0.16388
 Alpha virt. eigenvalues --    0.16400   0.16819   0.17158   0.17761   0.19423
 Alpha virt. eigenvalues --    0.20034   0.20903   0.22542   0.23915   0.24811
 Alpha virt. eigenvalues --    0.25331   0.25522   0.27052   0.28388   0.29656
 Alpha virt. eigenvalues --    0.30346   0.30872   0.32734   0.33216   0.34182
 Alpha virt. eigenvalues --    0.35291   0.36044   0.37572   0.38449   0.38998
 Alpha virt. eigenvalues --    0.39081   0.39839   0.40492   0.40832   0.42204
 Alpha virt. eigenvalues --    0.42692   0.43978   0.44375   0.46489   0.46670
 Alpha virt. eigenvalues --    0.48935   0.49105   0.50639   0.50951   0.51419
 Alpha virt. eigenvalues --    0.52260   0.53209   0.54642   0.54976   0.56401
 Alpha virt. eigenvalues --    0.58777   0.59517   0.60139   0.60600   0.62373
 Alpha virt. eigenvalues --    0.63371   0.65093   0.66694   0.67659   0.68699
 Alpha virt. eigenvalues --    0.70040   0.70714   0.70952   0.71884   0.73567
 Alpha virt. eigenvalues --    0.73939   0.75323   0.76006   0.77720   0.78270
 Alpha virt. eigenvalues --    0.79481   0.80772   0.81496   0.83743   0.87445
 Alpha virt. eigenvalues --    0.88999   0.91347   0.94391   0.96173   0.97571
 Alpha virt. eigenvalues --    0.98776   0.99795   1.07706   1.08941   1.09054
 Alpha virt. eigenvalues --    1.09543   1.12853   1.14841   1.15369   1.16862
 Alpha virt. eigenvalues --    1.16918   1.17774   1.19701   1.21700   1.23352
 Alpha virt. eigenvalues --    1.26256   1.27541   1.29770   1.30996   1.32187
 Alpha virt. eigenvalues --    1.34624   1.35294   1.35686   1.37211   1.37797
 Alpha virt. eigenvalues --    1.40462   1.41936   1.43069   1.43333   1.44589
 Alpha virt. eigenvalues --    1.46463   1.48753   1.49928   1.50654   1.52069
 Alpha virt. eigenvalues --    1.53041   1.53652   1.54734   1.57840   1.58735
 Alpha virt. eigenvalues --    1.59012   1.62101   1.65020   1.66860   1.67395
 Alpha virt. eigenvalues --    1.67658   1.70574   1.71660   1.72044   1.72500
 Alpha virt. eigenvalues --    1.75664   1.76027   1.76450   1.79359   1.83693
 Alpha virt. eigenvalues --    1.84319   1.85710   1.87226   1.95065   1.96304
 Alpha virt. eigenvalues --    1.96714   1.97127   1.97660   1.98433   2.04274
 Alpha virt. eigenvalues --    2.09074   2.13159   2.16205   2.18601   2.23390
 Alpha virt. eigenvalues --    2.27223   2.27409   2.30208   2.30977   2.33271
 Alpha virt. eigenvalues --    2.38324   2.38715   2.39012   2.40224   2.42032
 Alpha virt. eigenvalues --    2.43605   2.45140   2.45812   2.46715   2.50432
 Alpha virt. eigenvalues --    2.50819   2.51495   2.55469   2.56533   2.57341
 Alpha virt. eigenvalues --    2.57762   2.59371   2.61217   2.63658   2.67061
 Alpha virt. eigenvalues --    2.67344   2.72192   2.73199   2.75666   2.76228
 Alpha virt. eigenvalues --    2.76737   2.78773   2.80527   2.82095   3.00198
 Alpha virt. eigenvalues --    3.15526   3.21879   3.31509   3.35391   3.42559
 Alpha virt. eigenvalues --    3.58986   3.66654   3.78028   3.82607   3.84225
 Alpha virt. eigenvalues --    3.93370   4.18885   4.31691   4.37930   4.38045
 Alpha virt. eigenvalues --    4.91722   6.84451   6.86900  13.53172  13.56782
 Alpha virt. eigenvalues --   13.63839  13.65428  13.67952  13.74047  23.29553
 Alpha virt. eigenvalues --   23.52291  23.61802  23.69291  23.75694  35.09009
 Alpha virt. eigenvalues --   35.12296  47.08321  47.35266  47.47046 139.29160
 Alpha virt. eigenvalues --  162.41992 162.45113
          Condensed to atoms (all electrons):
               1          2          3          4          5          6
     1  Ir  17.784073  -0.726837   0.044504  -0.302132   0.088498  -0.037623
     2  N   -0.726837   7.299745  -0.020871   0.171090  -0.129870   0.000942
     3  P    0.044504  -0.020871  14.648185   0.021063  -0.149621   0.359757
     4  N   -0.302132   0.171090   0.021063   6.774848  -0.010763  -0.000866
     5  P    0.088498  -0.129870  -0.149621  -0.010763  14.651153   0.000887
     6  H   -0.037623   0.000942   0.359757  -0.000866   0.000887   0.640723
     7  H    0.003334   0.004007   0.259344  -0.005295   0.006256  -0.011738
     8  H   -0.036862   0.001315   0.358021  -0.001471   0.001117  -0.036660
     9  H   -0.035093   0.001054   0.002037  -0.002045   0.351097   0.000002
    10  H   -0.016162   0.002233   0.003198   0.009917   0.286657  -0.000001
    11  H   -0.035690   0.000542   0.001831  -0.001394   0.352961  -0.000024
    12  H   -0.010743  -0.001505   0.002489   0.342185  -0.002981   0.000200
    13  H   -0.015491  -0.000863   0.002613   0.346480  -0.003389  -0.000079
    14  H    0.057278  -0.009128  -0.001714   0.273243   0.005108  -0.000381
    15  C   -0.730807   0.383260   0.437966   0.022371  -0.220502  -0.046187
    16  C    0.793244  -0.318717  -0.676491  -0.064753   0.242692   0.028595
    17  C   -0.180051  -0.130534   0.000812   0.006934  -0.030189   0.007064
    18  C    0.544589  -0.175389   0.188669  -0.043676  -0.515024  -0.005035
    19  C   -0.446439   0.259595  -0.166217   0.014138   0.323425  -0.002879
    20  H   -0.006672  -0.103310   0.002006  -0.002519   0.005080   0.001762
    21  H    0.002125   0.021925  -0.001721   0.000015   0.000149  -0.000026
    22  H   -0.000479   0.001459   0.000084   0.000000  -0.000088   0.000000
    23  H    0.001960   0.021853   0.000113   0.000018  -0.001505   0.000000
    24  H   -0.002149  -0.115105   0.001527  -0.001302   0.013726  -0.000013
               7          8          9         10         11         12
     1  Ir   0.003334  -0.036862  -0.035093  -0.016162  -0.035690  -0.010743
     2  N    0.004007   0.001315   0.001054   0.002233   0.000542  -0.001505
     3  P    0.259344   0.358021   0.002037   0.003198   0.001831   0.002489
     4  N   -0.005295  -0.001471  -0.002045   0.009917  -0.001394   0.342185
     5  P    0.006256   0.001117   0.351097   0.286657   0.352961  -0.002981
     6  H   -0.011738  -0.036660   0.000002  -0.000001  -0.000024   0.000200
     7  H    0.645666  -0.011723  -0.000001  -0.000012  -0.000001  -0.000576
     8  H   -0.011723   0.640796  -0.000024  -0.000001   0.000002  -0.000078
     9  H   -0.000001  -0.000024   0.644631  -0.012556  -0.035252   0.000197
    10  H   -0.000012  -0.000001  -0.012556   0.628811  -0.012810   0.002296
    11  H   -0.000001   0.000002  -0.035252  -0.012810   0.644865  -0.000447
    12  H   -0.000576  -0.000078   0.000197   0.002296  -0.000447   0.408552
    13  H   -0.000646   0.000216  -0.000335   0.001689   0.000158  -0.022033
    14  H    0.014449  -0.000266  -0.000016   0.000039  -0.000005  -0.022488
    15  C    0.012683  -0.046250  -0.002002   0.000960  -0.002345   0.000135
    16  C    0.008904   0.029450  -0.006055  -0.000567  -0.005745   0.000225
    17  C   -0.000166   0.007106   0.007236  -0.000111   0.007313   0.000012
    18  C   -0.001002  -0.005349   0.035285   0.006841   0.034751   0.000503
    19  C    0.000522  -0.002635  -0.049402   0.009274  -0.049803   0.001023
    20  H    0.001545   0.001741  -0.000011  -0.000005  -0.000012  -0.000008
    21  H   -0.000003  -0.000026   0.000000   0.000000   0.000000  -0.000000
    22  H   -0.000000   0.000000   0.000000  -0.000000   0.000000   0.000000
    23  H    0.000000   0.000000  -0.000032  -0.000004  -0.000033  -0.000000
    24  H   -0.000004  -0.000012   0.001581   0.001557   0.001702  -0.000040
              13         14         15         16         17         18
     1  Ir  -0.015491   0.057278  -0.730807   0.793244  -0.180051   0.544589
     2  N   -0.000863  -0.009128   0.383260  -0.318717  -0.130534  -0.175389
     3  P    0.002613  -0.001714   0.437966  -0.676491   0.000812   0.188669
     4  N    0.346480   0.273243   0.022371  -0.064753   0.006934  -0.043676
     5  P   -0.003389   0.005108  -0.220502   0.242692  -0.030189  -0.515024
     6  H   -0.000079  -0.000381  -0.046187   0.028595   0.007064  -0.005035
     7  H   -0.000646   0.014449   0.012683   0.008904  -0.000166  -0.001002
     8  H    0.000216  -0.000266  -0.046250   0.029450   0.007106  -0.005349
     9  H   -0.000335  -0.000016  -0.002002  -0.006055   0.007236   0.035285
    10  H    0.001689   0.000039   0.000960  -0.000567  -0.000111   0.006841
    11  H    0.000158  -0.000005  -0.002345  -0.005745   0.007313   0.034751
    12  H   -0.022033  -0.022488   0.000135   0.000225   0.000012   0.000503
    13  H    0.408188  -0.023132   0.000011   0.000120   0.000031   0.000444
    14  H   -0.023132   0.426965   0.001012   0.002000  -0.000243   0.001051
    15  C    0.000011   0.001012  15.493469  -7.591872   0.432134  -0.592768
    16  C    0.000120   0.002000  -7.591872  12.914903  -0.415252   0.530099
    17  C    0.000031  -0.000243   0.432134  -0.415252   6.467803  -0.112717
    18  C    0.000444   0.001051  -0.592768   0.530099  -0.112717  11.054502
    19  C    0.001143   0.001028  -1.209418  -0.359839   0.106058  -5.749077
    20  H   -0.000012   0.000098   0.300033   0.086946   0.022300  -0.009422
    21  H   -0.000000   0.000000  -0.007260   0.372076  -0.023285  -0.025674
    22  H    0.000000  -0.000000   0.024543  -0.052470   0.409100  -0.043605
    23  H   -0.000000  -0.000000   0.015658  -0.025069  -0.020126   0.367125
    24  H   -0.000047   0.000029  -0.022605   0.012110   0.020748   0.067982
              19         20         21         22         23         24
     1  Ir  -0.446439  -0.006672   0.002125  -0.000479   0.001960  -0.002149
     2  N    0.259595  -0.103310   0.021925   0.001459   0.021853  -0.115105
     3  P   -0.166217   0.002006  -0.001721   0.000084   0.000113   0.001527
     4  N    0.014138  -0.002519   0.000015   0.000000   0.000018  -0.001302
     5  P    0.323425   0.005080   0.000149  -0.000088  -0.001505   0.013726
     6  H   -0.002879   0.001762  -0.000026   0.000000   0.000000  -0.000013
     7  H    0.000522   0.001545  -0.000003  -0.000000   0.000000  -0.000004
     8  H   -0.002635   0.001741  -0.000026   0.000000   0.000000  -0.000012
     9  H   -0.049402  -0.000011   0.000000   0.000000  -0.000032   0.001581
    10  H    0.009274  -0.000005   0.000000  -0.000000  -0.000004   0.001557
    11  H   -0.049803  -0.000012   0.000000   0.000000  -0.000033   0.001702
    12  H    0.001023  -0.000008  -0.000000   0.000000  -0.000000  -0.000040
    13  H    0.001143  -0.000012  -0.000000   0.000000  -0.000000  -0.000047
    14  H    0.001028   0.000098   0.000000  -0.000000  -0.000000   0.000029
    15  C   -1.209418   0.300033  -0.007260   0.024543   0.015658  -0.022605
    16  C   -0.359839   0.086946   0.372076  -0.052470  -0.025069   0.012110
    17  C    0.106058   0.022300  -0.023285   0.409100  -0.020126   0.020748
    18  C   -5.749077  -0.009422  -0.025674  -0.043605   0.367125   0.067982
    19  C   13.583613   0.000499   0.015474   0.014672  -0.006139   0.318398
    20  H    0.000499   0.590429  -0.009260  -0.000471   0.000117  -0.000203
    21  H    0.015474  -0.009260   0.492977  -0.006916  -0.000191   0.000120
    22  H    0.014672  -0.000471  -0.006916   0.485323  -0.006901  -0.000492
    23  H   -0.006139   0.000117  -0.000191  -0.006901   0.492977  -0.009315
    24  H    0.318398  -0.000203   0.000120  -0.000492  -0.009315   0.594347
 Mulliken charges:
               1
     1  Ir   0.263628
     2  N    0.563110
     3  P   -0.317583
     4  N   -0.546087
     5  P   -0.264875
     6  H    0.101577
     7  H    0.074457
     8  H    0.101592
     9  H    0.099702
    10  H    0.088757
    11  H    0.099434
    12  H    0.303085
    13  H    0.304934
    14  H    0.275074
    15  C   -0.652218
    16  C    0.495466
    17  C   -0.581975
    18  C    0.446895
    19  C   -0.607014
    20  H    0.119347
    21  H    0.169500
    22  H    0.176240
    23  H    0.169494
    24  H    0.117459
 Sum of Mulliken charges =   1.00000
 Mulliken charges with hydrogens summed into heavy atoms:
               1
     1  Ir   0.263628
     2  N    0.563110
     3  P   -0.039956
     4  N    0.337006
     5  P    0.023018
    15  C   -0.532871
    16  C    0.664966
    17  C   -0.405735
    18  C    0.616390
    19  C   -0.489555
 Electronic spatial extent (au):  <R**2>=           2939.2074
 Charge=              1.0000 electrons
 Dipole moment (field-independent basis, Debye):
    X=             -1.2833    Y=              0.0578    Z=             -0.0058  Tot=              1.2846
 Quadrupole moment (field-independent basis, Debye-Ang):
   XX=            -41.2651   YY=            -63.6651   ZZ=            -96.1447
   XY=             -0.1891   XZ=              0.0073   YZ=              0.0032
 Traceless Quadrupole moment (field-independent basis, Debye-Ang):
   XX=             25.7599   YY=              3.3599   ZZ=            -29.1198
   XY=             -0.1891   XZ=              0.0073   YZ=              0.0032
 Octapole moment (field-independent basis, Debye-Ang**2):
  XXX=            -68.5286  YYY=             -0.8925  ZZZ=             -0.1253  XYY=            -32.0219
  XXY=              0.2423  XXZ=              0.0061  XZZ=            -46.8504  YZZ=              1.0847
  YYZ=              0.0926  XYZ=              0.0093
 Hexadecapole moment (field-independent basis, Debye-Ang**3):
 XXXX=          -1691.3358 YYYY=          -1191.4551 ZZZZ=           -151.9565 XXXY=              0.0054
 XXXZ=             -0.1637 YYYX=              2.1844 YYYZ=              0.0122 ZZZX=              0.4240
 ZZZY=             -0.0153 XXYY=           -537.7856 XXZZ=           -466.3790 YYZZ=           -241.8891
 XXYZ=              0.0650 YYXZ=             -0.3657 ZZXY=             -3.8786
 N-N= 8.579325050846D+02 E-N=-4.257090917933D+03  KE= 1.023761054424D+03
 Unable to Open any file for archive entry.
 1\1\GINC-NODE003\POpt\RPBEPBE\GenECP\C5H14Ir1N2P2(1+)\MVANVLEET\06-Jun
 -2024\1\\# PBEPBE GenECP POpt\\trans-(H)Ir(PH3)2(NH3)\\1,1\Ir\N,1,B1\P
 ,1,B2,2,A1\N,1,B3,3,A2,2,D1,0\P,1,B4,2,A3,3,D2,0\H,3,B5,1,A4,2,D3,0\H,
 3,B6,1,A5,2,D4,0\H,3,B7,1,A6,2,D5,0\H,5,B8,1,A7,2,D6,0\H,5,B9,1,A8,2,D
 7,0\H,5,B10,1,A9,2,D8,0\H,4,B11,1,A10,5,D9,0\H,4,B12,1,A11,5,D10,0\H,4
 ,B13,1,A12,5,D11,0\C,3,B14,1,A13,2,D12,0\C,15,B15,2,A14,1,D13,0\C,16,B
 16,15,A15,2,D14,0\C,17,B17,16,A16,15,D15,0\C,2,B18,1,A17,3,D16,0\H,15,
 B19,2,A18,1,D17,0\H,16,B20,15,A19,2,D18,0\H,17,B21,16,A20,15,D19,0\H,1
 8,B22,17,A21,16,D20,0\H,19,B23,2,A22,1,D21,0\\B1=2.1241516\B2=2.297487
 48\B3=2.12451844\B4=2.3033776\B5=1.4273091\B6=1.43232065\B7=1.42730909
 \B8=1.42727114\B9=1.43079507\B10=1.42727726\B11=1.02785128\B12=1.02805
 863\B13=1.02639702\B14=3.09091842\B15=1.39049083\B16=1.39519287\B17=1.
 39504613\B18=1.36733125\B19=1.08562665\B20=1.09110252\B21=1.09093934\B
 22=1.09110355\B23=1.08552198\A4=120.25276983\A5=117.63397037\A6=120.24
 207974\A7=119.86109784\A8=118.47901965\A9=119.85653112\A10=111.4756150
 3\A11=111.18438063\A12=114.16966356\A13=68.1463803\A14=124.7349858\A15
 =119.8445771\A16=116.85898794\A17=123.02417831\A18=117.58503257\A19=11
 8.5370398\A20=121.56712229\A21=121.62180369\A22=117.58139975\D3=61.655
 0486\D4=180.00383007\D5=298.33276743\D6=61.27198206\D7=180.05194402\D8
 =298.81918514\D9=302.0719335\D10=61.92741475\D11=181.9526539\D14=360.0
 2296649\D16=180.03601102\D17=360.07138046\D18=180.02701212\D19=180.001
 4764\D20=179.99678903\D21=-0.02437893\A1=90.\A2=90.\A3=90.\D1=180.\D2=
 -180.\D13=180.\D15=360.\D12=0.\\Version=ES64L-G16RevC.01\State=1-A\HF=
 -1094.8101506\RMSD=4.881e-09\RMSF=2.984e-03\Dipole=-0.0229187,0.002327
 3,-0.5048905\Quadrupole=2.4980936,-21.6498291,19.1517355,0.0043791,0.1
 462901,-0.0094383\PG=C01 [X(C5H14Ir1N2P2)]\\@
 The archive entry for this job was punched.


 GETTING A SIMPLE ANSWER FROM A PROFESSOR IS LIKE
 GETTING A THIMBLE OF WATER FROM A FIRE HYDRANT.
     -- PROF. LEN SHAPIRO, NDSU
 Job cpu time:       0 days  1 hours 48 minutes 26.1 seconds.
 Elapsed time:       0 days  0 hours  2 minutes 24.0 seconds.
 File lengths (MBytes):  RWF=     72 Int=      0 D2E=      0 Chk=      9 Scr=      1
 Normal termination of Gaussian 16 at Thu Jun  6 11:39:05 2024.
