 Entering Gaussian System, Link 0=/cm/shared/apps//g16/g16
 Input=trans-H_Ir_PH3_2_NH3.gjf
 Output=trans-H_Ir_PH3_2_NH3.log
 Initial command:
 /cm/shared/apps//g16/l1.exe "/local/mvanvleet/pbs.15306.josephine/Gau-197878.inp" -scrdir="/local/mvanvleet/pbs.15306.josephine/"
 Entering Link 1 = /cm/shared/apps//g16/l1.exe PID=    197879.
  
 Copyright (c) 1988-2019, Gaussian, Inc.  All Rights Reserved.
  
 This is part of the Gaussian(R) 16 program.  It is based on
 the Gaussian(R) 09 system (copyright 2009, Gaussian, Inc.),
 the Gaussian(R) 03 system (copyright 2003, Gaussian, Inc.),
 the Gaussian(R) 98 system (copyright 1998, Gaussian, Inc.),
 the Gaussian(R) 94 system (copyright 1995, Gaussian, Inc.),
 the Gaussian 92(TM) system (copyright 1992, Gaussian, Inc.),
 the Gaussian 90(TM) system (copyright 1990, Gaussian, Inc.),
 the Gaussian 88(TM) system (copyright 1988, Gaussian, Inc.),
 the Gaussian 86(TM) system (copyright 1986, Carnegie Mellon
 University), and the Gaussian 82(TM) system (copyright 1983,
 Carnegie Mellon University). Gaussian is a federally registered
 trademark of Gaussian, Inc.
  
 This software contains proprietary and confidential information,
 including trade secrets, belonging to Gaussian, Inc.
  
 This software is provided under written license and may be
 used, copied, transmitted, or stored only in accord with that
 written license.
  
 The following legend is applicable only to US Government
 contracts under FAR:
  
                    RESTRICTED RIGHTS LEGEND
  
 Use, reproduction and disclosure by the US Government is
 subject to restrictions as set forth in subparagraphs (a)
 and (c) of the Commercial Computer Software - Restricted
 Rights clause in FAR 52.227-19.
  
 Gaussian, Inc.
 340 Quinnipiac St., Bldg. 40, Wallingford CT 06492
  
  
 ---------------------------------------------------------------
 Warning -- This program may not be used in any manner that
 competes with the business of Gaussian, Inc. or will provide
 assistance to any competitor of Gaussian, Inc.  The licensee
 of this program is prohibited from giving any competitor of
 Gaussian, Inc. access to this program.  By using this program,
 the user acknowledges that Gaussian, Inc. is engaged in the
 business of creating and licensing software in the field of
 computational chemistry and represents and warrants to the
 licensee that it is not a competitor of Gaussian, Inc. and that
 it will not use this program in any manner prohibited above.
 ---------------------------------------------------------------
  

 Cite this work as:
 Gaussian 16, Revision C.01,
 M. J. Frisch, G. W. Trucks, H. B. Schlegel, G. E. Scuseria, 
 M. A. Robb, J. R. Cheeseman, G. Scalmani, V. Barone, 
 G. A. Petersson, H. Nakatsuji, X. Li, M. Caricato, A. V. Marenich, 
 J. Bloino, B. G. Janesko, R. Gomperts, B. Mennucci, H. P. Hratchian, 
 J. V. Ortiz, A. F. Izmaylov, J. L. Sonnenberg, D. Williams-Young, 
 F. Ding, F. Lipparini, F. Egidi, J. Goings, B. Peng, A. Petrone, 
 T. Henderson, D. Ranasinghe, V. G. Zakrzewski, J. Gao, N. Rega, 
 G. Zheng, W. Liang, M. Hada, M. Ehara, K. Toyota, R. Fukuda, 
 J. Hasegawa, M. Ishida, T. Nakajima, Y. Honda, O. Kitao, H. Nakai, 
 T. Vreven, K. Throssell, J. A. Montgomery, Jr., J. E. Peralta, 
 F. Ogliaro, M. J. Bearpark, J. J. Heyd, E. N. Brothers, K. N. Kudin, 
 V. N. Staroverov, T. A. Keith, R. Kobayashi, J. Normand, 
 K. Raghavachari, A. P. Rendell, J. C. Burant, S. S. Iyengar, 
 J. Tomasi, M. Cossi, J. M. Millam, M. Klene, C. Adamo, R. Cammi, 
 J. W. Ochterski, R. L. Martin, K. Morokuma, O. Farkas, 
 J. B. Foresman, and D. J. Fox, Gaussian, Inc., Wallingford CT, 2019.
 
 ******************************************
 Gaussian 16:  ES64L-G16RevC.01  3-Jul-2019
                30-May-2024 
 ******************************************
 %nprocshared=48
 Will use up to   48 processors via shared memory.
 %chk=trans-H_Ir_PH3_2_NH3.chk
 %mem=16GB
 ---------------------------------
 # PBEPBE GenECP Pop=NBO freq Popt
 ---------------------------------
 1/10=7,26=3,38=1/1,3;
 2/12=2,17=6,18=5,29=3,40=1/2;
 3/5=7,11=2,16=1,17=8,25=1,30=1,71=1,74=1009/1,2,3;
 4//1;
 5/5=2,38=5/2;
 6/7=2,8=2,9=2,10=2,28=1,40=1/1,7;
 7/29=1/1,2,3,16;
 1/10=7,26=3/3(2);
 2/29=3/2;
 99//99;
 2/29=3/2;
 3/5=7,6=1,11=2,16=1,17=8,25=1,30=1,71=1,74=1009,82=7/1,2,3;
 4/5=5,16=3,69=1/1;
 5/5=2,38=5/2;
 7//1,2,3,16;
 1/26=3/3(-5);
 2/29=3/2;
 6/7=2,8=2,9=2,10=2,19=2,28=1,40=1/1,7;
 99/9=1/99;
 ----------------------
 trans-(H)Ir(PH3)2(NH3)
 ----------------------
 Symbolic Z-matrix:
 Charge =  0 Multiplicity = 1
 Ir
 H                    1    B1
 P                    1    B2       2    A1
 N                    1    B3       3    A2       2    D1       0
 P                    1    B4       4    A3       3    D2       0
 H                    3    B5       1    A4       2    D3       0
 H                    3    B6       1    A5       6    D4       0
 H                    3    B7       1    A6       7    D5       0
 H                    5    B8       1    A7       7    D6       0
 H                    5    B9       1    A8       7    D7       0
 H                    5    B10      1    A9       7    D8       0
 H                    4    B11      1    A10      3    D9       0
 H                    4    B12      1    A11      3    D10      0
 H                    4    B13      1    A12      3    D11      0
       Variables:
  B1                    1.59755                  
  B2                    2.24699                  
  B3                    2.27918                  
  B4                    2.25085                  
  B5                    1.43291                  
  B6                    1.44065                  
  B7                    1.43293                  
  B8                    1.433                    
  B9                    1.4392                   
  B10                   1.43295                  
  B11                   1.02517                  
  B12                   1.02516                  
  B13                   1.02505                  
  A4                  121.52745                  
  A5                  119.32282                  
  A6                  121.52776                  
  A7                  121.15367                  
  A8                  120.15526                  
  A9                  121.17823                  
  A10                 110.69923                  
  A11                 110.65586                  
  A12                 113.35048                  
  D3                   60.93974                  
  D4                  119.00516                  
  D5                  119.01314                  
  D6                 -119.44033                  
  D7                   -0.02133                  
  D8                  119.42782                  
  D9                  119.98063                  
  D10                -120.29223                  
  D11                  -0.17116                  
       Constants:
  A1                   90.                       
  A2                   90.                       
  A3                   90.                       
  D1                  180.                       
  D2                 -180.                       
 

 GradGradGradGradGradGradGradGradGradGradGradGradGradGradGradGradGradGrad
 Berny optimization.
 Initialization pass.
                       ----------------------------
                       !    Initial Parameters    !
                       ! (Angstroms and Degrees)  !
 ----------------------                            ----------------------
 !      Name          Value   Derivative information (Atomic Units)     !
 ------------------------------------------------------------------------
 !       B1          1.5976   estimate D2E/DX2                          !
 !       B2          2.247    estimate D2E/DX2                          !
 !       B3          2.2792   estimate D2E/DX2                          !
 !       B4          2.2508   estimate D2E/DX2                          !
 !       B5          1.4329   estimate D2E/DX2                          !
 !       B6          1.4407   estimate D2E/DX2                          !
 !       B7          1.4329   estimate D2E/DX2                          !
 !       B8          1.433    estimate D2E/DX2                          !
 !       B9          1.4392   estimate D2E/DX2                          !
 !       B10         1.433    estimate D2E/DX2                          !
 !       B11         1.0252   estimate D2E/DX2                          !
 !       B12         1.0252   estimate D2E/DX2                          !
 !       B13         1.0251   estimate D2E/DX2                          !
 !       A4        121.5274   estimate D2E/DX2                          !
 !       A5        119.3228   estimate D2E/DX2                          !
 !       A6        121.5278   estimate D2E/DX2                          !
 !       A7        121.1537   estimate D2E/DX2                          !
 !       A8        120.1553   estimate D2E/DX2                          !
 !       A9        121.1782   estimate D2E/DX2                          !
 !       A10       110.6992   estimate D2E/DX2                          !
 !       A11       110.6559   estimate D2E/DX2                          !
 !       A12       113.3505   estimate D2E/DX2                          !
 !       D3         60.9397   estimate D2E/DX2                          !
 !       D4        119.0052   estimate D2E/DX2                          !
 !       D5        119.0131   estimate D2E/DX2                          !
 !       D6       -119.4403   estimate D2E/DX2                          !
 !       D7         -0.0213   estimate D2E/DX2                          !
 !       D8        119.4278   estimate D2E/DX2                          !
 !       D9        119.9806   estimate D2E/DX2                          !
 !       D10      -120.2922   estimate D2E/DX2                          !
 !       D11        -0.1712   estimate D2E/DX2                          !
 !       A1         90.0      Frozen                                    !
 !       A2         90.0      Frozen                                    !
 !       A3         90.0      Frozen                                    !
 !       D1        180.0      Frozen                                    !
 !       D2       -180.0      Frozen                                    !
 ------------------------------------------------------------------------
 Trust Radius=3.00D-01 FncErr=1.00D-07 GrdErr=1.00D-06 EigMax=2.50D+02 EigMin=1.00D-04
 Number of steps in this run=     46 maximum allowed number of steps=    100.
 GradGradGradGradGradGradGradGradGradGradGradGradGradGradGradGradGradGrad

 ---------------------------------------------------------------------------------------------------
                            Z-MATRIX (ANGSTROMS AND DEGREES)
   CD    Cent   Atom    N1       Length/X        N2       Alpha/Y        N3        Beta/Z          J
 ---------------------------------------------------------------------------------------------------
      1      1  Ir
      2      2  H        1   1.597554(     1)
      3      3  P        1   2.246990(     2)      2   90.000(    14)
      4      4  N        1   2.279177(     3)      3   90.000(    15)      2  180.000(    26)      0
      5      5  P        1   2.250850(     4)      4   90.000(    16)      3 -180.000(    27)      0
      6      6  H        3   1.432914(     5)      1  121.527(    17)      2   60.940(    28)      0
      7      7  H        3   1.440654(     6)      1  119.323(    18)      6  119.005(    29)      0
      8      8  H        3   1.432934(     7)      1  121.528(    19)      7  119.013(    30)      0
      9      9  H        5   1.432995(     8)      1  121.154(    20)      7 -119.440(    31)      0
     10     10  H        5   1.439201(     9)      1  120.155(    21)      7   -0.021(    32)      0
     11     11  H        5   1.432954(    10)      1  121.178(    22)      7  119.428(    33)      0
     12     12  H        4   1.025171(    11)      1  110.699(    23)      3  119.981(    34)      0
     13     13  H        4   1.025165(    12)      1  110.656(    24)      3 -120.292(    35)      0
     14     14  H        4   1.025052(    13)      1  113.350(    25)      3   -0.171(    36)      0
 ---------------------------------------------------------------------------------------------------
                         Z-Matrix orientation:                         
 ---------------------------------------------------------------------
 Center     Atomic      Atomic             Coordinates (Angstroms)
 Number     Number       Type             X           Y           Z
 ---------------------------------------------------------------------
      1         77           0        0.000000    0.000000    0.000000
      2          1           0        0.000000    0.000000    1.597554
      3         15           0        2.246990    0.000000    0.000000
      4          7           0        0.000000    0.000000   -2.279177
      5         15           0       -2.250850   -0.000000   -0.000000
      6          1           0        2.996270   -1.067638    0.593270
      7          1           0        2.952521   -0.001208   -1.256068
      8          1           0        2.996287    1.068706    0.591371
      9          1           0       -2.992189    1.068553    0.601736
     10          1           0       -2.973825   -0.000734   -1.244430
     11          1           0       -2.992693   -1.067218    0.603383
     12          1           0       -0.479217   -0.830676   -2.641537
     13          1           0       -0.483862    0.828289   -2.640809
     14          1           0        0.941094    0.002811   -2.685462
 ---------------------------------------------------------------------
                    Distance matrix (angstroms):
                    1          2          3          4          5
     1  Ir   0.000000
     2  H    1.597554   0.000000
     3  P    2.246990   2.757017   0.000000
     4  N    2.279177   3.876732   3.200564   0.000000
     5  P    2.250850   2.760164   4.497839   3.203276   0.000000
     6  H    3.235654   3.335577   1.432914   4.285842   5.387401
     7  H    3.208596   4.106159   1.440654   3.124761   5.352828
     8  H    3.235675   3.336506   1.432934   4.284847   5.387420
     9  H    3.233742   3.329663   5.380788   4.288900   1.432995
    10  H    3.223700   4.113455   5.367077   3.148704   1.439201
    11  H    3.234074   3.329195   5.381198   4.290026   1.432954
    12  H    2.810229   4.346213   3.885864   1.025171   3.287312
    13  H    2.809636   4.345562   3.888121   1.025165   3.283623
    14  H    2.845588   4.385190   2.986147   1.025052   4.171357
                    6          7          8          9         10
     6  H    0.000000
     7  H    2.135238   0.000000
     8  H    2.136345   2.135337   0.000000
     9  H    6.358068   6.319446   5.988485   0.000000
    10  H    6.336992   5.926357   6.336885   2.133551   0.000000
    11  H    5.988971   6.319770   6.358474   2.135772   2.133579
    12  H    4.753855   3.792672   5.112580   4.521163   2.977211
    13  H    5.115186   3.796617   4.755652   4.106522   2.972720
    14  H    4.014934   2.467594   4.012179   5.235665   4.171711
                   11         12         13         14
    11  H    0.000000
    12  H    4.111328   0.000000
    13  H    4.517959   1.658972   0.000000
    14  H    5.237952   1.647396   1.647394   0.000000
 Stoichiometry    H10IrNP2
 Framework group  C1[X(H10IrNP2)]
 Deg. of freedom    36
 Full point group                 C1      NOp   1
 Largest Abelian subgroup         C1      NOp   1
 Largest concise Abelian subgroup C1      NOp   1
                         Standard orientation:                         
 ---------------------------------------------------------------------
 Center     Atomic      Atomic             Coordinates (Angstroms)
 Number     Number       Type             X           Y           Z
 ---------------------------------------------------------------------
      1         77           0       -0.000673    0.180930   -0.000006
      2          1           0        0.000039    1.778484    0.000006
      3         15           0       -2.247663    0.181932    0.000013
      4          7           0       -0.001690   -2.098248   -0.000023
      5         15           0        2.250176    0.179925   -0.000025
      6          1           0       -2.996688    0.775545   -1.067615
      7          1           0       -2.953754   -1.073821   -0.001198
      8          1           0       -2.996687    0.773630    1.068730
      9          1           0        2.991792    0.781323    1.068527
     10          1           0        2.972596   -1.064827   -0.000773
     11          1           0        2.992279    0.782985   -1.067245
     12          1           0        0.477358   -2.460815   -0.830705
     13          1           0        0.482017   -2.460101    0.828260
     14          1           0       -0.942965   -2.504112    0.002794
 ---------------------------------------------------------------------
 Rotational constants (GHZ):           4.9586390           1.3494855           1.0881334
 General basis read from cards:  (5D, 7F)
 ======================================================================================================
                                       Pseudopotential Parameters
 ======================================================================================================
  Center     Atomic      Valence      Angular      Power
  Number     Number     Electrons     Momentum     of R      Exponent        Coefficient   SO-Coeffient
 ======================================================================================================
    1         77           17
                                      H and up 
                                                     2        1.0000000        0.00000000    0.00000000
                                      S - H
                                                     2       13.6522030      732.26920000    0.00000000
                                                     2        6.8261010       26.48472100    0.00000000
                                      P - H
                                                     2       10.2798680      299.48947400    0.00000000
                                                     2        5.1399340       26.46623400    0.00000000
                                      D - H
                                                     2        7.3498590      124.45759500    0.00000000
                                                     2        3.6749290       14.03599500    0.00000000
                                      F - H
                                                     2        3.0340720       21.53103100    0.00000000
                                      G - H
                                                     2        4.8088570      -21.60759700    0.00000000
    2          1
                                   No pseudopotential on this center.
    3         15
                                   No pseudopotential on this center.
    4          7
                                   No pseudopotential on this center.
    5         15
                                   No pseudopotential on this center.
    6          1
                                   No pseudopotential on this center.
    7          1
                                   No pseudopotential on this center.
    8          1
                                   No pseudopotential on this center.
    9          1
                                   No pseudopotential on this center.
   10          1
                                   No pseudopotential on this center.
   11          1
                                   No pseudopotential on this center.
   12          1
                                   No pseudopotential on this center.
   13          1
                                   No pseudopotential on this center.
   14          1
                                   No pseudopotential on this center.
 ======================================================================================================
 There are   184 symmetry adapted cartesian basis functions of A   symmetry.
 There are   178 symmetry adapted basis functions of A   symmetry.
   178 basis functions,   281 primitive gaussians,   184 cartesian basis functions
    32 alpha electrons       32 beta electrons
       nuclear repulsion energy       326.4484370725 Hartrees.
 NAtoms=   14 NActive=   14 NUniq=   14 SFac= 1.00D+00 NAtFMM=   60 NAOKFM=F Big=F
 Integral buffers will be    131072 words long.
 Raffenetti 2 integral format.
 Two-electron integral symmetry is turned on.
 One-electron integrals computed using PRISM.
   1 Symmetry operations used in ECPInt.
 ECPInt:  NShTT=    3741 NPrTT=   10262 LenC2=    3594 LenP2D=    8065.
 LDataN:  DoStor=T MaxTD1= 7 Len=  274
 NBasis=   178 RedAO= T EigKep=  4.13D-04  NBF=   178
 NBsUse=   178 1.00D-06 EigRej= -1.00D+00 NBFU=   178
 Defaulting to unpruned grid for atomic number  77.
 ExpMin= 1.50D-02 ExpMax= 7.75D+04 ExpMxC= 2.65D+03 IAcc=3 IRadAn=         5 AccDes= 0.00D+00
 Harris functional with IExCor= 1009 and IRadAn=       5 diagonalized for initial guess.
 HarFok:  IExCor= 1009 AccDes= 0.00D+00 IRadAn=         5 IDoV= 1 UseB2=F ITyADJ=14
 ICtDFT=  3500011 ScaDFX=  1.000000  1.000000  1.000000  1.000000
 Defaulting to unpruned grid for atomic number  77.
 FoFCou: FMM=F IPFlag=           0 FMFlag=      100000 FMFlg1=           0
         NFxFlg=           0 DoJE=T BraDBF=F KetDBF=T FulRan=T
         wScrn=  0.000000 ICntrl=       500 IOpCl=  0 I1Cent=   200000004 NGrid=           0
         NMat0=    1 NMatS0=      1 NMatT0=    0 NMatD0=    1 NMtDS0=    0 NMtDT0=    0
 Petite list used in FoFCou.
 Requested convergence on RMS density matrix=1.00D-08 within 128 cycles.
 Requested convergence on MAX density matrix=1.00D-06.
 Requested convergence on             energy=1.00D-06.
 No special actions if energy rises.
 Defaulting to unpruned grid for atomic number  77.
 Defaulting to unpruned grid for atomic number  77.
 Defaulting to unpruned grid for atomic number  77.
 Defaulting to unpruned grid for atomic number  77.
 Defaulting to unpruned grid for atomic number  77.
 Defaulting to unpruned grid for atomic number  77.
 Defaulting to unpruned grid for atomic number  77.
 Defaulting to unpruned grid for atomic number  77.
 Defaulting to unpruned grid for atomic number  77.
 Defaulting to unpruned grid for atomic number  77.
 Defaulting to unpruned grid for atomic number  77.
 Defaulting to unpruned grid for atomic number  77.
 Defaulting to unpruned grid for atomic number  77.
 Defaulting to unpruned grid for atomic number  77.
 Defaulting to unpruned grid for atomic number  77.
 Defaulting to unpruned grid for atomic number  77.
 Defaulting to unpruned grid for atomic number  77.
 Defaulting to unpruned grid for atomic number  77.
 Defaulting to unpruned grid for atomic number  77.
 Defaulting to unpruned grid for atomic number  77.
 Defaulting to unpruned grid for atomic number  77.
 Defaulting to unpruned grid for atomic number  77.
 Defaulting to unpruned grid for atomic number  77.
 Defaulting to unpruned grid for atomic number  77.
 Defaulting to unpruned grid for atomic number  77.
 Defaulting to unpruned grid for atomic number  77.
 Defaulting to unpruned grid for atomic number  77.
 Defaulting to unpruned grid for atomic number  77.
 Defaulting to unpruned grid for atomic number  77.
 Defaulting to unpruned grid for atomic number  77.
 Defaulting to unpruned grid for atomic number  77.
 Defaulting to unpruned grid for atomic number  77.
 Defaulting to unpruned grid for atomic number  77.
 Defaulting to unpruned grid for atomic number  77.
 Defaulting to unpruned grid for atomic number  77.
 Defaulting to unpruned grid for atomic number  77.
 Defaulting to unpruned grid for atomic number  77.
 Defaulting to unpruned grid for atomic number  77.
 Defaulting to unpruned grid for atomic number  77.
 Defaulting to unpruned grid for atomic number  77.
 Defaulting to unpruned grid for atomic number  77.
 Defaulting to unpruned grid for atomic number  77.
 Defaulting to unpruned grid for atomic number  77.
 Defaulting to unpruned grid for atomic number  77.
 Defaulting to unpruned grid for atomic number  77.
 Defaulting to unpruned grid for atomic number  77.
 Defaulting to unpruned grid for atomic number  77.
 Defaulting to unpruned grid for atomic number  77.
 EnCoef did   100 forward-backward iterations
 SCF Done:  E(RPBE-PBE) =  -847.547678367     A.U. after   14 cycles
            NFock= 14  Conv=0.84D-08     -V/T= 2.0902

 **********************************************************************

            Population analysis using the SCF Density.

 **********************************************************************

 Orbital symmetries:
       Occupied  (A) (A) (A) (A) (A) (A) (A) (A) (A) (A) (A) (A)
                 (A) (A) (A) (A) (A) (A) (A) (A) (A) (A) (A) (A)
                 (A) (A) (A) (A) (A) (A) (A) (A)
       Virtual   (A) (A) (A) (A) (A) (A) (A) (A) (A) (A) (A) (A)
                 (A) (A) (A) (A) (A) (A) (A) (A) (A) (A) (A) (A)
                 (A) (A) (A) (A) (A) (A) (A) (A) (A) (A) (A) (A)
                 (A) (A) (A) (A) (A) (A) (A) (A) (A) (A) (A) (A)
                 (A) (A) (A) (A) (A) (A) (A) (A) (A) (A) (A) (A)
                 (A) (A) (A) (A) (A) (A) (A) (A) (A) (A) (A) (A)
                 (A) (A) (A) (A) (A) (A) (A) (A) (A) (A) (A) (A)
                 (A) (A) (A) (A) (A) (A) (A) (A) (A) (A) (A) (A)
                 (A) (A) (A) (A) (A) (A) (A) (A) (A) (A) (A) (A)
                 (A) (A) (A) (A) (A) (A) (A) (A) (A) (A) (A) (A)
                 (A) (A) (A) (A) (A) (A) (A) (A) (A) (A) (A) (A)
                 (A) (A) (A) (A) (A) (A) (A) (A) (A) (A) (A) (A)
                 (A) (A)
 The electronic state is 1-A.
 Alpha  occ. eigenvalues --  -76.30742 -76.30724 -14.02334  -6.32001  -6.31982
 Alpha  occ. eigenvalues --   -4.53667  -4.53644  -4.53604  -4.53589  -4.53284
 Alpha  occ. eigenvalues --   -4.53267  -3.47647  -1.87465  -1.85950  -1.82677
 Alpha  occ. eigenvalues --   -0.82851  -0.60195  -0.59258  -0.46574  -0.46370
 Alpha  occ. eigenvalues --   -0.36715  -0.35522  -0.35486  -0.35312  -0.34959
 Alpha  occ. eigenvalues --   -0.33742  -0.26470  -0.23635  -0.18977  -0.17099
 Alpha  occ. eigenvalues --   -0.13557  -0.13077
 Alpha virt. eigenvalues --   -0.04626  -0.03722  -0.03181  -0.01911  -0.00372
 Alpha virt. eigenvalues --    0.02018   0.02101   0.02853   0.02870   0.03612
 Alpha virt. eigenvalues --    0.03631   0.04005   0.05066   0.05333   0.05788
 Alpha virt. eigenvalues --    0.06275   0.07760   0.08118   0.09167   0.10323
 Alpha virt. eigenvalues --    0.11060   0.11267   0.12651   0.13026   0.13549
 Alpha virt. eigenvalues --    0.15088   0.16365   0.16715   0.17751   0.18000
 Alpha virt. eigenvalues --    0.19337   0.21036   0.23205   0.25856   0.26672
 Alpha virt. eigenvalues --    0.26833   0.27694   0.28652   0.30470   0.31738
 Alpha virt. eigenvalues --    0.32849   0.33114   0.33628   0.34874   0.35247
 Alpha virt. eigenvalues --    0.36907   0.46080   0.46470   0.48897   0.49986
 Alpha virt. eigenvalues --    0.53095   0.53952   0.54240   0.54451   0.57229
 Alpha virt. eigenvalues --    0.59862   0.61902   0.63132   0.68609   0.69365
 Alpha virt. eigenvalues --    0.70967   0.73347   0.74259   0.74810   0.76344
 Alpha virt. eigenvalues --    0.77755   0.79407   0.85320   0.88030   0.89796
 Alpha virt. eigenvalues --    0.89968   1.08020   1.10516   1.14054   1.20878
 Alpha virt. eigenvalues --    1.22635   1.23653   1.23874   1.27339   1.29533
 Alpha virt. eigenvalues --    1.30250   1.30465   1.30939   1.32727   1.40589
 Alpha virt. eigenvalues --    1.42831   1.45275   1.47467   1.48309   1.50234
 Alpha virt. eigenvalues --    1.52105   1.55433   1.59874   1.61914   1.64692
 Alpha virt. eigenvalues --    1.65436   1.67870   1.68729   1.74309   1.75966
 Alpha virt. eigenvalues --    1.81646   1.82474   1.83376   1.86167   1.99818
 Alpha virt. eigenvalues --    2.01520   2.05399   2.08404   2.08558   2.09500
 Alpha virt. eigenvalues --    2.10215   2.21839   2.43478   2.45032   2.49365
 Alpha virt. eigenvalues --    2.50983   2.52481   2.52583   2.53533   2.53915
 Alpha virt. eigenvalues --    2.56485   2.59540   2.72714   2.75515   2.76243
 Alpha virt. eigenvalues --    2.85029   2.90704   2.93722   4.03503   4.53528
 Alpha virt. eigenvalues --    4.53929   6.93979   6.96287  13.66972  13.69713
 Alpha virt. eigenvalues --   13.70823  13.72857  13.79957  13.86402  35.23255
 Alpha virt. eigenvalues --   47.23921  47.50991  47.56620 139.25030 162.49741
 Alpha virt. eigenvalues --  162.52883
          Condensed to atoms (all electrons):
               1          2          3          4          5          6
     1  Ir  16.441270   0.306708   0.222933  -0.009000   0.199719  -0.026988
     2  H    0.306708   0.651574   0.028600  -0.012271   0.036726  -0.001339
     3  P    0.222933   0.028600  14.010189  -0.059472   0.030758   0.324302
     4  N   -0.009000  -0.012271  -0.059472   6.698534  -0.034473   0.001260
     5  P    0.199719   0.036726   0.030758  -0.034473  14.044353   0.000856
     6  H   -0.026988  -0.001339   0.324302   0.001260   0.000856   0.722896
     7  H   -0.039665   0.000791   0.312364  -0.005268  -0.000029  -0.034146
     8  H   -0.027029  -0.001337   0.324247   0.001301   0.000863  -0.035408
     9  H   -0.028704  -0.001725   0.000381   0.000725   0.323752   0.000007
    10  H   -0.035348   0.000710   0.000465  -0.005102   0.317215   0.000000
    11  H   -0.028592  -0.001726   0.000376   0.000655   0.323713  -0.000034
    12  H   -0.014065   0.000009   0.011580   0.329398   0.006274   0.000337
    13  H   -0.014139   0.000007   0.011513   0.330007   0.006158  -0.000077
    14  H   -0.010716  -0.000221  -0.011045   0.367969  -0.000259  -0.000548
               7          8          9         10         11         12
     1  Ir  -0.039665  -0.027029  -0.028704  -0.035348  -0.028592  -0.014065
     2  H    0.000791  -0.001337  -0.001725   0.000710  -0.001726   0.000009
     3  P    0.312364   0.324247   0.000381   0.000465   0.000376   0.011580
     4  N   -0.005268   0.001301   0.000725  -0.005102   0.000655   0.329398
     5  P   -0.000029   0.000863   0.323752   0.317215   0.323713   0.006274
     6  H   -0.034146  -0.035408   0.000007   0.000000  -0.000034   0.000337
     7  H    0.794819  -0.034168   0.000001  -0.000031   0.000000  -0.001123
     8  H   -0.034168   0.723006  -0.000034   0.000000   0.000007  -0.000077
     9  H    0.000001  -0.000034   0.725519  -0.033624  -0.035069   0.000219
    10  H   -0.000031   0.000000  -0.033624   0.773010  -0.033586   0.002900
    11  H    0.000000   0.000007  -0.035069  -0.033586   0.725456  -0.000280
    12  H   -0.001123  -0.000077   0.000219   0.002900  -0.000280   0.444303
    13  H   -0.001111   0.000336  -0.000294   0.002953   0.000224  -0.023327
    14  H    0.012834  -0.000559  -0.000016   0.000124  -0.000017  -0.027844
              13         14
     1  Ir  -0.014139  -0.010716
     2  H    0.000007  -0.000221
     3  P    0.011513  -0.011045
     4  N    0.330007   0.367969
     5  P    0.006158  -0.000259
     6  H   -0.000077  -0.000548
     7  H   -0.001111   0.012834
     8  H    0.000336  -0.000559
     9  H   -0.000294  -0.000016
    10  H    0.002953   0.000124
    11  H    0.000224  -0.000017
    12  H   -0.023327  -0.027844
    13  H    0.443893  -0.027852
    14  H   -0.027852   0.432100
 Mulliken charges:
               1
     1  Ir   0.063616
     2  H   -0.006506
     3  P   -0.207191
     4  N   -0.604264
     5  P   -0.255626
     6  H    0.048881
     7  H   -0.005269
     8  H    0.048853
     9  H    0.048863
    10  H    0.010313
    11  H    0.048874
    12  H    0.271695
    13  H    0.271709
    14  H    0.266052
 Sum of Mulliken charges =  -0.00000
 Mulliken charges with hydrogens summed into heavy atoms:
               1
     1  Ir   0.057110
     3  P   -0.114726
     4  N    0.205192
     5  P   -0.147575
 Electronic spatial extent (au):  <R**2>=           1097.0753
 Charge=             -0.0000 electrons
 Dipole moment (field-independent basis, Debye):
    X=              0.0486    Y=             -4.5276    Z=              0.0001  Tot=              4.5279
 Quadrupole moment (field-independent basis, Debye-Ang):
   XX=            -53.3578   YY=            -55.0770   ZZ=            -65.2503
   XY=             -0.1296   XZ=             -0.0004   YZ=             -0.0004
 Traceless Quadrupole moment (field-independent basis, Debye-Ang):
   XX=              4.5372   YY=              2.8180   ZZ=             -7.3553
   XY=             -0.1296   XZ=             -0.0004   YZ=             -0.0004
 Octapole moment (field-independent basis, Debye-Ang**2):
  XXX=             -0.7979  YYY=            -13.4777  ZZZ=             -0.0075  XYY=             -0.0081
  XXY=              6.7742  XXZ=              0.0045  XZZ=              0.9459  YZZ=              0.2150
  YYZ=             -0.0040  XYZ=             -0.0002
 Hexadecapole moment (field-independent basis, Debye-Ang**3):
 XXXX=          -1109.5816 YYYY=           -315.5029 ZZZZ=           -135.7883 XXXY=              1.1169
 XXXZ=             -0.0087 YYYX=              0.4648 YYYZ=              0.0082 ZZZX=             -0.0002
 ZZZY=              0.0241 XXYY=           -235.4529 XXZZ=           -203.5864 YYZZ=            -73.7263
 XXYZ=             -0.0274 YYXZ=             -0.0028 ZZXY=             -2.8594
 N-N= 3.264484370725D+02 E-N=-2.634336431795D+03  KE= 7.774010655708D+02
 ******************************Gaussian NBO Version 3.1******************************
             N A T U R A L   A T O M I C   O R B I T A L   A N D
          N A T U R A L   B O N D   O R B I T A L   A N A L Y S I S
 ******************************Gaussian NBO Version 3.1******************************
       /RESON  / : Allow strongly delocalized NBO set

 Analyzing the SCF density

 Job title: trans-(H)Ir(PH3)2(NH3)                                          

 Storage needed:     95974 in NPA,    127502 in NBO (2147482528 available)
 GSVD:  LWork=        9642 too small for GESVD, short by       33515 words or       33515 for optimal perf.


 NATURAL POPULATIONS:  Natural atomic orbital occupancies 
                                                          
   NAO  Atom  No  lang   Type(AO)    Occupancy      Energy
 ----------------------------------------------------------
     1   Ir    1  S      Cor( 5S)     1.99709      -3.36300
     2   Ir    1  S      Val( 7S)     0.73179       0.73598
     3   Ir    1  S      Ryd( 8S)     0.01813       0.91218
     4   Ir    1  S      Ryd( 6S)     0.00037       0.54535
     5   Ir    1  S      Ryd( 9S)     0.00025       6.55632
     6   Ir    1  S      Ryd(10S)     0.00003     122.09030
     7   Ir    1  px     Cor( 5p)     1.99642      -1.84548
     8   Ir    1  px     Val( 6p)     0.20404       0.28054
     9   Ir    1  px     Ryd( 7p)     0.00063       0.40246
    10   Ir    1  px     Ryd( 8p)     0.00019       1.27357
    11   Ir    1  px     Ryd( 9p)     0.00001      47.03654
    12   Ir    1  py     Cor( 5p)     1.99467      -1.83640
    13   Ir    1  py     Val( 7p)     0.17287       0.37317
    14   Ir    1  py     Ryd( 6p)     0.00098       0.35107
    15   Ir    1  py     Ryd( 8p)     0.00012       1.36338
    16   Ir    1  py     Ryd( 9p)     0.00000      47.16744
    17   Ir    1  pz     Cor( 5p)     1.99592      -1.82197
    18   Ir    1  pz     Val( 6p)     0.00890       0.09674
    19   Ir    1  pz     Ryd( 7p)     0.00012       0.29663
    20   Ir    1  pz     Ryd( 8p)     0.00004       1.24618
    21   Ir    1  pz     Ryd( 9p)     0.00000      47.01581
    22   Ir    1  dxy    Val( 5d)     1.84536      -0.17678
    23   Ir    1  dxy    Ryd( 7d)     0.00306       0.64841
    24   Ir    1  dxy    Ryd( 6d)     0.00037       0.27214
    25   Ir    1  dxz    Val( 5d)     1.82381      -0.15408
    26   Ir    1  dxz    Ryd( 7d)     0.00238       0.64786
    27   Ir    1  dxz    Ryd( 6d)     0.00041       0.24950
    28   Ir    1  dyz    Val( 5d)     1.97796      -0.13364
    29   Ir    1  dyz    Ryd( 7d)     0.00283       0.53800
    30   Ir    1  dyz    Ryd( 6d)     0.00102       0.21758
    31   Ir    1  dx2y2  Val( 5d)     1.32130      -0.20785
    32   Ir    1  dx2y2  Ryd( 7d)     0.00316       0.90420
    33   Ir    1  dx2y2  Ryd( 6d)     0.00046       0.56653
    34   Ir    1  dz2    Val( 5d)     1.83473      -0.14272
    35   Ir    1  dz2    Ryd( 7d)     0.00081       1.55150
    36   Ir    1  dz2    Ryd( 6d)     0.00038       1.37462
 
    37    H    2  S      Val( 1S)     0.95605       0.09493
    38    H    2  S      Ryd( 3S)     0.00211       2.41370
    39    H    2  S      Ryd( 2S)     0.00035       1.73848
    40    H    2  px     Ryd( 2p)     0.00021       1.60753
    41    H    2  py     Ryd( 2p)     0.00113       2.26770
    42    H    2  pz     Ryd( 2p)     0.00027       1.48071
 
    43    P    3  S      Cor( 1S)     2.00000     -75.29536
    44    P    3  S      Cor( 2S)     1.99774      -7.13408
    45    P    3  S      Val( 3S)     1.38246      -0.46591
    46    P    3  S      Ryd( 5S)     0.00656       1.72733
    47    P    3  S      Ryd( 4S)     0.00038       0.84378
    48    P    3  S      Ryd( 6S)     0.00000      13.57240
    49    P    3  S      Ryd( 7S)     0.00000     155.39148
    50    P    3  px     Cor( 2p)     1.99968      -4.52327
    51    P    3  px     Val( 3p)     1.26781      -0.07096
    52    P    3  px     Ryd( 6p)     0.00746       1.84186
    53    P    3  px     Ryd( 4p)     0.00083       0.35440
    54    P    3  px     Ryd( 5p)     0.00006       1.55866
    55    P    3  px     Ryd( 7p)     0.00000      13.39028
    56    P    3  py     Cor( 2p)     1.99987      -4.52853
    57    P    3  py     Val( 3p)     0.98759      -0.13468
    58    P    3  py     Ryd( 5p)     0.00198       0.52743
    59    P    3  py     Ryd( 4p)     0.00052       0.34006
    60    P    3  py     Ryd( 6p)     0.00007       1.35136
    61    P    3  py     Ryd( 7p)     0.00000      13.42615
    62    P    3  pz     Cor( 2p)     1.99988      -4.52785
    63    P    3  pz     Val( 3p)     1.01160      -0.13329
    64    P    3  pz     Ryd( 5p)     0.00143       0.51695
    65    P    3  pz     Ryd( 4p)     0.00021       0.30450
    66    P    3  pz     Ryd( 6p)     0.00010       1.31946
    67    P    3  pz     Ryd( 7p)     0.00001      13.42606
    68    P    3  dxy    Ryd( 3d)     0.00972       0.98710
    69    P    3  dxz    Ryd( 3d)     0.01104       0.98416
    70    P    3  dyz    Ryd( 3d)     0.00246       0.86877
    71    P    3  dx2y2  Ryd( 3d)     0.00226       1.17144
    72    P    3  dz2    Ryd( 3d)     0.00306       1.01571
 
    73    N    4  S      Cor( 1S)     1.99958     -13.85054
    74    N    4  S      Val( 2S)     1.45614      -0.62646
    75    N    4  S      Ryd( 4S)     0.00319       1.51996
    76    N    4  S      Ryd( 3S)     0.00061       1.00583
    77    N    4  S      Ryd( 5S)     0.00000      34.81558
    78    N    4  px     Val( 2p)     1.39383      -0.22938
    79    N    4  px     Ryd( 4p)     0.00258       0.59742
    80    N    4  px     Ryd( 3p)     0.00031       0.35950
    81    N    4  px     Ryd( 5p)     0.00002       4.06936
    82    N    4  py     Val( 2p)     1.67793      -0.23498
    83    N    4  py     Ryd( 4p)     0.01036       0.82558
    84    N    4  py     Ryd( 3p)     0.00043       0.50550
    85    N    4  py     Ryd( 5p)     0.00006       3.88036
    86    N    4  pz     Val( 2p)     1.39180      -0.22724
    87    N    4  pz     Ryd( 4p)     0.00204       0.56432
    88    N    4  pz     Ryd( 3p)     0.00007       0.30493
    89    N    4  pz     Ryd( 5p)     0.00004       4.06308
    90    N    4  dxy    Ryd( 3d)     0.00137       2.42107
    91    N    4  dxz    Ryd( 3d)     0.00035       2.55024
    92    N    4  dyz    Ryd( 3d)     0.00135       2.38187
    93    N    4  dx2y2  Ryd( 3d)     0.00032       2.30385
    94    N    4  dz2    Ryd( 3d)     0.00035       2.47412
 
    95    P    5  S      Cor( 1S)     2.00000     -75.29570
    96    P    5  S      Cor( 2S)     1.99777      -7.13399
    97    P    5  S      Val( 3S)     1.38361      -0.46571
    98    P    5  S      Ryd( 5S)     0.00652       1.70433
    99    P    5  S      Ryd( 4S)     0.00042       0.82415
   100    P    5  S      Ryd( 6S)     0.00000      13.58148
   101    P    5  S      Ryd( 7S)     0.00000     155.39566
   102    P    5  px     Cor( 2p)     1.99968      -4.52309
   103    P    5  px     Val( 3p)     1.26973      -0.07049
   104    P    5  px     Ryd( 6p)     0.00734       1.79978
   105    P    5  px     Ryd( 4p)     0.00091       0.35083
   106    P    5  px     Ryd( 5p)     0.00005       1.56302
   107    P    5  px     Ryd( 7p)     0.00000      13.38533
   108    P    5  py     Cor( 2p)     1.99987      -4.52828
   109    P    5  py     Val( 3p)     0.99084      -0.13450
   110    P    5  py     Ryd( 5p)     0.00209       0.52441
   111    P    5  py     Ryd( 4p)     0.00056       0.34017
   112    P    5  py     Ryd( 6p)     0.00007       1.36215
   113    P    5  py     Ryd( 7p)     0.00000      13.42358
   114    P    5  pz     Cor( 2p)     1.99989      -4.52770
   115    P    5  pz     Val( 3p)     1.01204      -0.13391
   116    P    5  pz     Ryd( 5p)     0.00124       0.51554
   117    P    5  pz     Ryd( 4p)     0.00018       0.29731
   118    P    5  pz     Ryd( 6p)     0.00008       1.32846
   119    P    5  pz     Ryd( 7p)     0.00001      13.42131
   120    P    5  dxy    Ryd( 3d)     0.00991       0.99023
   121    P    5  dxz    Ryd( 3d)     0.01083       0.97962
   122    P    5  dyz    Ryd( 3d)     0.00246       0.87417
   123    P    5  dx2y2  Ryd( 3d)     0.00213       1.16926
   124    P    5  dz2    Ryd( 3d)     0.00307       1.00760
 
   125    H    6  S      Val( 1S)     0.97060      -0.11921
   126    H    6  S      Ryd( 2S)     0.00249       0.57994
   127    H    6  S      Ryd( 3S)     0.00016       2.12629
   128    H    6  px     Ryd( 2p)     0.00073       1.58898
   129    H    6  py     Ryd( 2p)     0.00063       1.50904
   130    H    6  pz     Ryd( 2p)     0.00140       1.76478
 
   131    H    7  S      Val( 1S)     1.00742      -0.13649
   132    H    7  S      Ryd( 2S)     0.00292       0.57857
   133    H    7  S      Ryd( 3S)     0.00021       2.14183
   134    H    7  px     Ryd( 2p)     0.00076       1.56587
   135    H    7  py     Ryd( 2p)     0.00166       1.87976
   136    H    7  pz     Ryd( 2p)     0.00027       1.37838
 
   137    H    8  S      Val( 1S)     0.97062      -0.11922
   138    H    8  S      Ryd( 2S)     0.00249       0.57996
   139    H    8  S      Ryd( 3S)     0.00016       2.12627
   140    H    8  px     Ryd( 2p)     0.00073       1.58898
   141    H    8  py     Ryd( 2p)     0.00062       1.50830
   142    H    8  pz     Ryd( 2p)     0.00140       1.76550
 
   143    H    9  S      Val( 1S)     0.97042      -0.11936
   144    H    9  S      Ryd( 2S)     0.00252       0.57824
   145    H    9  S      Ryd( 3S)     0.00015       2.12430
   146    H    9  px     Ryd( 2p)     0.00070       1.58597
   147    H    9  py     Ryd( 2p)     0.00063       1.51159
   148    H    9  pz     Ryd( 2p)     0.00141       1.76296
 
   149    H   10  S      Val( 1S)     1.00164      -0.13353
   150    H   10  S      Ryd( 2S)     0.00242       0.59563
   151    H   10  S      Ryd( 3S)     0.00023       2.10932
   152    H   10  px     Ryd( 2p)     0.00074       1.57469
   153    H   10  py     Ryd( 2p)     0.00165       1.88039
   154    H   10  pz     Ryd( 2p)     0.00026       1.37900
 
   155    H   11  S      Val( 1S)     0.97040      -0.11935
   156    H   11  S      Ryd( 2S)     0.00252       0.57817
   157    H   11  S      Ryd( 3S)     0.00015       2.12432
   158    H   11  px     Ryd( 2p)     0.00071       1.58611
   159    H   11  py     Ryd( 2p)     0.00064       1.51226
   160    H   11  pz     Ryd( 2p)     0.00141       1.76217
 
   161    H   12  S      Val( 1S)     0.60841       0.04688
   162    H   12  S      Ryd( 2S)     0.00114       1.21605
   163    H   12  S      Ryd( 3S)     0.00016       1.50427
   164    H   12  px     Ryd( 2p)     0.00031       1.80807
   165    H   12  py     Ryd( 2p)     0.00041       1.70427
   166    H   12  pz     Ryd( 2p)     0.00033       2.22485
 
   167    H   13  S      Val( 1S)     0.60841       0.04684
   168    H   13  S      Ryd( 2S)     0.00114       1.21753
   169    H   13  S      Ryd( 3S)     0.00016       1.50245
   170    H   13  px     Ryd( 2p)     0.00031       1.81199
   171    H   13  py     Ryd( 2p)     0.00041       1.70383
   172    H   13  pz     Ryd( 2p)     0.00033       2.22130
 
   173    H   14  S      Val( 1S)     0.61278       0.04274
   174    H   14  S      Ryd( 2S)     0.00088       1.22798
   175    H   14  S      Ryd( 3S)     0.00029       1.52748
   176    H   14  px     Ryd( 2p)     0.00034       2.40105
   177    H   14  py     Ryd( 2p)     0.00043       1.77009
   178    H   14  pz     Ryd( 2p)     0.00032       1.58368

 [ 60 electrons found in the effective core potential]

 WARNING:  4 low occupancy (<1.9990e) core orbitals found on Ir    1
           1 low occupancy (<1.9990e) core orbital  found on  P    3
           1 low occupancy (<1.9990e) core orbital  found on  P    5

 WARNING:  Population inversion found on atom Ir    1
           Population inversion found on atom  H    2
           Population inversion found on atom  P    3
           Population inversion found on atom  N    4
           Population inversion found on atom  P    5


 Summary of Natural Population Analysis:                  
                                                          
                                       Natural Population 
                Natural  -----------------------------------------------
    Atom  No    Charge         Core      Valence    Rydberg      Total
 -----------------------------------------------------------------------
     Ir    1   -0.94061     67.98410     9.92075    0.03576    77.94061
      H    2    0.03988      0.00000     0.95605    0.00407     0.96012
      P    3    0.30519      9.99718     4.64946    0.04817    14.69481
      N    4   -0.94273      1.99958     5.91970    0.02345     7.94273
      P    5    0.29871      9.99721     4.65621    0.04787    14.70129
      H    6    0.02399      0.00000     0.97060    0.00541     0.97601
      H    7   -0.01324      0.00000     1.00742    0.00582     1.01324
      H    8    0.02396      0.00000     0.97062    0.00541     0.97604
      H    9    0.02416      0.00000     0.97042    0.00542     0.97584
      H   10   -0.00694      0.00000     1.00164    0.00530     1.00694
      H   11    0.02418      0.00000     0.97040    0.00542     0.97582
      H   12    0.38925      0.00000     0.60841    0.00235     0.61075
      H   13    0.38924      0.00000     0.60841    0.00234     0.61076
      H   14    0.38496      0.00000     0.61278    0.00226     0.61504
 =======================================================================
   * Total *   -0.00000     89.97807    33.82288    0.19905   124.00000

                                 Natural Population      
 --------------------------------------------------------
   Effective Core            60.00000
   Core                      29.97807 ( 99.9269% of  30)
   Valence                   33.82288 ( 99.4791% of  34)
   Natural Minimal Basis    123.80095 ( 99.8395% of 124)
   Natural Rydberg Basis      0.19905 (  0.1605% of 124)
 --------------------------------------------------------

    Atom  No          Natural Electron Configuration
 ----------------------------------------------------------------------------
     Ir    1      [core]5d( 8.80)6p( 0.21)7S( 0.73)7p( 0.17)8S( 0.02)
      H    2            1S( 0.96)
      P    3      [core]3S( 1.38)3p( 3.27)3d( 0.03)5S( 0.01)6p( 0.01)
      N    4      [core]2S( 1.46)2p( 4.46)4p( 0.01)
      P    5      [core]3S( 1.38)3p( 3.27)3d( 0.03)5S( 0.01)6p( 0.01)
      H    6            1S( 0.97)
      H    7            1S( 1.01)
      H    8            1S( 0.97)
      H    9            1S( 0.97)
      H   10            1S( 1.00)
      H   11            1S( 0.97)
      H   12            1S( 0.61)
      H   13            1S( 0.61)
      H   14            1S( 0.61)


 NATURAL BOND ORBITAL ANALYSIS:

                       Occupancies       Lewis Structure    Low   High
           Occ.    -------------------  -----------------   occ   occ
  Cycle   Thresh.   Lewis   Non-Lewis     CR  BD  3C  LP    (L)   (NL)   Dev
 =============================================================================
   1(1)    1.90   122.16516   1.83484     15  15   0   2     8      5    0.11
   2(2)    1.90   122.87142   1.12858     15  13   0   4     5      3    0.11
   3(3)    1.90   122.87142   1.12858     15  13   0   4     5      3    0.11
   4(1)    1.80   122.94225   1.05775     15  13   0   4     1      3    0.11
   5(2)    1.80   122.94225   1.05775     15  13   0   4     1      3    0.11
   6(1)    1.70   122.92336   1.07664     15  12   0   5     0      4    0.35
   7(2)    1.70   122.92336   1.07664     15  12   0   5     0      4    0.35
   8(1)    1.60   122.92336   1.07664     15  12   0   5     0      4    0.35
   9(2)    1.60   122.92336   1.07664     15  12   0   5     0      4    0.35
  10(1)    1.50   122.92336   1.07664     15  12   0   5     0      4    0.35
  11(2)    1.50   122.92336   1.07664     15  12   0   5     0      4    0.35
  12(1)    1.80   122.94225   1.05775     15  13   0   4     1      3    0.11
 -----------------------------------------------------------------------------

 Structure accepted: RESONANCE keyword permits strongly delocalized structure

 WARNING:  4 low occupancy (<1.9990e) core orbitals found on Ir    1
           1 low occupancy (<1.9990e) core orbital  found on  P    3
           1 low occupancy (<1.9990e) core orbital  found on  P    5

 --------------------------------------------------------
   Effective Core           60.00000
   Core                     29.97812 ( 99.927% of  30)
   Valence Lewis            32.96414 ( 96.953% of  34)
  ==================       ============================
   Total Lewis             122.94225 ( 99.147% of 124)
  -----------------------------------------------------
   Valence non-Lewis         0.93826 (  0.757% of 124)
   Rydberg non-Lewis         0.11948 (  0.096% of 124)
  ==================       ============================
   Total non-Lewis           1.05775 (  0.853% of 124)
 --------------------------------------------------------


       (Occupancy)   Bond orbital/ Coefficients/ Hybrids
 ---------------------------------------------------------------------------------
     1. (1.71421) BD ( 1)Ir   1 - H   2  
                ( 46.00%)   0.6782*Ir   1 s( 22.91%)p 1.99( 45.59%)d 1.38( 31.50%)
                                           -0.0003  0.4766  0.0342  0.0265  0.0023
                                            0.0009 -0.0000  0.0016  0.0012  0.0003
                                            0.0001 -0.0009  0.6751 -0.0022  0.0099
                                           -0.0018 -0.0000  0.0000 -0.0000 -0.0000
                                            0.0000  0.0014  0.0018 -0.0014  0.0000
                                            0.0000  0.0000  0.0000  0.0000 -0.0000
                                           -0.5348 -0.0257 -0.0089 -0.1680 -0.0010
                                           -0.0087
                ( 54.00%)   0.7348* H   2 s( 99.88%)p 0.00(  0.12%)
                                            0.9993  0.0132 -0.0016  0.0000 -0.0347
                                            0.0000
     2. (1.89152) BD ( 1)Ir   1 - P   3  
                ( 24.36%)   0.4936*Ir   1 s( 28.32%)p 1.76( 49.94%)d 0.77( 21.74%)
                                           -0.0005  0.5313  0.0299 -0.0015 -0.0013
                                           -0.0018 -0.0006 -0.7060  0.0139  0.0052
                                           -0.0018  0.0000 -0.0260 -0.0070 -0.0001
                                            0.0000 -0.0000  0.0000 -0.0000  0.0000
                                           -0.0000 -0.0066  0.0065 -0.0012 -0.0000
                                           -0.0000 -0.0000 -0.0000  0.0000  0.0000
                                            0.4606  0.0226 -0.0043 -0.0671 -0.0107
                                            0.0078
                ( 75.64%)   0.8697* P   3 s( 42.90%)p 1.33( 57.05%)d 0.00(  0.05%)
                                           -0.0000  0.0003  0.6549  0.0029 -0.0096
                                           -0.0000 -0.0000  0.0001  0.7543 -0.0351
                                           -0.0162  0.0010 -0.0006 -0.0000  0.0002
                                            0.0043  0.0003  0.0005 -0.0002 -0.0000
                                            0.0000  0.0000 -0.0000 -0.0000 -0.0000
                                           -0.0044  0.0000 -0.0000  0.0206 -0.0080
     3. (1.94429) BD ( 1)Ir   1 - N   4  
                ( 11.56%)   0.3400*Ir   1 s( 14.63%)p 3.65( 53.35%)d 2.19( 32.02%)
                                           -0.0009  0.3782  0.0430 -0.0364 -0.0054
                                            0.0036  0.0001 -0.0028 -0.0016 -0.0002
                                           -0.0002  0.0008 -0.7304 -0.0000 -0.0013
                                            0.0003  0.0000 -0.0001  0.0000  0.0000
                                           -0.0000  0.0024 -0.0034  0.0015  0.0000
                                            0.0000 -0.0000  0.0001 -0.0000  0.0000
                                           -0.5180  0.0426  0.0312 -0.2195  0.0236
                                            0.0181
                ( 88.44%)   0.9404* N   4 s( 31.80%)p 2.14( 68.19%)d 0.00(  0.01%)
                                            0.0001  0.5637  0.0116 -0.0107  0.0000
                                           -0.0153 -0.0006 -0.0002 -0.0002  0.8244
                                            0.0430 -0.0115 -0.0001 -0.0002 -0.0000
                                           -0.0000  0.0000  0.0007  0.0000  0.0000
                                            0.0097  0.0057
     4. (1.89287) BD ( 1)Ir   1 - P   5  
                ( 24.29%)   0.4928*Ir   1 s( 28.22%)p 1.78( 50.21%)d 0.76( 21.57%)
                                           -0.0005  0.5303  0.0297 -0.0018 -0.0014
                                           -0.0018  0.0006  0.7078 -0.0130 -0.0051
                                            0.0018  0.0001 -0.0301 -0.0057  0.0013
                                           -0.0001  0.0000 -0.0001 -0.0000 -0.0000
                                            0.0000  0.0013 -0.0078  0.0002 -0.0000
                                            0.0000  0.0000 -0.0000 -0.0000  0.0000
                                            0.4586  0.0224 -0.0050 -0.0677 -0.0108
                                            0.0080
                ( 75.71%)   0.8701* P   5 s( 42.85%)p 1.33( 57.10%)d 0.00(  0.05%)
                                           -0.0000  0.0003  0.6545  0.0024 -0.0092
                                           -0.0001 -0.0000 -0.0001 -0.7546  0.0348
                                            0.0166 -0.0009  0.0006 -0.0000 -0.0077
                                            0.0045 -0.0002  0.0005 -0.0003 -0.0000
                                           -0.0001  0.0000 -0.0000 -0.0000 -0.0000
                                            0.0044 -0.0000  0.0000  0.0203 -0.0077
     5. (1.98825) BD ( 1) P   3 - H   6  
                ( 52.79%)   0.7265* P   3 s( 19.59%)p 4.08( 79.92%)d 0.02(  0.49%)
                                            0.0000  0.0003 -0.4425  0.0086 -0.0069
                                            0.0001  0.0000  0.0002  0.3844 -0.0013
                                            0.0061 -0.0002  0.0006  0.0000 -0.3944
                                           -0.0085 -0.0021  0.0001  0.0003 -0.0001
                                            0.7040  0.0141  0.0074  0.0012 -0.0003
                                            0.0281 -0.0522  0.0304 -0.0067 -0.0196
                ( 47.21%)   0.6871* H   6 s( 99.82%)p 0.00(  0.18%)
                                           -0.9990  0.0102  0.0005 -0.0210  0.0185
                                           -0.0324
     6. (1.98603) BD ( 1) P   3 - H   7  
                ( 50.93%)   0.7137* P   3 s( 17.85%)p 4.57( 81.63%)d 0.03(  0.52%)
                                            0.0000  0.0005 -0.4225  0.0025 -0.0059
                                           -0.0001 -0.0000  0.0003  0.3660  0.0079
                                            0.0050 -0.0028  0.0003 -0.0000  0.8258
                                            0.0174  0.0032 -0.0005 -0.0006 -0.0000
                                            0.0008  0.0000 -0.0000 -0.0000 -0.0000
                                           -0.0569 -0.0001 -0.0001  0.0299  0.0322
                ( 49.07%)   0.7005* H   7 s( 99.82%)p 0.00(  0.18%)
                                           -0.9991  0.0112  0.0006 -0.0227 -0.0355
                                           -0.0000
     7. (1.98824) BD ( 1) P   3 - H   8  
                ( 52.78%)   0.7265* P   3 s( 19.59%)p 4.08( 79.92%)d 0.02(  0.49%)
                                            0.0000  0.0003 -0.4425  0.0086 -0.0069
                                            0.0001  0.0000  0.0002  0.3844 -0.0013
                                            0.0061 -0.0002  0.0006  0.0000 -0.3931
                                           -0.0085 -0.0021  0.0001  0.0003  0.0001
                                           -0.7047 -0.0141 -0.0074 -0.0012  0.0003
                                            0.0281  0.0523 -0.0303 -0.0067 -0.0197
                ( 47.22%)   0.6871* H   8 s( 99.82%)p 0.00(  0.18%)
                                           -0.9990  0.0102  0.0005 -0.0210  0.0184
                                            0.0324
     8. (1.99612) BD ( 1) N   4 - H  12  
                ( 69.86%)   0.8358* N   4 s( 22.60%)p 3.42( 77.33%)d 0.00(  0.07%)
                                           -0.0001  0.4753 -0.0030  0.0070  0.0000
                                            0.4140 -0.0098  0.0008  0.0006 -0.3175
                                           -0.0008 -0.0048  0.0028 -0.7074  0.0243
                                           -0.0016 -0.0011 -0.0115 -0.0110  0.0203
                                            0.0004  0.0072
                ( 30.14%)   0.5490* H  12 s( 99.95%)p 0.00(  0.05%)
                                            0.9997  0.0038 -0.0001 -0.0105 -0.0004
                                            0.0194
     9. (1.99612) BD ( 1) N   4 - H  13  
                ( 69.86%)   0.8358* N   4 s( 22.60%)p 3.42( 77.33%)d 0.00(  0.07%)
                                           -0.0001  0.4753 -0.0030  0.0070  0.0000
                                            0.4180 -0.0099  0.0008  0.0006 -0.3170
                                           -0.0008 -0.0048  0.0028  0.7053 -0.0242
                                            0.0016  0.0011 -0.0116  0.0111 -0.0203
                                            0.0004  0.0072
                ( 30.14%)   0.5490* H  13 s( 99.95%)p 0.00(  0.05%)
                                            0.9997  0.0038 -0.0001 -0.0106 -0.0004
                                           -0.0193
    10. (1.99681) BD ( 1) N   4 - H  14  
                ( 69.61%)   0.8343* N   4 s( 22.95%)p 3.35( 76.98%)d 0.00(  0.07%)
                                            0.0001 -0.4790  0.0005 -0.0049  0.0000
                                            0.8074 -0.0196  0.0018  0.0015  0.3426
                                           -0.0014  0.0065 -0.0026 -0.0024  0.0001
                                           -0.0000 -0.0000 -0.0243  0.0001  0.0001
                                           -0.0079  0.0092
                ( 30.39%)   0.5513* H  14 s( 99.95%)p 0.00(  0.05%)
                                           -0.9998 -0.0033  0.0000 -0.0217 -0.0015
                                            0.0001
    11. (1.98838) BD ( 1) P   5 - H   9  
                ( 52.79%)   0.7266* P   5 s( 19.56%)p 4.09( 79.96%)d 0.02(  0.49%)
                                           -0.0000 -0.0003  0.4421 -0.0083  0.0069
                                           -0.0001  0.0000  0.0002  0.3795 -0.0009
                                            0.0060 -0.0006  0.0006 -0.0000  0.3982
                                            0.0085  0.0025 -0.0003 -0.0002 -0.0001
                                            0.7048  0.0141  0.0071  0.0015 -0.0003
                                            0.0282  0.0518  0.0309  0.0061  0.0197
                ( 47.21%)   0.6871* H   9 s( 99.82%)p 0.00(  0.18%)
                                            0.9990 -0.0102 -0.0006 -0.0206 -0.0188
                                           -0.0323
    12. (1.98637) BD ( 1) P   5 - H  10  
                ( 51.20%)   0.7155* P   5 s( 17.95%)p 4.54( 81.54%)d 0.03(  0.51%)
                                           -0.0000 -0.0005  0.4237 -0.0017  0.0061
                                            0.0003  0.0000  0.0003  0.3754  0.0067
                                            0.0049 -0.0017  0.0002  0.0000 -0.8210
                                           -0.0174 -0.0040  0.0009  0.0005  0.0000
                                           -0.0005 -0.0000  0.0000  0.0000  0.0000
                                           -0.0572 -0.0000  0.0000 -0.0283 -0.0320
                ( 48.80%)   0.6986* H  10 s( 99.83%)p 0.00(  0.17%)
                                            0.9991 -0.0102 -0.0007 -0.0224  0.0352
                                            0.0000
    13. (1.98839) BD ( 1) P   5 - H  11  
                ( 52.79%)   0.7266* P   5 s( 19.56%)p 4.09( 79.95%)d 0.02(  0.49%)
                                           -0.0000 -0.0003  0.4422 -0.0084  0.0069
                                           -0.0001  0.0000  0.0002  0.3797 -0.0009
                                            0.0060 -0.0006  0.0006 -0.0000  0.3992
                                            0.0085  0.0025 -0.0003 -0.0002  0.0001
                                           -0.7040 -0.0141 -0.0071 -0.0015  0.0003
                                            0.0283 -0.0517 -0.0309  0.0061  0.0196
                ( 47.21%)   0.6871* H  11 s( 99.82%)p 0.00(  0.18%)
                                            0.9990 -0.0102 -0.0006 -0.0207 -0.0188
                                            0.0323
    14. (1.99711) CR ( 1)Ir   1           s(100.00%)p 0.00(  0.00%)d 0.00(  0.00%)
                                            1.0000  0.0014 -0.0000 -0.0000 -0.0000
                                            0.0000  0.0000  0.0001  0.0000  0.0000
                                           -0.0000  0.0000 -0.0005 -0.0000  0.0000
                                           -0.0000  0.0000 -0.0000 -0.0000 -0.0000
                                            0.0000 -0.0000 -0.0000 -0.0000  0.0000
                                            0.0000 -0.0000 -0.0000 -0.0000 -0.0000
                                           -0.0004  0.0000  0.0000  0.0009  0.0000
                                            0.0000
    15. (1.99650) CR ( 2)Ir   1           s(  0.00%)p 1.00(100.00%)d 0.00(  0.00%)
                                            0.0000 -0.0000  0.0000  0.0000  0.0000
                                           -0.0000  1.0000 -0.0008  0.0000  0.0000
                                           -0.0000 -0.0000  0.0001  0.0000 -0.0000
                                           -0.0000 -0.0000  0.0000  0.0000  0.0000
                                           -0.0000  0.0002  0.0000 -0.0000  0.0000
                                           -0.0000 -0.0000 -0.0000  0.0000 -0.0000
                                            0.0000 -0.0000 -0.0000 -0.0000 -0.0000
                                           -0.0000
    16. (1.99460) CR ( 3)Ir   1           s(  0.00%)p 1.00(100.00%)d 0.00(  0.00%)
                                            0.0000 -0.0001  0.0000  0.0001  0.0000
                                           -0.0000 -0.0000 -0.0000  0.0000  0.0000
                                            0.0000  1.0000  0.0013  0.0000  0.0000
                                           -0.0000  0.0000  0.0000 -0.0000 -0.0000
                                            0.0000  0.0000  0.0000 -0.0000  0.0000
                                           -0.0000  0.0000  0.0000 -0.0000  0.0000
                                           -0.0000 -0.0000 -0.0000 -0.0005 -0.0000
                                           -0.0000
    17. (1.99591) CR ( 4)Ir   1           s(  0.00%)p 1.00(100.00%)d 0.00(  0.00%)
                                            0.0000 -0.0000  0.0000  0.0000 -0.0000
                                           -0.0000 -0.0000 -0.0000  0.0000  0.0000
                                           -0.0000  0.0000  0.0000 -0.0000 -0.0000
                                           -0.0000  1.0000  0.0000 -0.0000  0.0000
                                           -0.0000 -0.0000  0.0000 -0.0000 -0.0001
                                           -0.0000  0.0000 -0.0010  0.0000 -0.0000
                                           -0.0000  0.0000 -0.0000 -0.0000  0.0000
                                           -0.0000
    18. (2.00000) CR ( 1) P   3           s(100.00%)
                                            1.0000 -0.0000  0.0000 -0.0000  0.0000
                                           -0.0000  0.0000 -0.0000 -0.0000 -0.0000
                                           -0.0000  0.0000 -0.0000  0.0000 -0.0000
                                            0.0000  0.0000  0.0000 -0.0000  0.0000
                                           -0.0000 -0.0000 -0.0000  0.0000  0.0000
                                            0.0000  0.0000 -0.0000 -0.0000 -0.0000
    19. (1.99775) CR ( 2) P   3           s(100.00%)p 0.00(  0.00%)
                                           -0.0000  1.0000  0.0002 -0.0000  0.0000
                                            0.0000  0.0000 -0.0000 -0.0006  0.0000
                                           -0.0000  0.0000 -0.0000  0.0000 -0.0002
                                           -0.0000 -0.0000  0.0000  0.0000  0.0000
                                           -0.0000 -0.0000  0.0000  0.0000  0.0000
                                            0.0000  0.0000  0.0000 -0.0000 -0.0000
    20. (1.99968) CR ( 3) P   3           s(  0.00%)p 1.00(100.00%)
                                           -0.0000 -0.0000  0.0002 -0.0000  0.0000
                                            0.0000  0.0000  1.0000 -0.0003  0.0000
                                           -0.0000  0.0000 -0.0000  0.0000 -0.0001
                                           -0.0000 -0.0000  0.0000  0.0000  0.0000
                                           -0.0000 -0.0000  0.0000  0.0000  0.0000
                                            0.0000  0.0000  0.0000 -0.0000 -0.0000
    21. (1.99987) CR ( 4) P   3           s(  0.00%)p 1.00(100.00%)
                                            0.0000  0.0000  0.0000 -0.0000 -0.0000
                                           -0.0000 -0.0000  0.0000  0.0000  0.0000
                                           -0.0000 -0.0000 -0.0000  1.0000  0.0000
                                            0.0000  0.0000 -0.0000 -0.0000  0.0000
                                           -0.0000  0.0000 -0.0000 -0.0000 -0.0000
                                           -0.0000  0.0000 -0.0000  0.0000  0.0000
    22. (1.99989) CR ( 5) P   3           s(  0.00%)p 1.00(100.00%)
                                            0.0000  0.0000 -0.0000  0.0000  0.0000
                                           -0.0000 -0.0000  0.0000  0.0000 -0.0000
                                            0.0000  0.0000 -0.0000  0.0000 -0.0000
                                            0.0000 -0.0000 -0.0000 -0.0000  1.0000
                                            0.0001  0.0000  0.0000  0.0000 -0.0000
                                            0.0000 -0.0000  0.0000  0.0000  0.0000
    23. (1.99958) CR ( 1) N   4           s(100.00%)p 0.00(  0.00%)
                                            1.0000  0.0001 -0.0000  0.0000 -0.0000
                                            0.0000 -0.0000  0.0000  0.0000 -0.0002
                                           -0.0000 -0.0000  0.0000 -0.0000  0.0000
                                            0.0000 -0.0000 -0.0000 -0.0000  0.0000
                                           -0.0000 -0.0000
    24. (2.00000) CR ( 1) P   5           s(100.00%)
                                            1.0000 -0.0000  0.0000 -0.0000  0.0000
                                           -0.0000  0.0000  0.0000  0.0000  0.0000
                                            0.0000 -0.0000  0.0000 -0.0000  0.0000
                                            0.0000  0.0000  0.0000 -0.0000 -0.0000
                                            0.0000 -0.0000  0.0000  0.0000  0.0000
                                            0.0000  0.0000 -0.0000  0.0000  0.0000
    25. (1.99778) CR ( 2) P   5           s(100.00%)p 0.00(  0.00%)
                                           -0.0000  1.0000  0.0002 -0.0000  0.0000
                                            0.0000  0.0000  0.0000  0.0006 -0.0000
                                            0.0000 -0.0000  0.0000  0.0000 -0.0002
                                           -0.0000 -0.0000  0.0000  0.0000  0.0000
                                            0.0000 -0.0000  0.0000  0.0000  0.0000
                                           -0.0000  0.0000  0.0000 -0.0000 -0.0000
    26. (1.99969) CR ( 3) P   5           s(  0.00%)p 1.00(100.00%)
                                           -0.0000 -0.0000  0.0002 -0.0000  0.0000
                                            0.0000  0.0000 -1.0000  0.0003 -0.0000
                                            0.0000 -0.0000  0.0000  0.0000 -0.0001
                                           -0.0000 -0.0000  0.0000  0.0000  0.0000
                                            0.0000 -0.0000  0.0000  0.0000  0.0000
                                           -0.0000  0.0000  0.0000 -0.0000 -0.0000
    27. (1.99987) CR ( 4) P   5           s(  0.00%)p 1.00(100.00%)
                                           -0.0000  0.0000  0.0000 -0.0000 -0.0000
                                           -0.0000 -0.0000 -0.0000 -0.0000  0.0000
                                            0.0000  0.0000  0.0000  1.0000  0.0000
                                            0.0000  0.0000 -0.0000 -0.0000 -0.0000
                                           -0.0000  0.0000 -0.0000 -0.0000 -0.0000
                                            0.0000 -0.0000 -0.0000  0.0000  0.0000
    28. (1.99989) CR ( 5) P   5           s(  0.00%)p 1.00(100.00%)
                                           -0.0000  0.0000 -0.0000  0.0000  0.0000
                                           -0.0000 -0.0000 -0.0000 -0.0000 -0.0000
                                           -0.0000 -0.0000  0.0000 -0.0000  0.0000
                                            0.0000 -0.0000 -0.0000 -0.0000  1.0000
                                            0.0001  0.0000  0.0000  0.0000 -0.0000
                                            0.0000  0.0000  0.0000  0.0000  0.0000
    29. (1.98227) LP ( 1)Ir   1           s(  0.00%)p 1.00(  0.07%)d99.99( 99.93%)
                                           -0.0000  0.0001 -0.0000 -0.0000  0.0000
                                            0.0000  0.0000  0.0000 -0.0000  0.0000
                                           -0.0000 -0.0000  0.0000  0.0000  0.0000
                                           -0.0000  0.0010 -0.0251  0.0056 -0.0007
                                            0.0005  0.0001  0.0000  0.0000 -0.0214
                                            0.0003  0.0004  0.9987 -0.0315  0.0217
                                           -0.0000 -0.0000 -0.0000  0.0007 -0.0000
                                            0.0000
    30. (1.95427) LP ( 2)Ir   1           s(  7.09%)p 0.05(  0.34%)d13.05( 92.56%)
                                           -0.0013  0.2522 -0.0856 -0.0007  0.0013
                                            0.0005  0.0000  0.0002  0.0018  0.0006
                                           -0.0001  0.0006 -0.0560 -0.0171 -0.0018
                                           -0.0004  0.0000  0.0000 -0.0000 -0.0000
                                            0.0000  0.0018 -0.0015 -0.0016  0.0001
                                            0.0000  0.0000 -0.0007  0.0000 -0.0000
                                           -0.1485 -0.0309  0.0027  0.9500  0.0051
                                            0.0044
    31. (1.84607) LP ( 3)Ir   1           s(  0.00%)p 0.00(  0.01%)d 1.00( 99.99%)
                                            0.0000  0.0007  0.0002  0.0002 -0.0000
                                           -0.0004 -0.0002 -0.0054  0.0050 -0.0012
                                            0.0009 -0.0000  0.0008 -0.0009 -0.0006
                                            0.0000 -0.0000  0.0000 -0.0000 -0.0000
                                            0.0000  0.9998  0.0144 -0.0091 -0.0008
                                           -0.0000  0.0000 -0.0002  0.0000 -0.0000
                                            0.0047  0.0007  0.0001 -0.0012  0.0005
                                            0.0010
    32. (1.82392) LP ( 4)Ir   1           s(  0.00%)p 0.00(  0.00%)d 1.00(100.00%)
                                           -0.0000  0.0000  0.0000  0.0000 -0.0000
                                           -0.0000 -0.0000  0.0000  0.0000 -0.0000
                                            0.0000 -0.0000 -0.0000  0.0000 -0.0000
                                            0.0000  0.0001 -0.0010  0.0013  0.0004
                                           -0.0001  0.0008 -0.0000  0.0000  0.9997
                                           -0.0016 -0.0097  0.0213 -0.0029 -0.0002
                                            0.0001  0.0000 -0.0000 -0.0001 -0.0000
                                            0.0000
    33. (0.00800) LP*( 5)Ir   1           s(  0.00%)p 1.00( 95.71%)d 0.04(  4.29%)
                                           -0.0000  0.0000  0.0000 -0.0000 -0.0000
                                            0.0000 -0.0000  0.0001  0.0001 -0.0000
                                            0.0000  0.0000 -0.0001  0.0001  0.0000
                                            0.0000  0.0000  0.9758  0.0690  0.0107
                                            0.0014  0.0000 -0.0000 -0.0000  0.0010
                                            0.0185  0.0173  0.0288  0.1918  0.0681
                                            0.0000  0.0001  0.0001  0.0000  0.0001
                                            0.0000
    34. (0.00287) RY*( 1)Ir   1           s(  0.12%)p 5.12(  0.64%)d99.99( 99.24%)
                                            0.0000 -0.0028  0.0342 -0.0015  0.0018
                                            0.0078  0.0000 -0.0094 -0.0241  0.0701
                                           -0.0143  0.0000  0.0035  0.0233 -0.0050
                                            0.0031  0.0000 -0.0001 -0.0000  0.0000
                                           -0.0000  0.0116 -0.9602 -0.2641 -0.0000
                                            0.0008  0.0002  0.0000  0.0001  0.0000
                                            0.0005 -0.0034  0.0148  0.0025 -0.0161
                                           -0.0010
    35. (0.00261) RY*( 2)Ir   1           s(  0.00%)p 1.00(  0.09%)d99.99( 99.91%)
                                            0.0000 -0.0000  0.0000  0.0000  0.0000
                                           -0.0000  0.0000 -0.0000 -0.0001  0.0000
                                            0.0000  0.0000  0.0000  0.0000 -0.0000
                                            0.0000  0.0000 -0.0290  0.0039  0.0047
                                           -0.0001 -0.0000  0.0008  0.0003  0.0045
                                            0.9531  0.3001 -0.0005  0.0241  0.0076
                                           -0.0000  0.0002  0.0000  0.0000 -0.0001
                                           -0.0000
    36. (0.00140) RY*( 3)Ir   1           s( 47.28%)p 0.42( 19.78%)d 0.70( 32.94%)
                                            0.0000 -0.0325  0.6308 -0.1822  0.1987
                                            0.0336 -0.0000  0.0001 -0.0078 -0.0136
                                           -0.0018 -0.0000  0.0405  0.4287 -0.1097
                                            0.0087  0.0000 -0.0002  0.0000  0.0000
                                            0.0000 -0.0003  0.0300  0.0335  0.0000
                                           -0.0001 -0.0001 -0.0000  0.0002 -0.0001
                                            0.0009  0.2627  0.3609  0.0815 -0.0533
                                            0.3445
    37. (0.00063) RY*( 4)Ir   1           s(  0.00%)p 1.00(  4.72%)d20.19( 95.28%)
                                           -0.0000  0.0000  0.0007 -0.0004  0.0011
                                            0.0003 -0.0000 -0.0000 -0.0006 -0.0000
                                            0.0000  0.0000 -0.0001 -0.0002  0.0001
                                           -0.0001  0.0000 -0.2012 -0.0387  0.0723
                                           -0.0030  0.0000  0.0001  0.0002  0.0026
                                           -0.0495  0.0552  0.0191  0.9369  0.2630
                                           -0.0000 -0.0005 -0.0006  0.0000 -0.0020
                                           -0.0017
    38. (0.00052) RY*( 5)Ir   1           s(  1.35%)p71.02( 95.76%)d 2.14(  2.89%)
                                           -0.0000 -0.0001  0.0578 -0.0337  0.0945
                                            0.0084  0.0000 -0.0175 -0.9719  0.0906
                                            0.0533  0.0000 -0.0044 -0.0404 -0.0094
                                           -0.0068  0.0000  0.0003  0.0000 -0.0002
                                            0.0000  0.0039  0.0470 -0.0505  0.0000
                                           -0.0001 -0.0000 -0.0000 -0.0011 -0.0002
                                           -0.0021 -0.0471 -0.0523  0.0051 -0.1150
                                           -0.0767
    39. (0.00050) RY*( 6)Ir   1           s( 41.83%)p 0.28( 11.87%)d 1.11( 46.30%)
                                           -0.0000 -0.0091  0.3414 -0.1310  0.5331
                                            0.0163 -0.0000  0.0038  0.1949 -0.0208
                                           -0.0119  0.0000 -0.0273 -0.2759 -0.0508
                                           -0.0259  0.0000  0.0006 -0.0001 -0.0004
                                           -0.0000 -0.0004  0.0043  0.0073 -0.0000
                                            0.0001 -0.0002 -0.0001 -0.0025 -0.0003
                                           -0.0112 -0.1954 -0.2413  0.0221 -0.4929
                                           -0.3507
    40. (0.00017) RY*( 7)Ir   1           s( 51.73%)p 0.25( 13.03%)d 0.68( 35.24%)
[...]
 !       B8          1.433    -DE/DX =    0.0                           !
 !       B9          1.4393   -DE/DX =    0.0                           !
 !       B10         1.433    -DE/DX =    0.0                           !
 !       B11         1.0252   -DE/DX =    0.0                           !
 !       B12         1.0252   -DE/DX =    0.0                           !
 !       B13         1.0249   -DE/DX =    0.0                           !
 !       A4        121.5362   -DE/DX =    0.0                           !
 !       A5        119.2896   -DE/DX =    0.0                           !
 !       A6        121.5361   -DE/DX =    0.0                           !
 !       A7        121.1439   -DE/DX =    0.0                           !
 !       A8        120.1869   -DE/DX =    0.0                           !
 !       A9        121.1439   -DE/DX =    0.0                           !
 !       A10       110.8444   -DE/DX =    0.0001                        !
 !       A11       110.844    -DE/DX =    0.0001                        !
 !       A12       112.9996   -DE/DX =    0.0                           !
 !       D3         61.0154   -DE/DX =    0.0                           !
 !       D4        118.9836   -DE/DX =    0.0                           !
 !       D5        118.9835   -DE/DX =    0.0                           !
 !       D6       -119.4499   -DE/DX =    0.0                           !
 !       D7         -0.0002   -DE/DX =    0.0                           !
 !       D8        119.4496   -DE/DX =    0.0                           !
 !       D9        120.0139   -DE/DX =    0.0                           !
 !       D10      -120.007    -DE/DX =    0.0                           !
 !       D11         0.0034   -DE/DX =    0.0                           !
 !       A1         90.0      -DE/DX =    0.001                         !
 !       A2         90.0      -DE/DX =    0.0263                        !
 !       A3         90.0      -DE/DX =    0.0255                        !
 !       D1        180.0      -DE/DX =    0.0                           !
 !       D2       -180.0      -DE/DX =    0.0                           !
 ------------------------------------------------------------------------
 GradGradGradGradGradGradGradGradGradGradGradGradGradGradGradGradGradGrad


 ----------------------------------------------------------------------

 Electric dipole moment (input orientation):
 (Debye = 10**-18 statcoulomb cm , SI units = C m)
                  (au)            (Debye)         (10**-30 SI)
   Tot        0.178216D+01      0.452979D+01      0.151097D+02
   x         -0.191458D-01     -0.486637D-01     -0.162325D+00
   y         -0.110174D-03     -0.280033D-03     -0.934091D-03
   z         -0.178205D+01     -0.452953D+01     -0.151089D+02

 Dipole polarizability, Alpha (input orientation).
 (esu units = cm**3 , SI units = C**2 m**2 J**-1)
 Alpha(0;0):
               (au)            (10**-24 esu)      (10**-40 SI)
   iso        0.130461D+03      0.193324D+02      0.215102D+02
   aniso      0.722513D+02      0.107065D+02      0.119126D+02
   xx         0.178334D+03      0.264263D+02      0.294033D+02
   yx         0.786592D-03      0.116561D-03      0.129692D-03
   yy         0.101924D+03      0.151036D+02      0.168050D+02
   zx        -0.296775D+00     -0.439775D-01     -0.489315D-01
   zy         0.186677D-02      0.276626D-03      0.307788D-03
   zz         0.111127D+03      0.164673D+02      0.183223D+02

 ----------------------------------------------------------------------

 Dipole orientation:
    77         -0.00000000          0.00000000         -0.00000000
     1         -0.03244044          0.00018668         -3.01949684
    15          4.24683854          0.00000141         -0.04562658
     7          0.04620173         -0.00026587          4.30037259
    15         -4.25401671         -0.00000141          0.04570370
     1          5.65091585          2.02236088         -1.17326564
     1          5.60467512         -0.00720338          2.31469749
     1          5.65077284         -2.01568652         -1.18528342
     1         -5.66672345         -2.01925380         -1.07687846
     1         -5.59643861          0.00213359          2.41120584
     1         -5.66679973          2.01721655         -1.08046867
     1         -0.85313243          1.56755985          4.99769288
     1         -0.85278815         -1.56837813          4.99749338
     1          1.83603142         -0.00019074          5.04047321

 Electric dipole moment (dipole orientation):
 (Debye = 10**-18 statcoulomb cm , SI units = C m)
                  (au)            (Debye)         (10**-30 SI)
   Tot        0.178216D+01      0.452979D+01      0.151097D+02
   x          0.000000D+00      0.000000D+00      0.000000D+00
   y          0.000000D+00      0.000000D+00      0.000000D+00
   z          0.178216D+01      0.452979D+01      0.151097D+02

 Dipole polarizability, Alpha (dipole orientation).
 (esu units = cm**3 , SI units = C**2 m**2 J**-1)
 Alpha(0;0):
               (au)            (10**-24 esu)      (10**-40 SI)
   iso        0.130461D+03      0.193324D+02      0.215102D+02
   aniso      0.722513D+02      0.107065D+02      0.119126D+02
   xx         0.178332D+03      0.264261D+02      0.294030D+02
   yx        -0.765576D-03     -0.113447D-03     -0.126226D-03
   yy         0.101924D+03      0.151036D+02      0.168050D+02
   zx        -0.425261D+00     -0.630172D-01     -0.701161D-01
   zy         0.130625D-02      0.193566D-03      0.215371D-03
   zz         0.111128D+03      0.164675D+02      0.183225D+02

 ----------------------------------------------------------------------
 Unable to Open any file for archive entry.
 1\1\GINC-NODE001\Freq\RPBEPBE\GenECP\H10Ir1N1P2\MVANVLEET\30-May-2024\
 1\\#N Geom=AllCheck Guess=TCheck SCRF=Check GenChk RPBEPBE/GenECP Freq
 \\trans-(H)Ir(PH3)2(NH3)\\0,1\Ir\H,1,B1\P,1,B2,2,A1\N,1,B3,3,A2,2,D1,0
 \P,1,B4,4,A3,3,D2,0\H,3,B5,1,A4,2,D3,0\H,3,B6,1,A5,6,D4,0\H,3,B7,1,A6,
 7,D5,0\H,5,B8,1,A7,7,D6,0\H,5,B9,1,A8,7,D7,0\H,5,B10,1,A9,7,D8,0\H,4,B
 11,1,A10,3,D9,0\H,4,B12,1,A11,3,D10,0\H,4,B13,1,A12,3,D11,0\\B1=1.5979
 4114\B2=2.24745987\B3=2.27579051\B4=2.25125861\B5=1.43298031\B6=1.4409
 6634\B7=1.43297115\B8=1.4330165\B9=1.43929407\B10=1.43302404\B11=1.025
 17552\B12=1.02517569\B13=1.02491657\A4=121.53018759\A5=119.2951078\A6=
 121.53003391\A7=121.14422002\A8=120.19043227\A9=121.1449369\A10=110.78
 647552\A11=110.78641083\A12=113.08080195\D3=61.18147763\D4=118.9888190
 7\D5=118.98235535\D6=-119.22409699\D7=0.22588272\D8=119.6737889\D9=120
 .04284076\D10=-120.03020104\D11=0.00390615\A1=90.\A2=90.\A3=90.\D1=180
 .\D2=-180.\\Version=ES64L-G16RevC.01\State=1-A\HF=-847.5476807\RMSD=5.
 967e-09\RMSF=2.256e-03\ZeroPoint=0.0984594\Thermal=0.1076393\ETot=-847
 .4400413\HTot=-847.4390972\GTot=-847.4847108\Dipole=-0.0191458,-0.0001
 102,-1.7820528\DipoleDeriv=-2.149538,-0.0003034,0.0174734,0.0002048,-0
 .7818571,0.0002331,-0.0079909,0.000089,-0.1075728,0.1957136,0.0000625,
 -0.001667,-0.000143,0.0070235,-0.0000997,0.0000306,-0.0000067,-0.39869
 39,1.8864878,0.0000663,0.0461192,0.0001476,0.3974018,-0.0004347,0.0285
 065,-0.0001953,0.6958797,0.0489121,0.0000094,-0.013273,-0.0001812,0.04
 27362,-0.0000229,-0.009549,-0.0000181,-0.5728797,1.8835459,-0.0000038,
 -0.054361,0.0000118,0.3895181,0.000028,-0.0388108,-0.0000025,0.6781087
 ,-0.3644176,0.0791348,-0.0485845,0.1098289,-0.0803974,0.0257528,-0.057
 2804,0.0251014,-0.0746724,-0.3547528,-0.0002773,0.0390293,-0.000365,-0
 .0609831,0.0002441,0.1686058,0.0002901,-0.2121677,-0.3640641,-0.078737
 1,-0.0489807,-0.1094409,-0.0800785,-0.0257603,-0.0578005,-0.0252068,-0
 .0750693,-0.3632341,0.0784973,0.0483669,0.11067,-0.0784605,-0.025761,0
 .0577478,-0.0269672,-0.0760044,-0.3652842,-0.0001222,-0.0509555,-0.000
 1243,-0.0611606,-0.0000804,-0.1496655,-0.0000854,-0.1868814,-0.3631329
 ,-0.0783166,0.04853,-0.1105405,-0.0783611,0.025797,0.057921,0.0269916,
 -0.0761264,0.1202272,-0.0141008,-0.0668149,-0.0249553,0.1259486,-0.107
 6796,0.0193951,0.0523102,0.1330696,0.1203085,0.0140852,-0.0668197,0.02
 49262,0.1259597,0.1077429,0.0194423,-0.0523117,0.1329961,0.0692286,0.0
 000057,0.1519375,-0.000039,0.1327105,0.0000406,-0.0305519,0.0000113,0.
 1400139\Polar=178.3338127,0.0007866,101.9238555,-0.2967748,0.0018668,1
 11.1266226\Quadrupole=3.3851972,-5.4606568,2.0754596,-0.0005117,0.1000
 324,0.0003164\PG=C01 [X(H10Ir1N1P2)]\NImag=1\\0.26589023,0.00002943,0.
 10067802,0.00042855,-0.00001288,0.26288844,-0.03625890,-0.00000528,0.0
 0002191,0.02513892,0.00000113,-0.02411216,0.00000431,-0.00000086,0.012
 28206,0.00005896,-0.00000244,-0.16168530,-0.00016449,0.00000435,0.1814
 2227,-0.09032742,-0.00000463,-0.00643647,-0.00034585,-0.00000084,-0.00
 032220,0.33757765,-0.00001315,-0.02804902,0.00000509,-0.00000293,0.000
 08790,-0.00000092,0.00000756,0.26704305,-0.01069402,0.00000742,-0.0361
 4319,0.00888334,-0.00001190,-0.00166122,0.01373830,0.00002527,0.284344
 00,-0.02052247,-0.00000469,0.00074071,0.00714948,-0.00000092,0.0004205
 5,-0.00667372,-0.00000872,-0.00286916,0.63038294,-0.00000666,-0.029731
 62,0.00000537,-0.00000095,0.00967970,-0.00000025,-0.00000317,0.0042410
 3,0.00000778,0.00002075,0.62491874,-0.00218070,0.00000290,-0.02549309,
 0.00025602,-0.00000177,-0.01452528,-0.00084958,-0.00000075,-0.00645176
 ,-0.01104653,-0.00000065,0.26310244,-0.08876569,0.00000297,0.00582104,
 -0.00040567,-0.00000050,0.00035846,-0.04227829,-0.00000156,0.00051494,
 -0.00598473,0.00000144,0.00131741,0.33611044,-0.00000455,-0.02776913,-
 0.00000415,-0.00000004,0.00006303,-0.00000007,0.00000043,0.00401775,0.
 00000129,-0.00000463,0.00341400,0.00000261,-0.00000308,0.26677494,0.01
 044056,0.00000522,-0.03761273,-0.00876595,0.00000009,-0.00160658,-0.00
 035437,-0.00000291,0.00835237,0.00298101,0.00000026,-0.00523880,-0.011
 93717,-0.00000338,0.28541885,-0.00462177,0.01041516,-0.00715689,0.0009
 8560,0.00027200,0.00061545,-0.06981217,0.07183413,-0.03868402,-0.00030
 238,-0.00002338,0.00000462,0.00113233,-0.00362848,0.00161359,0.0683784
 7,0.00284110,0.00092329,-0.00011305,-0.00011738,0.00031188,0.00009987,
 0.06060372,-0.11197023,0.04840070,-0.00017794,-0.00034167,-0.00018536,
 -0.00120907,0.00089122,-0.00016031,-0.06740981,0.12318862,-0.00076075,
 -0.00037819,0.00192705,-0.00067333,-0.00015045,0.00025589,-0.03281178,
 0.04827314,-0.05263471,-0.00030203,0.00014695,0.00018826,0.00066894,-0
 .00009710,0.00005765,0.03705310,-0.05486370,0.05408749,-0.00479226,-0.
 00003325,0.01489350,-0.00016620,0.00000093,-0.00027058,-0.06441011,-0.
 00022200,0.07184646,0.00133506,0.00000377,0.00156589,0.00058593,0.0000
 0847,-0.00402356,0.00308630,-0.00056105,-0.00697802,0.06289346,-0.0000
 1009,0.00304413,0.00000166,0.00000206,-0.00037053,0.00000174,-0.000181
 89,-0.02594892,0.00032705,0.00000257,-0.00067580,0.00000267,0.00000313
 ,0.00027101,-0.00000362,-0.00583973,0.00015621,0.01315622,0.00020591,0
 .02373851,0.00650318,0.00000208,0.00018834,-0.00086340,0.00000082,0.00
 050888,0.05851486,0.00032710,-0.13933643,-0.00261374,-0.00000313,0.002
 06166,-0.00207445,-0.00000259,0.00004476,0.00307668,0.00045386,-0.0083
 0335,-0.06892023,-0.00037977,0.15240744,-0.00464344,-0.01039183,-0.007
 21062,0.00099919,-0.00027200,0.00061451,-0.06981302,-0.07160366,-0.039
 10083,-0.00030234,0.00002310,0.00000492,0.00112747,0.00362146,0.001625
 36,0.00329776,0.00577640,0.00364968,0.00308669,0.00582050,0.00311303,0
 .06838772,-0.00283286,0.00092783,0.00011379,0.00012230,0.00030937,-0.0
 0010246,-0.06042704,-0.11142019,-0.04875429,0.00018357,-0.00034172,0.0
 0018741,0.00120379,0.00088802,0.00016185,-0.00579703,-0.01291625,-0.00
 633632,0.00060162,0.00023683,-0.00040334,0.06720061,0.12255763,-0.0007
 6714,0.00037085,0.00192871,-0.00067278,0.00015628,0.00025990,-0.033171
 01,-0.04862928,-0.05321823,-0.00030497,-0.00015368,0.00019283,0.000674
 68,0.00010148,0.00005449,0.00361529,0.00623836,0.00399010,-0.00697559,
 -0.01310610,-0.00838267,0.03744419,0.05526746,0.05473959,-0.00477433,0
 .01033624,0.00732084,0.00101424,0.00027232,-0.00060664,0.00119959,-0.0
 0363096,-0.00168352,-0.00041299,0.00002399,-0.00001535,-0.06868709,0.0
 7116487,0.03901447,0.00027005,0.00012422,-0.00002822,0.00000879,0.0000
 6672,0.00014049,-0.00196878,-0.00009267,0.00004477,0.06735251,0.002840
 73,0.00084605,0.00009770,-0.00013161,0.00030337,-0.00010228,-0.0012269
 9,0.00090951,0.00018010,-0.00023355,-0.00021910,0.00014479,0.05988168,
 -0.11152520,-0.04939556,0.00012069,-0.00012076,0.00002741,0.00004840,-
 0.00002884,-0.00008375,0.00009638,-0.00020271,-0.00002261,-0.06657336,
 0.12276308,0.00096019,0.00035749,0.00195101,0.00063664,0.00017252,0.00
 025345,-0.00070716,0.00007515,0.00008887,0.00052167,-0.00016693,0.0002
 5186,0.03309712,-0.04953747,-0.05393166,0.00002838,-0.00002554,-0.0000
 1852,0.00010158,0.00001137,0.00000263,-0.00003075,-0.00001364,-0.00004
 035,-0.03729043,0.05604590,0.05547796,-0.00458709,-0.00000807,-0.01535
 046,-0.00015616,0.00000038,0.00028898,0.00068231,0.00000197,0.00391638
 ,0.00230483,-0.00000019,-0.00056182,-0.06699381,-0.00007548,-0.0738425
 5,-0.00001920,0.00005178,-0.00009068,-0.00176104,-0.00000096,0.0002138
 1,-0.00001508,-0.00005207,-0.00009103,0.00316973,-0.00058316,0.0068655
 4,0.06514938,-0.00000351,0.00305228,-0.00000119,0.00000079,-0.00027249
 ,-0.00000047,0.00000133,0.00023471,0.00000175,0.00000116,-0.00047643,-
 0.00000024,-0.00006081,-0.02623821,-0.00010582,0.00006396,-0.00002864,
 -0.00001158,-0.00000033,-0.00010798,-0.00000016,-0.00006362,-0.0000290
 4,0.00001119,-0.00607965,0.00014710,-0.01321938,0.00006912,0.02387891,
 -0.00576664,-0.00000099,0.00151556,0.00078064,0.00000041,0.00044294,0.
 00181014,0.00000078,-0.00012696,0.00120915,0.00000049,0.00107587,-0.06
 068237,-0.00010658,-0.13898061,-0.00012019,0.00006691,0.00000335,-0.00
 004709,0.00000049,0.00016081,-0.00012071,-0.00006766,0.00000318,-0.003
 25709,-0.00047345,-0.00839595,0.07103035,0.00012307,0.15210841,-0.0047
 8190,-0.01033403,0.00733306,0.00101961,-0.00027214,-0.00060611,0.00119
 866,0.00363208,-0.00168417,-0.00041313,-0.00002357,-0.00001470,-0.0686
 8882,-0.07108267,0.03914674,-0.00196991,0.00009241,0.00004540,0.000013
 94,-0.00006658,0.00014072,0.00026727,-0.00012399,-0.00002785,0.0031809
 7,0.00567538,-0.00362500,0.00316978,0.00607250,-0.00326881,0.06735565,
 -0.00283789,0.00084718,-0.00009884,0.00013327,0.00030263,0.00010306,0.
 00122515,0.00090864,-0.00017940,0.00023625,-0.00021904,-0.00014536,-0.
 05981890,-0.11133468,0.04950446,-0.00009656,-0.00020293,0.00002179,-0.
 00004902,-0.00002951,0.00008467,-0.00012056,-0.00011930,-0.00002771,-0
 .00568184,-0.01286460,0.00639892,0.00059631,0.00017334,0.00045699,0.06
 650049,0.12254634,0.00096255,-0.00035543,0.00195178,0.00063631,-0.0001
 7366,0.00025497,-0.00070947,-0.00007707,0.00008772,0.00052290,0.000167
 12,0.00025247,0.03321031,0.04964625,-0.05412468,-0.00003053,0.00001387
 ,-0.00004059,0.00010220,-0.00001085,0.00000245,0.00002767,0.00002559,-
 0.00001773,-0.00361362,-0.00636620,0.00408437,0.00686440,0.01320279,-0
 .00842174,-0.03741370,-0.05617120,0.05569400,-0.00077124,-0.00019562,-
 0.00110751,0.00029263,0.00045797,0.00014993,0.00016476,-0.00027542,0.0
 0007180,-0.13139983,-0.12824316,-0.05142206,0.00113172,0.00046883,0.00
 183894,-0.00010505,-0.00002311,-0.00009444,0.00006416,-0.00003335,-0.0
 0000084,-0.00014107,0.00001542,-0.00015816,-0.00013288,0.00005794,-0.0
 0035898,-0.00046385,-0.00016153,-0.00065613,-0.00009054,-0.00006177,-0
 .00020608,0.13742241,0.00073652,-0.00027875,-0.00222168,-0.00001425,0.
 00062096,0.00041285,0.00042567,-0.00017730,-0.00048938,-0.12835980,-0.
 27684030,-0.09027961,-0.00085509,0.00040619,-0.00050396,-0.00005587,0.
 00000469,0.00009099,-0.00006459,-0.00002398,0.00016411,-0.00014231,0.0
 0005528,-0.00000362,0.00014755,-0.00005555,0.00008900,0.00034496,-0.00
 013564,-0.00004420,0.00011868,0.00004195,0.00016252,0.14191477,0.29779
 540,-0.00298078,-0.01062437,-0.00395854,0.00104401,0.00320547,-0.00124
 849,-0.00070981,0.00101673,-0.00015544,-0.07203970,-0.12513614,-0.0678
 4687,-0.00090726,0.00071165,-0.00105194,-0.00005166,-0.00012755,0.0000
 0105,0.00014155,-0.00012267,-0.00017522,0.00005189,-0.00005702,-0.0000
 6832,-0.00008837,-0.00016505,0.00016352,0.00053956,-0.00016883,0.00040
 321,0.00000356,-0.00004319,0.00014816,0.05951917,0.10592509,0.07056602
 ,-0.00077000,0.00019679,-0.00110789,0.00029287,-0.00045762,0.00015012,
 0.00016669,0.00027145,0.00006818,-0.13134231,0.12820866,-0.05140238,0.
 00112908,-0.00046739,0.00183686,-0.00014185,-0.00001389,-0.00015696,0.
 00006238,0.00003390,0.00000039,-0.00010455,0.00002434,-0.00009343,-0.0
 0009053,0.00006110,-0.00020515,-0.00046341,0.00016080,-0.00065506,-0.0
 0013297,-0.00005842,-0.00035858,0.00958005,-0.01663864,0.00695087,0.13
 736236,-0.00073735,-0.00028089,0.00222222,0.00001429,0.00062139,-0.000
 41299,-0.00042449,-0.00017805,0.00048824,0.12832517,-0.27689271,0.0902
 8691,0.00085575,0.00040887,0.00050414,0.00014310,0.00005507,0.00000507
 ,0.00006389,-0.00002280,-0.00016329,0.00005620,0.00000470,-0.00009087,
 -0.00011860,0.00004166,-0.00016242,-0.00034475,-0.00013609,0.00004396,
 -0.00014743,-0.00005605,-0.00008917,0.01663247,-0.02268949,0.01248823,
 -0.14188011,0.29785411,-0.00297781,0.01062638,-0.00395665,0.00104416,-
 0.00320668,-0.00124834,-0.00071008,-0.00101874,-0.00015943,-0.07201420
 ,0.12514919,-0.06784422,-0.00090631,-0.00071274,-0.00105047,0.00005223
 ,0.00005766,-0.00006763,0.00014140,0.00012328,-0.00017416,-0.00005253,
 0.00012778,0.00000213,0.00000365,0.00004367,0.00014710,0.00053877,0.00
 016908,0.00040244,-0.00008844,0.00016544,0.00016307,0.00694842,-0.0124
 8994,0.00130027,0.05949553,-0.10593587,0.07056265,-0.00027371,-0.00000
 317,0.00181022,0.00044025,0.00000016,-0.00068694,0.00267092,0.00001120
 ,-0.00432369,-0.34381840,0.00001937,0.11434425,0.00058713,0.00000227,0
 .00042607,-0.00017819,0.00002263,0.00047912,-0.00000709,-0.00000219,0.
 00276950,-0.00017781,-0.00002600,0.00048305,-0.00012928,-0.00003363,0.
 00000634,-0.00001639,-0.00000021,-0.00025618,-0.00012860,0.00003349,0.
 00000564,-0.01555127,0.00244240,0.00852698,-0.01554780,-0.00243814,0.0
 0852523,0.37213024,-0.00000284,-0.00009724,0.00000165,0.00000060,0.000
 17288,0.00000001,0.00000519,0.00030112,-0.00000462,0.00002080,-0.05651
 508,-0.00001356,0.00000024,-0.00026782,-0.00000046,0.00000182,0.000049
 50,0.00011578,-0.00000276,-0.00023834,0.00000340,-0.00000067,0.0000495
 4,-0.00011175,0.00004117,0.00000599,-0.00002497,0.00000018,-0.00006182
 ,-0.00000023,-0.00004114,0.00000602,0.00002544,-0.03055343,0.00127653,
 0.01309765,0.03055904,0.00127028,-0.01309852,-0.00002818,0.05404845,0.
 00677387,0.00000194,-0.00350141,-0.00216308,0.00000021,-0.00142308,0.0
 0271864,0.00000642,-0.00298559,0.15479433,-0.00001639,-0.07972537,0.00
 084465,0.00000081,-0.00033064,-0.00001605,0.00014428,0.00055396,-0.001
 57751,-0.00000149,0.00099485,-0.00001580,-0.00014913,0.00055637,0.0000
 5901,0.00006933,-0.00003429,-0.00032125,-0.00000023,-0.00019051,0.0000
 5931,-0.00006963,-0.00003426,-0.01452406,-0.00081217,0.00192259,-0.014
 52249,0.00081584,0.00192324,-0.13210958,0.00001019,0.08227414\\-0.0005
 0178,0.00001396,0.01190669,0.00027174,-0.00000227,0.00000823,0.0000419
 1,-0.00002164,-0.00596731,0.00021376,-0.00000732,-0.00000046,0.0000008
 8,0.00000773,-0.00600539,-0.00000334,-0.00000169,-0.00000491,0.0000031
 9,0.00001182,0.00000415,-0.00000347,0.00000675,0.00000182,0.00000047,-
 0.00000105,-0.00000150,-0.00000706,-0.00000400,-0.00000217,-0.00000373
 ,-0.00000245,0.00000117,0.00000054,-0.00000946,0.00003855,0.00000535,0
 .00000850,0.00003731,-0.00001846,0.00000113,-0.00001619\\\@
 The archive entry for this job was punched.


 SUCCESS IS NEVER CERTAIN,
 FAILURE IS NEVER FINAL.
 Job cpu time:       0 days  0 hours 15 minutes 59.5 seconds.
 Elapsed time:       0 days  0 hours  0 minutes 24.3 seconds.
 File lengths (MBytes):  RWF=     56 Int=      0 D2E=      0 Chk=      4 Scr=      1
 Normal termination of Gaussian 16 at Thu May 30 17:24:23 2024.
