 Entering Gaussian System, Link 0=/cm/shared/apps//g16/g16
 Input=trans-pyridonate_Ir_PH3_2_NH3.gjf
 Output=trans-pyridonate_Ir_PH3_2_NH3.log
 Initial command:
 /cm/shared/apps//g16/l1.exe "/local/mvanvleet/pbs.15332.josephine/Gau-24934.inp" -scrdir="/local/mvanvleet/pbs.15332.josephine/"
 Entering Link 1 = /cm/shared/apps//g16/l1.exe PID=     24939.
  
 Copyright (c) 1988-2019, Gaussian, Inc.  All Rights Reserved.
  
 This is part of the Gaussian(R) 16 program.  It is based on
 the Gaussian(R) 09 system (copyright 2009, Gaussian, Inc.),
 the Gaussian(R) 03 system (copyright 2003, Gaussian, Inc.),
 the Gaussian(R) 98 system (copyright 1998, Gaussian, Inc.),
 the Gaussian(R) 94 system (copyright 1995, Gaussian, Inc.),
 the Gaussian 92(TM) system (copyright 1992, Gaussian, Inc.),
 the Gaussian 90(TM) system (copyright 1990, Gaussian, Inc.),
 the Gaussian 88(TM) system (copyright 1988, Gaussian, Inc.),
 the Gaussian 86(TM) system (copyright 1986, Carnegie Mellon
 University), and the Gaussian 82(TM) system (copyright 1983,
 Carnegie Mellon University). Gaussian is a federally registered
 trademark of Gaussian, Inc.
  
 This software contains proprietary and confidential information,
 including trade secrets, belonging to Gaussian, Inc.
  
 This software is provided under written license and may be
 used, copied, transmitted, or stored only in accord with that
 written license.
  
 The following legend is applicable only to US Government
 contracts under FAR:
  
                    RESTRICTED RIGHTS LEGEND
  
 Use, reproduction and disclosure by the US Government is
 subject to restrictions as set forth in subparagraphs (a)
 and (c) of the Commercial Computer Software - Restricted
 Rights clause in FAR 52.227-19.
  
 Gaussian, Inc.
 340 Quinnipiac St., Bldg. 40, Wallingford CT 06492
  
  
 ---------------------------------------------------------------
 Warning -- This program may not be used in any manner that
 competes with the business of Gaussian, Inc. or will provide
 assistance to any competitor of Gaussian, Inc.  The licensee
 of this program is prohibited from giving any competitor of
 Gaussian, Inc. access to this program.  By using this program,
 the user acknowledges that Gaussian, Inc. is engaged in the
 business of creating and licensing software in the field of
 computational chemistry and represents and warrants to the
 licensee that it is not a competitor of Gaussian, Inc. and that
 it will not use this program in any manner prohibited above.
 ---------------------------------------------------------------
  

 Cite this work as:
 Gaussian 16, Revision C.01,
 M. J. Frisch, G. W. Trucks, H. B. Schlegel, G. E. Scuseria, 
 M. A. Robb, J. R. Cheeseman, G. Scalmani, V. Barone, 
 G. A. Petersson, H. Nakatsuji, X. Li, M. Caricato, A. V. Marenich, 
 J. Bloino, B. G. Janesko, R. Gomperts, B. Mennucci, H. P. Hratchian, 
 J. V. Ortiz, A. F. Izmaylov, J. L. Sonnenberg, D. Williams-Young, 
 F. Ding, F. Lipparini, F. Egidi, J. Goings, B. Peng, A. Petrone, 
 T. Henderson, D. Ranasinghe, V. G. Zakrzewski, J. Gao, N. Rega, 
 G. Zheng, W. Liang, M. Hada, M. Ehara, K. Toyota, R. Fukuda, 
 J. Hasegawa, M. Ishida, T. Nakajima, Y. Honda, O. Kitao, H. Nakai, 
 T. Vreven, K. Throssell, J. A. Montgomery, Jr., J. E. Peralta, 
 F. Ogliaro, M. J. Bearpark, J. J. Heyd, E. N. Brothers, K. N. Kudin, 
 V. N. Staroverov, T. A. Keith, R. Kobayashi, J. Normand, 
 K. Raghavachari, A. P. Rendell, J. C. Burant, S. S. Iyengar, 
 J. Tomasi, M. Cossi, J. M. Millam, M. Klene, C. Adamo, R. Cammi, 
 J. W. Ochterski, R. L. Martin, K. Morokuma, O. Farkas, 
 J. B. Foresman, and D. J. Fox, Gaussian, Inc., Wallingford CT, 2019.
 
 ******************************************
 Gaussian 16:  ES64L-G16RevC.01  3-Jul-2019
                 3-Jun-2024 
 ******************************************
 %nprocshared=48
 Will use up to   48 processors via shared memory.
 %chk=trans-pyridonate_Ir_PH3_2_NH3.chk
 %mem=16GB
 --------------------
 # PBEPBE GenECP POpt
 --------------------
 1/10=7,26=3,38=1/1,3;
 2/12=2,17=6,18=5,29=3,40=1/2;
 3/5=7,11=2,16=1,17=8,25=1,30=1,71=1,74=1009/1,2,3;
 4//1;
 5/5=2,38=5/2;
 6/7=2,8=2,9=2,10=2,28=1/1;
 7/29=1/1,2,3,16;
 1/10=7,26=3/3(2);
 2/29=3/2;
 99//99;
 2/29=3/2;
 3/5=7,6=1,11=2,16=1,17=8,25=1,30=1,71=1,74=1009,82=7/1,2,3;
 4/5=5,16=3,69=1/1;
 5/5=2,38=5/2;
 7//1,2,3,16;
 1/26=3/3(-5);
 2/29=3/2;
 6/7=2,8=2,9=2,10=2,19=2,28=1/1;
 99/9=1/99;
 ----------------------
 trans-(H)Ir(PH3)2(NH3)
 ----------------------
 Symbolic Z-matrix:
 Charge =  0 Multiplicity = 1
 Ir                   1
 N                    1    B1
 P                    1    B2       2    A1
 N                    1    B3       3    A2       2    D1       0
 P                    1    B4       2    A3       3    D2       0
 H                    3    B5       1    A4       2    D3       0
 H                    3    B6       1    A5       2    D4       0
 H                    3    B7       1    A6       2    D5       0
 H                    5    B8       1    A7       2    D6       0
 H                    5    B9       1    A8       2    D7       0
 H                    5    B10      1    A9       2    D8       0
 H                    4    B11      1    A10      5    D9       0
 H                    4    B12      1    A11      5    D10      0
 H                    4    B13      1    A12      5    D11      0
 C                    3    B14      1    A13      2    D12      0
 C                    15   B15      2    A14      1    D13      0
 C                    16   B16      15   A15      2    D14      0
 C                    17   B17      16   A16      15   D15      0
 C                    2    B18      1    A17      3    D16      0
 H                    15   B19      2    A18      1    D17      0
 H                    16   B20      15   A19      2    D18      0
 O                    17   B21      16   A20      15   D19      0
 H                    18   B22      17   A21      16   D20      0
 H                    19   B23      2    A22      1    D21      0
       Variables:
  B1                    2.104                    
  B2                    2.264                    
  B3                    2.227                    
  B4                    2.27                     
  B5                    1.431                    
  B6                    1.437                    
  B7                    1.431                    
  B8                    1.431                    
  B9                    1.435                    
  B10                   1.431                    
  B11                   1.027                    
  B12                   1.027                    
  B13                   1.027                    
  B14                   2.994                    
  B15                   1.395                    
  B16                   1.395                    
  B17                   1.395                    
  B18                   1.395                    
  B19                   1.087                    
  B20                   1.087                    
  B21                   1.087                    
  B22                   1.087                    
  B23                   1.087                    
  A4                  120.705                    
  A5                  118.798                    
  A6                  120.72                     
  A7                  120.114                    
  A8                  120.136                    
  A9                  120.119                    
  A10                 111.517                    
  A11                 111.521                    
  A12                 113.183                    
  A13                  69.4                      
  A14                 119.984                    
  A15                 120.                       
  A16                 120.                       
  A17                 119.99                     
  A18                 120.009                    
  A19                 120.                       
  A20                 120.                       
  A21                 120.                       
  A22                 119.984                    
  D3                   60.7                      
  D4                  180.                       
  D5                  299.2                      
  D6                   60.                       
  D7                  179.9                      
  D8                  299.9                      
  D9                  299.8                      
  D10                  60.3                      
  D11                 180.                       
  D14                 359.                       
  D16                 179.5                      
  D17                 359.1                      
  D18                 179.                       
  D19                 180.                       
  D20                 180.                       
  D21                   0.9                      
       Constants:
  A1                   90.                       
  A2                   90.                       
  A3                   90.                       
  D1                  180.                       
  D2                 -180.                       
  D13                 180.                       
  D15                 360.                       
  D12                   0.                       
 

 GradGradGradGradGradGradGradGradGradGradGradGradGradGradGradGradGradGrad
 Berny optimization.
 Initialization pass.
                       ----------------------------
                       !    Initial Parameters    !
                       ! (Angstroms and Degrees)  !
 ----------------------                            ----------------------
 !      Name          Value   Derivative information (Atomic Units)     !
 ------------------------------------------------------------------------
 !       B1          2.104    estimate D2E/DX2                          !
 !       B2          2.264    estimate D2E/DX2                          !
 !       B3          2.227    estimate D2E/DX2                          !
 !       B4          2.27     estimate D2E/DX2                          !
 !       B5          1.431    estimate D2E/DX2                          !
 !       B6          1.437    estimate D2E/DX2                          !
 !       B7          1.431    estimate D2E/DX2                          !
 !       B8          1.431    estimate D2E/DX2                          !
 !       B9          1.435    estimate D2E/DX2                          !
 !       B10         1.431    estimate D2E/DX2                          !
 !       B11         1.027    estimate D2E/DX2                          !
 !       B12         1.027    estimate D2E/DX2                          !
 !       B13         1.027    estimate D2E/DX2                          !
 !       B14         2.994    estimate D2E/DX2                          !
 !       B15         1.395    estimate D2E/DX2                          !
 !       B16         1.395    estimate D2E/DX2                          !
 !       B17         1.395    estimate D2E/DX2                          !
 !       B18         1.395    estimate D2E/DX2                          !
 !       B19         1.087    estimate D2E/DX2                          !
 !       B20         1.087    estimate D2E/DX2                          !
 !       B21         1.087    estimate D2E/DX2                          !
 !       B22         1.087    estimate D2E/DX2                          !
 !       B23         1.087    estimate D2E/DX2                          !
 !       A4        120.705    estimate D2E/DX2                          !
 !       A5        118.798    estimate D2E/DX2                          !
 !       A6        120.72     estimate D2E/DX2                          !
 !       A7        120.114    estimate D2E/DX2                          !
 !       A8        120.136    estimate D2E/DX2                          !
 !       A9        120.119    estimate D2E/DX2                          !
 !       A10       111.517    estimate D2E/DX2                          !
 !       A11       111.521    estimate D2E/DX2                          !
 !       A12       113.183    estimate D2E/DX2                          !
 !       A13        69.4      estimate D2E/DX2                          !
 !       A14       119.984    estimate D2E/DX2                          !
 !       A15       120.0      estimate D2E/DX2                          !
 !       A16       120.0      estimate D2E/DX2                          !
 !       A17       119.99     estimate D2E/DX2                          !
 !       A18       120.009    estimate D2E/DX2                          !
 !       A19       120.0      estimate D2E/DX2                          !
 !       A20       120.0      estimate D2E/DX2                          !
 !       A21       120.0      estimate D2E/DX2                          !
 !       A22       119.984    estimate D2E/DX2                          !
 !       D3         60.7      estimate D2E/DX2                          !
 !       D4        180.0      estimate D2E/DX2                          !
 !       D5        299.2      estimate D2E/DX2                          !
 !       D6         60.0      estimate D2E/DX2                          !
 !       D7        179.9      estimate D2E/DX2                          !
 !       D8        299.9      estimate D2E/DX2                          !
 !       D9        299.8      estimate D2E/DX2                          !
 !       D10        60.3      estimate D2E/DX2                          !
 !       D11       180.0      estimate D2E/DX2                          !
 !       D14       359.0      estimate D2E/DX2                          !
 !       D16       179.5      estimate D2E/DX2                          !
 !       D17       359.1      estimate D2E/DX2                          !
 !       D18       179.0      estimate D2E/DX2                          !
 !       D19       180.0      estimate D2E/DX2                          !
 !       D20       180.0      estimate D2E/DX2                          !
 !       D21         0.9      estimate D2E/DX2                          !
 !       A1         90.0      Frozen                                    !
 !       A2         90.0      Frozen                                    !
 !       A3         90.0      Frozen                                    !
 !       D1        180.0      Frozen                                    !
 !       D2       -180.0      Frozen                                    !
 !       D13       180.0      Frozen                                    !
 !       D15       360.0      Frozen                                    !
 !       D12         0.0      Frozen                                    !
 ------------------------------------------------------------------------
 Trust Radius=3.00D-01 FncErr=1.00D-07 GrdErr=1.00D-06 EigMax=2.50D+02 EigMin=1.00D-04
 Number of steps in this run=     76 maximum allowed number of steps=    132.
 GradGradGradGradGradGradGradGradGradGradGradGradGradGradGradGradGradGrad

 ---------------------------------------------------------------------------------------------------
                            Z-MATRIX (ANGSTROMS AND DEGREES)
   CD    Cent   Atom    N1       Length/X        N2       Alpha/Y        N3        Beta/Z          J
 ---------------------------------------------------------------------------------------------------
      1      1  Ir
      2      2  N        1   2.104000(     1)
      3      3  P        1   2.264000(     2)      2   90.000(    24)
      4      4  N        1   2.227000(     3)      3   90.000(    25)      2  180.000(    46)      0
      5      5  P        1   2.270000(     4)      2   90.000(    26)      3 -180.000(    47)      0
      6      6  H        3   1.431000(     5)      1  120.705(    27)      2   60.700(    48)      0
      7      7  H        3   1.437000(     6)      1  118.798(    28)      2  180.000(    49)      0
      8      8  H        3   1.431000(     7)      1  120.720(    29)      2  299.200(    50)      0
      9      9  H        5   1.431000(     8)      1  120.114(    30)      2   60.000(    51)      0
     10     10  H        5   1.435000(     9)      1  120.136(    31)      2  179.900(    52)      0
     11     11  H        5   1.431000(    10)      1  120.119(    32)      2  299.900(    53)      0
     12     12  H        4   1.027000(    11)      1  111.517(    33)      5  299.800(    54)      0
     13     13  H        4   1.027000(    12)      1  111.521(    34)      5   60.300(    55)      0
     14     14  H        4   1.027000(    13)      1  113.183(    35)      5  180.000(    56)      0
     15     15  C        3   2.994000(    14)      1   69.400(    36)      2    0.000(    57)      0
     16     16  C       15   1.395000(    15)      2  119.984(    37)      1  180.000(    58)      0
     17     17  C       16   1.395000(    16)     15  120.000(    38)      2  359.000(    59)      0
     18     18  C       17   1.395000(    17)     16  120.000(    39)     15  360.000(    60)      0
     19     19  C        2   1.395000(    18)      1  119.990(    40)      3  179.500(    61)      0
     20     20  H       15   1.087000(    19)      2  120.009(    41)      1  359.100(    62)      0
     21     21  H       16   1.087000(    20)     15  120.000(    42)      2  179.000(    63)      0
     22     22  O       17   1.087000(    21)     16  120.000(    43)     15  180.000(    64)      0
     23     23  H       18   1.087000(    22)     17  120.000(    44)     16  180.000(    65)      0
     24     24  H       19   1.087000(    23)      2  119.984(    45)      1    0.900(    66)      0
 ---------------------------------------------------------------------------------------------------
                         Z-Matrix orientation:                         
 ---------------------------------------------------------------------
 Center     Atomic      Atomic             Coordinates (Angstroms)
 Number     Number       Type             X           Y           Z
 ---------------------------------------------------------------------
      1         77           0        0.000000    0.000000    0.000000
      2          7           0        0.000000    0.000000    2.104000
      3         15           0        2.264000    0.000000    0.000000
      4          7           0        0.000000    0.000000   -2.227000
      5         15           0       -2.270000    0.000000    0.000000
      6          1           0        2.994694   -1.072981    0.602129
      7          1           0        2.956236   -0.000000   -1.259277
      8          1           0        2.995016    1.073863    0.600162
      9          1           0       -2.987964    1.072015    0.618928
     10          1           0       -2.990448    0.002166   -1.241038
     11          1           0       -2.988072   -1.073039    0.617025
     12          1           0       -0.474822   -0.829087   -2.603680
     13          1           0       -0.473362    0.829891   -2.603747
     14          1           0        0.944072    0.000000   -2.631298
     15          6           0        1.210586    0.000000    2.802562
     16          6           0        1.210516    0.000000    4.197562
     17          6           0        0.002560    0.021084    4.895002
     18          6           0       -1.205327    0.042169    4.197441
     19          6           0       -1.208181    0.010544    2.801289
     20          1           0        2.151858   -0.014785    2.259095
     21          1           0        2.151715   -0.016429    4.741109
     22          8           0        0.002506    0.021084    5.982002
     23          1           0       -2.146580    0.058598    4.740894
     24          1           0       -2.149339    0.003968    2.257463
 ---------------------------------------------------------------------
                    Distance matrix (angstroms):
                    1          2          3          4          5
     1  Ir   0.000000
     2  N    2.104000   0.000000
     3  P    2.264000   3.090714   0.000000
     4  N    2.227000   4.331000   3.175724   0.000000
     5  P    2.270000   3.095112   4.534000   3.180005   0.000000
     6  H    3.237598   3.517826   1.431000   4.257165   5.406556
     7  H    3.213271   4.477830   1.437000   3.110598   5.375809
     8  H    3.237823   3.519209   1.431000   4.256307   5.406827
     9  H    3.234226   3.504652   5.395870   4.263385   1.431000
    10  H    3.237740   4.486877   5.399019   3.148794   1.435000
    11  H    3.234302   3.505864   5.395961   4.262449   1.431000
    12  H    2.773444   4.803654   3.868809   1.027000   3.269434
    13  H    2.773498   4.803714   3.867993   1.027000   3.270493
    14  H    2.795533   4.828491   2.943797   1.027000   4.153792
    15  C    3.052847   1.397679   2.994000   5.173202   4.468650
    16  C    4.368624   2.418337   4.327743   6.537610   5.452845
    17  C    4.895048   2.791083   5.392179   7.122034   5.396852
    18  C    4.367277   2.416006   5.445780   6.536669   4.330568
    19  C    3.050743   1.395000   4.461320   5.171412   2.995796
    20  H    3.119972   2.157491   2.261925   4.975516   4.965537
    21  H    5.206560   3.403600   4.742467   7.292784   6.483051
    22  O    5.982040   3.878060   6.395244   8.209029   6.399146
    23  H    5.204548   3.400654   6.475549   7.291282   4.742863
    24  H    3.117020   2.154814   4.957188   4.972935   2.260688
                    6          7          8          9         10
     6  H    0.000000
     7  H    2.148860   0.000000
     8  H    2.146845   2.147603   0.000000
     9  H    6.355588   6.325377   5.983010   0.000000
    10  H    6.354143   5.946712   6.353293   2.145707   0.000000
    11  H    5.982785   6.325087   6.356636   2.145055   2.146735
    12  H    4.730142   3.777164   5.091719   4.507247   2.979286
    13  H    5.091755   3.776038   4.728023   4.094812   2.979568
    14  H    3.976354   2.435415   3.975159   5.212878   4.172922
    15  C    3.029231   4.421067   3.031162   4.852350   5.830900
    16  C    4.154723   5.729278   4.156791   5.619882   6.872152
    17  C    5.345896   6.826404   5.339362   5.322828   6.827111
    18  C    5.640036   6.862664   5.625628   4.128455   5.724100
    19  C    4.865644   5.816415   4.862353   3.009493   4.417800
    20  H    2.139086   3.609180   2.155952   5.503550   6.220493
    21  H    4.354087   6.054103   4.364326   6.677829   7.888490
    22  O    6.252456   7.820555   6.247213   6.229761   7.818595
    23  H    6.696458   7.876815   6.679255   4.327303   6.041425
    24  H    5.510084   6.199546   5.509602   2.128101   3.598190
                   11         12         13         14         15
    11  H    0.000000
    12  H    4.092540   0.000000
    13  H    4.507581   1.658979   0.000000
    14  H    5.211984   1.643596   1.642741   0.000000
    15  C    4.853527   5.723237   5.722987   5.440392   0.000000
    16  C    5.621371   7.055824   7.055634   6.834057   1.395000
    17  C    5.333111   7.561807   7.557242   7.584991   2.416211
    18  C    4.152259   6.895504   6.885669   7.159146   2.790000
    19  C    3.018804   5.518740   5.515950   5.843399   2.418791
    20  H    5.498653   5.586512   5.590393   5.037352   1.087000
    21  H    6.673973   7.842515   7.845649   7.470680   2.154985
    22  O    6.238881   8.640866   8.636880   8.664637   3.401285
    23  H    4.358327   7.584559   7.572206   7.994047   3.877000
    24  H    2.134116   5.208521   5.207918   5.785256   3.403858
                   16         17         18         19         20
    16  C    0.000000
    17  C    1.395000   0.000000
    18  C    2.416211   1.395000   0.000000
    19  C    2.792810   2.418603   1.396513   0.000000
    20  H    2.154994   3.401290   3.876999   3.403598   0.000000
    21  H    1.087000   2.154985   3.401285   3.879760   2.482015
    22  O    2.154985   1.087000   2.154985   3.403352   4.298958
    23  H    3.401285   2.154985   1.087000   2.155219   4.963999
    24  H    3.879772   3.404053   2.157808   1.087000   4.301239
                   21         22         23         24
    21  H    0.000000
    22  O    2.482000   0.000000
    23  H    4.298950   2.482000   0.000000
    24  H    4.966688   4.301502   2.484034   0.000000
 Stoichiometry    C5H13IrN2OP2
 Framework group  C1[X(C5H13IrN2OP2)]
 Deg. of freedom    66
 Full point group                 C1      NOp   1
 Largest Abelian subgroup         C1      NOp   1
 Largest concise Abelian subgroup C1      NOp   1
                         Standard orientation:                         
 ---------------------------------------------------------------------
 Center     Atomic      Atomic             Coordinates (Angstroms)
 Number     Number       Type             X           Y           Z
 ---------------------------------------------------------------------
      1         77           0       -0.967774   -0.000817    0.000484
      2          7           0        1.136214    0.000611    0.007592
      3         15           0       -0.966220   -2.264810   -0.004657
      4          7           0       -3.194761   -0.002328   -0.007039
      5         15           0       -0.969332    2.269177    0.005639
      6          1           0       -0.367216   -2.997533    1.068690
      7          1           0       -2.225014   -2.957899   -0.010483
      8          1           0       -0.361934   -2.992976   -1.078144
      9          1           0       -0.347281    2.989996   -1.062646
     10          1           0       -2.210850    2.988785    0.000916
     11          1           0       -0.356427    2.985227    1.082384
     12          1           0       -3.574564    0.470352    0.821847
     13          1           0       -3.569028    0.472662   -0.837121
     14          1           0       -3.598408   -0.946672   -0.010548
     15          6           0        1.835603   -1.209497    0.007202
     16          6           0        3.230595   -1.208480    0.011915
     17          6           0        3.927272   -0.000006   -0.004070
     18          6           0        3.228958    1.207452   -0.024768
     19          6           0        1.832705    1.209287    0.002147
     20          1           0        1.292735   -2.151169    0.018014
     21          1           0        3.774729   -2.149345    0.028043
     22          8           0        5.014265    0.000786   -0.000398
     23          1           0        3.771817    2.149109   -0.037224
     24          1           0        1.288213    2.150058    0.009023
 ---------------------------------------------------------------------
 Rotational constants (GHZ):           1.0789187           0.3603633           0.2718934
 General basis read from cards:  (5D, 7F)
 ======================================================================================================
                                       Pseudopotential Parameters
 ======================================================================================================
  Center     Atomic      Valence      Angular      Power
  Number     Number     Electrons     Momentum     of R      Exponent        Coefficient   SO-Coeffient
 ======================================================================================================
    1         77           17
                                      H and up 
                                                     2        1.0000000        0.00000000    0.00000000
                                      S - H
                                                     2       13.6522030      732.26920000    0.00000000
                                                     2        6.8261010       26.48472100    0.00000000
                                      P - H
                                                     2       10.2798680      299.48947400    0.00000000
                                                     2        5.1399340       26.46623400    0.00000000
                                      D - H
                                                     2        7.3498590      124.45759500    0.00000000
                                                     2        3.6749290       14.03599500    0.00000000
                                      F - H
                                                     2        3.0340720       21.53103100    0.00000000
                                      G - H
                                                     2        4.8088570      -21.60759700    0.00000000
    2          7
                                   No pseudopotential on this center.
    3         15
                                   No pseudopotential on this center.
    4          7
                                   No pseudopotential on this center.
    5         15
                                   No pseudopotential on this center.
    6          1
                                   No pseudopotential on this center.
    7          1
                                   No pseudopotential on this center.
    8          1
                                   No pseudopotential on this center.
    9          1
                                   No pseudopotential on this center.
   10          1
                                   No pseudopotential on this center.
   11          1
                                   No pseudopotential on this center.
   12          1
                                   No pseudopotential on this center.
   13          1
                                   No pseudopotential on this center.
   14          1
                                   No pseudopotential on this center.
   15          6
                                   No pseudopotential on this center.
   16          6
                                   No pseudopotential on this center.
   17          6
                                   No pseudopotential on this center.
   18          6
                                   No pseudopotential on this center.
   19          6
                                   No pseudopotential on this center.
   20          1
                                   No pseudopotential on this center.
   21          1
                                   No pseudopotential on this center.
   22          8
                                   No pseudopotential on this center.
   23          1
                                   No pseudopotential on this center.
   24          1
                                   No pseudopotential on this center.
 ======================================================================================================
 There are   363 symmetry adapted cartesian basis functions of A   symmetry.
 There are   350 symmetry adapted basis functions of A   symmetry.
   350 basis functions,   557 primitive gaussians,   363 cartesian basis functions
    56 alpha electrons       56 beta electrons
       nuclear repulsion energy       961.3693552761 Hartrees.
 NAtoms=   24 NActive=   24 NUniq=   24 SFac= 1.00D+00 NAtFMM=   60 NAOKFM=F Big=F
 Integral buffers will be    131072 words long.
 Raffenetti 2 integral format.
 Two-electron integral symmetry is turned on.
 One-electron integrals computed using PRISM.
   1 Symmetry operations used in ECPInt.
 ECPInt:  NShTT=    9870 NPrTT=   31870 LenC2=    9106 LenP2D=   21362.
 LDataN:  DoStor=T MaxTD1= 7 Len=  274
 NBasis=   350 RedAO= T EigKep=  3.56D-06  NBF=   350
 NBsUse=   350 1.00D-06 EigRej= -1.00D+00 NBFU=   350
 Defaulting to unpruned grid for atomic number  77.
 ExpMin= 1.50D-02 ExpMax= 7.75D+04 ExpMxC= 2.65D+03 IAcc=3 IRadAn=         5 AccDes= 0.00D+00
 Harris functional with IExCor= 1009 and IRadAn=       5 diagonalized for initial guess.
 HarFok:  IExCor= 1009 AccDes= 0.00D+00 IRadAn=         5 IDoV= 1 UseB2=F ITyADJ=14
 ICtDFT=  3500011 ScaDFX=  1.000000  1.000000  1.000000  1.000000
 Defaulting to unpruned grid for atomic number  77.
 FoFCou: FMM=F IPFlag=           0 FMFlag=      100000 FMFlg1=           0
         NFxFlg=           0 DoJE=T BraDBF=F KetDBF=T FulRan=T
         wScrn=  0.000000 ICntrl=       500 IOpCl=  0 I1Cent=   200000004 NGrid=           0
         NMat0=    1 NMatS0=      1 NMatT0=    0 NMatD0=    1 NMtDS0=    0 NMtDT0=    0
 Petite list used in FoFCou.
 Requested convergence on RMS density matrix=1.00D-08 within 128 cycles.
 Requested convergence on MAX density matrix=1.00D-06.
 Requested convergence on             energy=1.00D-06.
 No special actions if energy rises.
 Defaulting to unpruned grid for atomic number  77.
 Defaulting to unpruned grid for atomic number  77.
 Defaulting to unpruned grid for atomic number  77.
 Defaulting to unpruned grid for atomic number  77.
 Defaulting to unpruned grid for atomic number  77.
 Defaulting to unpruned grid for atomic number  77.
 Defaulting to unpruned grid for atomic number  77.
 Defaulting to unpruned grid for atomic number  77.
 Defaulting to unpruned grid for atomic number  77.
 Defaulting to unpruned grid for atomic number  77.
 Defaulting to unpruned grid for atomic number  77.
 Defaulting to unpruned grid for atomic number  77.
 Defaulting to unpruned grid for atomic number  77.
 Defaulting to unpruned grid for atomic number  77.
 Defaulting to unpruned grid for atomic number  77.
 Defaulting to unpruned grid for atomic number  77.
 Defaulting to unpruned grid for atomic number  77.
 Defaulting to unpruned grid for atomic number  77.
 Defaulting to unpruned grid for atomic number  77.
 Defaulting to unpruned grid for atomic number  77.
 Defaulting to unpruned grid for atomic number  77.
 Defaulting to unpruned grid for atomic number  77.
 Defaulting to unpruned grid for atomic number  77.
 Defaulting to unpruned grid for atomic number  77.
 Defaulting to unpruned grid for atomic number  77.
 Defaulting to unpruned grid for atomic number  77.
 Defaulting to unpruned grid for atomic number  77.
 Defaulting to unpruned grid for atomic number  77.
 Defaulting to unpruned grid for atomic number  77.
 Defaulting to unpruned grid for atomic number  77.
 Defaulting to unpruned grid for atomic number  77.
 Defaulting to unpruned grid for atomic number  77.
 Defaulting to unpruned grid for atomic number  77.
 Defaulting to unpruned grid for atomic number  77.
 Defaulting to unpruned grid for atomic number  77.
 Defaulting to unpruned grid for atomic number  77.
 Defaulting to unpruned grid for atomic number  77.
 Defaulting to unpruned grid for atomic number  77.
 Defaulting to unpruned grid for atomic number  77.
 Defaulting to unpruned grid for atomic number  77.
 Defaulting to unpruned grid for atomic number  77.
 Defaulting to unpruned grid for atomic number  77.
 Defaulting to unpruned grid for atomic number  77.
 Defaulting to unpruned grid for atomic number  77.
 Defaulting to unpruned grid for atomic number  77.
 Defaulting to unpruned grid for atomic number  77.
 Defaulting to unpruned grid for atomic number  77.
 Defaulting to unpruned grid for atomic number  77.
 EnCoef did     7 forward-backward iterations
 EnCoef did   100 forward-backward iterations
 Restarting incremental Fock formation.
 SCF Done:  E(RPBE-PBE) =  -1169.49982297     A.U. after   21 cycles
            NFock= 21  Conv=0.38D-08     -V/T= 2.0639

 **********************************************************************

            Population analysis using the SCF Density.

 **********************************************************************

 Orbital symmetries:
       Occupied  (A) (A) (A) (A) (A) (A) (A) (A) (A) (A) (A) (A)
                 (A) (A) (A) (A) (A) (A) (A) (A) (A) (A) (A) (A)
                 (A) (A) (A) (A) (A) (A) (A) (A) (A) (A) (A) (A)
                 (A) (A) (A) (A) (A) (A) (A) (A) (A) (A) (A) (A)
                 (A) (A) (A) (A) (A) (A) (A) (A)
       Virtual   (A) (A) (A) (A) (A) (A) (A) (A) (A) (A) (A) (A)
                 (A) (A) (A) (A) (A) (A) (A) (A) (A) (A) (A) (A)
                 (A) (A) (A) (A) (A) (A) (A) (A) (A) (A) (A) (A)
                 (A) (A) (A) (A) (A) (A) (A) (A) (A) (A) (A) (A)
                 (A) (A) (A) (A) (A) (A) (A) (A) (A) (A) (A) (A)
                 (A) (A) (A) (A) (A) (A) (A) (A) (A) (A) (A) (A)
                 (A) (A) (A) (A) (A) (A) (A) (A) (A) (A) (A) (A)
                 (A) (A) (A) (A) (A) (A) (A) (A) (A) (A) (A) (A)
                 (A) (A) (A) (A) (A) (A) (A) (A) (A) (A) (A) (A)
                 (A) (A) (A) (A) (A) (A) (A) (A) (A) (A) (A) (A)
                 (A) (A) (A) (A) (A) (A) (A) (A) (A) (A) (A) (A)
                 (A) (A) (A) (A) (A) (A) (A) (A) (A) (A) (A) (A)
                 (A) (A) (A) (A) (A) (A) (A) (A) (A) (A) (A) (A)
                 (A) (A) (A) (A) (A) (A) (A) (A) (A) (A) (A) (A)
                 (A) (A) (A) (A) (A) (A) (A) (A) (A) (A) (A) (A)
                 (A) (A) (A) (A) (A) (A) (A) (A) (A) (A) (A) (A)
                 (A) (A) (A) (A) (A) (A) (A) (A) (A) (A) (A) (A)
                 (A) (A) (A) (A) (A) (A) (A) (A) (A) (A) (A) (A)
                 (A) (A) (A) (A) (A) (A) (A) (A) (A) (A) (A) (A)
                 (A) (A) (A) (A) (A) (A) (A) (A) (A) (A) (A) (A)
                 (A) (A) (A) (A) (A) (A) (A) (A) (A) (A) (A) (A)
                 (A) (A) (A) (A) (A) (A) (A) (A) (A) (A) (A) (A)
                 (A) (A) (A) (A) (A) (A) (A) (A) (A) (A) (A) (A)
                 (A) (A) (A) (A) (A) (A) (A) (A) (A) (A) (A) (A)
                 (A) (A) (A) (A) (A) (A)
 The electronic state is 1-A.
 Alpha  occ. eigenvalues --  -76.33573 -76.33541 -18.64088 -14.06254 -14.00266
 Alpha  occ. eigenvalues --   -9.90382  -9.90355  -9.87391  -9.84033  -9.84007
 Alpha  occ. eigenvalues --   -6.34897  -6.34867  -4.56576  -4.56541  -4.56474
 Alpha  occ. eigenvalues --   -4.56449  -4.56176  -4.56147  -3.51947  -1.91469
 Alpha  occ. eigenvalues --   -1.90782  -1.86480  -0.96246  -0.86310  -0.83470
 Alpha  occ. eigenvalues --   -0.67279  -0.66463  -0.63418  -0.62380  -0.55623
 Alpha  occ. eigenvalues --   -0.51971  -0.49786  -0.49608  -0.43710  -0.43221
 Alpha  occ. eigenvalues --   -0.41001  -0.40335  -0.39219  -0.38320  -0.38063
 Alpha  occ. eigenvalues --   -0.37659  -0.36088  -0.36036  -0.35219  -0.32432
 Alpha  occ. eigenvalues --   -0.31747  -0.31266  -0.29243  -0.27780  -0.22337
 Alpha  occ. eigenvalues --   -0.21461  -0.20388  -0.18408  -0.16380  -0.14338
 Alpha  occ. eigenvalues --   -0.14070
 Alpha virt. eigenvalues --   -0.07132  -0.06023  -0.06001  -0.03554  -0.03307
 Alpha virt. eigenvalues --   -0.02739  -0.00978  -0.00818  -0.00248   0.00151
 Alpha virt. eigenvalues --    0.01028   0.01643   0.02112   0.02145   0.02470
 Alpha virt. eigenvalues --    0.03237   0.03512   0.04107   0.05302   0.05666
 Alpha virt. eigenvalues --    0.06039   0.06148   0.06447   0.07085   0.08206
 Alpha virt. eigenvalues --    0.08825   0.09290   0.09466   0.10206   0.10268
 Alpha virt. eigenvalues --    0.10747   0.10937   0.11356   0.11612   0.12814
 Alpha virt. eigenvalues --    0.13465   0.13987   0.14120   0.14473   0.14571
 Alpha virt. eigenvalues --    0.14749   0.15543   0.15609   0.17239   0.17921
 Alpha virt. eigenvalues --    0.18212   0.18448   0.19391   0.19612   0.19918
 Alpha virt. eigenvalues --    0.20036   0.20443   0.21381   0.22587   0.23162
 Alpha virt. eigenvalues --    0.23680   0.24196   0.24819   0.25436   0.25555
 Alpha virt. eigenvalues --    0.25895   0.26837   0.27168   0.27278   0.28222
 Alpha virt. eigenvalues --    0.28948   0.29480   0.30355   0.31558   0.32037
 Alpha virt. eigenvalues --    0.32490   0.33642   0.34191   0.34592   0.34959
 Alpha virt. eigenvalues --    0.36684   0.37007   0.37288   0.37735   0.38506
 Alpha virt. eigenvalues --    0.39123   0.39780   0.41598   0.42537   0.44082
 Alpha virt. eigenvalues --    0.44255   0.45608   0.46326   0.47293   0.50356
 Alpha virt. eigenvalues --    0.50593   0.50728   0.51294   0.52996   0.53499
 Alpha virt. eigenvalues --    0.55774   0.56834   0.57247   0.57444   0.58258
 Alpha virt. eigenvalues --    0.59913   0.60960   0.61085   0.61544   0.61722
 Alpha virt. eigenvalues --    0.62809   0.65301   0.65394   0.66984   0.67502
 Alpha virt. eigenvalues --    0.68451   0.69655   0.71809   0.72177   0.73024
 Alpha virt. eigenvalues --    0.74079   0.75280   0.75857   0.76216   0.78914
 Alpha virt. eigenvalues --    0.79611   0.81104   0.82939   0.83308   0.85583
 Alpha virt. eigenvalues --    0.86823   0.87865   0.88475   0.90100   0.91381
 Alpha virt. eigenvalues --    0.92255   0.93724   0.94132   0.95982   0.99583
 Alpha virt. eigenvalues --    0.99781   1.00333   1.03209   1.03600   1.07669
 Alpha virt. eigenvalues --    1.08469   1.10293   1.13186   1.13684   1.13738
 Alpha virt. eigenvalues --    1.18994   1.20286   1.21188   1.21525   1.21690
 Alpha virt. eigenvalues --    1.25262   1.25548   1.25935   1.27596   1.28018
 Alpha virt. eigenvalues --    1.28331   1.30606   1.32963   1.34214   1.34729
 Alpha virt. eigenvalues --    1.38481   1.38825   1.42439   1.44356   1.45024
 Alpha virt. eigenvalues --    1.46286   1.46807   1.49830   1.50021   1.53945
 Alpha virt. eigenvalues --    1.55028   1.55328   1.55471   1.57549   1.59640
 Alpha virt. eigenvalues --    1.60251   1.61320   1.61951   1.64321   1.65602
 Alpha virt. eigenvalues --    1.67228   1.67839   1.69378   1.71570   1.73763
 Alpha virt. eigenvalues --    1.74345   1.76986   1.78015   1.79042   1.79374
 Alpha virt. eigenvalues --    1.82039   1.82846   1.83816   1.85502   1.87075
 Alpha virt. eigenvalues --    1.89587   1.92520   1.94154   1.95467   1.98548
 Alpha virt. eigenvalues --    2.02235   2.02574   2.04788   2.07289   2.07628
 Alpha virt. eigenvalues --    2.07696   2.08230   2.12555   2.17280   2.19949
 Alpha virt. eigenvalues --    2.20528   2.26466   2.28401   2.31142   2.38649
 Alpha virt. eigenvalues --    2.40705   2.41838   2.41930   2.44044   2.49094
 Alpha virt. eigenvalues --    2.50142   2.50268   2.50876   2.51559   2.53779
 Alpha virt. eigenvalues --    2.55196   2.58477   2.58875   2.62685   2.66549
 Alpha virt. eigenvalues --    2.68615   2.69374   2.70551   2.71258   2.72347
 Alpha virt. eigenvalues --    2.72475   2.76878   2.81888   2.82205   2.82365
 Alpha virt. eigenvalues --    2.84214   2.85602   2.87590   2.89227   2.91073
 Alpha virt. eigenvalues --    2.93317   2.97079   2.97903   2.99771   3.17430
 Alpha virt. eigenvalues --    3.28591   3.38808   3.46116   3.47225   3.48394
 Alpha virt. eigenvalues --    3.54994   3.71975   3.79021   3.82977   3.90248
 Alpha virt. eigenvalues --    3.94860   4.01085   4.04889   4.07257   4.35027
 Alpha virt. eigenvalues --    4.42759   4.49529   4.49927   5.03915   5.10864
 Alpha virt. eigenvalues --    5.26567   5.82854   6.96805   6.98789  13.64740
 Alpha virt. eigenvalues --   13.68611  13.77343  13.78356  13.81992  13.87065
 Alpha virt. eigenvalues --   23.52967  23.67848  23.85378  23.86393  24.05500
 Alpha virt. eigenvalues --   35.20592  35.26362  47.20987  47.50090  47.58285
 Alpha virt. eigenvalues --   49.88091 139.41081 162.54465 162.57057
          Condensed to atoms (all electrons):
               1          2          3          4          5          6
     1  Ir  17.821016  -0.636498  -0.113872  -0.298111  -0.026948  -0.034302
     2  N   -0.636498   7.410408   0.015816   0.132954  -0.106738   0.006142
     3  P   -0.113872   0.015816  14.980100   0.077445  -0.235926   0.352215
     4  N   -0.298111   0.132954   0.077445   6.742042  -0.002702  -0.001169
     5  P   -0.026948  -0.106738  -0.235926  -0.002702  14.914028   0.002782
     6  H   -0.034302   0.006142   0.352215  -0.001169   0.002782   0.685347
     7  H    0.003525   0.001459   0.227110  -0.006036   0.007670  -0.017499
     8  H   -0.035061   0.004438   0.355744  -0.001503   0.002288  -0.044209
     9  H   -0.032563   0.004713   0.003930  -0.001388   0.343601   0.000001
    10  H   -0.014476  -0.000006   0.003983   0.005534   0.260009   0.000001
    11  H   -0.033571   0.006501   0.003660  -0.000981   0.347028  -0.000026
    12  H   -0.012918  -0.000635   0.000145   0.334996   0.006857   0.000289
    13  H   -0.011585  -0.000848   0.000800   0.333266   0.006150  -0.000106
    14  H    0.043136  -0.007994   0.000879   0.296641  -0.001132  -0.000337
    15  C   -0.818853   0.301243   0.621392   0.010406  -0.220326  -0.060085
    16  C    0.973158  -0.440132  -0.870564  -0.067993   0.235116   0.023958
    17  C   -0.173733   0.011286  -0.013211   0.006655  -0.044994   0.010571
    18  C    0.656135  -0.265795   0.162899  -0.037476  -0.632845  -0.005482
    19  C   -0.515469   0.188107  -0.162333   0.015137   0.459732   0.000859
    20  H   -0.015491  -0.115844  -0.017288  -0.003001   0.010363   0.000365
    21  H    0.002314   0.028754  -0.003256   0.000017  -0.000069   0.000005
    22  O   -0.007570  -0.025041   0.002147   0.000008   0.001177   0.000001
    23  H    0.002231   0.028661  -0.000157   0.000019  -0.002628   0.000000
    24  H   -0.020493  -0.117542   0.004528   0.000224  -0.007056  -0.000009
               7          8          9         10         11         12
     1  Ir   0.003525  -0.035061  -0.032563  -0.014476  -0.033571  -0.012918
     2  N    0.001459   0.004438   0.004713  -0.000006   0.006501  -0.000635
     3  P    0.227110   0.355744   0.003930   0.003983   0.003660   0.000145
     4  N   -0.006036  -0.001503  -0.001388   0.005534  -0.000981   0.334996
     5  P    0.007670   0.002288   0.343601   0.260009   0.347028   0.006857
     6  H   -0.017499  -0.044209   0.000001   0.000001  -0.000026   0.000289
     7  H    0.723317  -0.017465   0.000000  -0.000025   0.000000  -0.000584
     8  H   -0.017465   0.684167  -0.000027  -0.000000   0.000001  -0.000107
     9  H    0.000000  -0.000027   0.687729  -0.018778  -0.041720   0.000109
    10  H   -0.000025  -0.000000  -0.018778   0.706271  -0.018680   0.002270
    11  H    0.000000   0.000001  -0.041720  -0.018680   0.687280  -0.000264
    12  H   -0.000584  -0.000107   0.000109   0.002270  -0.000264   0.438132
    13  H   -0.000578   0.000293  -0.000262   0.002118   0.000102  -0.021307
    14  H    0.013886  -0.000343  -0.000011   0.000019  -0.000012  -0.023032
    15  C    0.019004  -0.058406   0.000355   0.000932   0.000846   0.000482
    16  C    0.011494   0.024526  -0.004829  -0.001068  -0.005819   0.000337
    17  C   -0.000398   0.008752   0.010651  -0.000394   0.010211   0.000001
    18  C   -0.001550  -0.003095   0.039802   0.008553   0.023699  -0.000244
    19  C    0.000426  -0.001393  -0.070372   0.014346  -0.057206  -0.000606
    20  H    0.002967  -0.000608  -0.000007  -0.000010  -0.000007   0.000000
    21  H   -0.000004   0.000009  -0.000000   0.000000   0.000000  -0.000000
    22  O   -0.000001  -0.000001   0.000003  -0.000000   0.000000   0.000000
    23  H    0.000000   0.000000  -0.000016  -0.000005   0.000015  -0.000000
    24  H   -0.000009  -0.000011  -0.000281   0.002985  -0.000342  -0.000082
              13         14         15         16         17         18
     1  Ir  -0.011585   0.043136  -0.818853   0.973158  -0.173733   0.656135
     2  N   -0.000848  -0.007994   0.301243  -0.440132   0.011286  -0.265795
     3  P    0.000800   0.000879   0.621392  -0.870564  -0.013211   0.162899
     4  N    0.333266   0.296641   0.010406  -0.067993   0.006655  -0.037476
     5  P    0.006150  -0.001132  -0.220326   0.235116  -0.044994  -0.632845
     6  H   -0.000106  -0.000337  -0.060085   0.023958   0.010571  -0.005482
     7  H   -0.000578   0.013886   0.019004   0.011494  -0.000398  -0.001550
     8  H    0.000293  -0.000343  -0.058406   0.024526   0.008752  -0.003095
     9  H   -0.000262  -0.000011   0.000355  -0.004829   0.010651   0.039802
    10  H    0.002118   0.000019   0.000932  -0.001068  -0.000394   0.008553
    11  H    0.000102  -0.000012   0.000846  -0.005819   0.010211   0.023699
    12  H   -0.021307  -0.023032   0.000482   0.000337   0.000001  -0.000244
    13  H    0.438699  -0.023271   0.000426   0.000353  -0.000020   0.000007
    14  H   -0.023271   0.435327   0.000954   0.001777  -0.000202   0.001203
    15  C    0.000426   0.000954  16.837545  -8.621060   0.231401  -1.342443
    16  C    0.000353   0.001777  -8.621060  16.516086  -0.653244  -0.601871
    17  C   -0.000020  -0.000202   0.231401  -0.653244   7.126175  -0.396197
    18  C    0.000007   0.001203  -1.342443  -0.601871  -0.396197  14.380682
    19  C   -0.000284   0.001742  -0.713563  -1.032504  -0.094085  -6.419370
    20  H   -0.000001   0.000108   0.188221   0.233550   0.012123  -0.045026
    21  H   -0.000000   0.000000  -0.018304   0.350244   0.023446  -0.012969
    22  O    0.000000  -0.000000   0.205782  -0.449134   0.443562  -0.418809
    23  H   -0.000000  -0.000000  -0.001911  -0.012339   0.025694   0.341325
    24  H   -0.000084   0.000020  -0.005312  -0.025018   0.013949   0.197505
              19         20         21         22         23         24
     1  Ir  -0.515469  -0.015491   0.002314  -0.007570   0.002231  -0.020493
     2  N    0.188107  -0.115844   0.028754  -0.025041   0.028661  -0.117542
     3  P   -0.162333  -0.017288  -0.003256   0.002147  -0.000157   0.004528
     4  N    0.015137  -0.003001   0.000017   0.000008   0.000019   0.000224
     5  P    0.459732   0.010363  -0.000069   0.001177  -0.002628  -0.007056
     6  H    0.000859   0.000365   0.000005   0.000001   0.000000  -0.000009
     7  H    0.000426   0.002967  -0.000004  -0.000001   0.000000  -0.000009
     8  H   -0.001393  -0.000608   0.000009  -0.000001   0.000000  -0.000011
     9  H   -0.070372  -0.000007  -0.000000   0.000003  -0.000016  -0.000281
    10  H    0.014346  -0.000010   0.000000  -0.000000  -0.000005   0.002985
    11  H   -0.057206  -0.000007   0.000000   0.000000   0.000015  -0.000342
    12  H   -0.000606   0.000000  -0.000000   0.000000  -0.000000  -0.000082
    13  H   -0.000284  -0.000001  -0.000000   0.000000  -0.000000  -0.000084
    14  H    0.001742   0.000108   0.000000  -0.000000  -0.000000   0.000020
    15  C   -0.713563   0.188221  -0.018304   0.205782  -0.001911  -0.005312
    16  C   -1.032504   0.233550   0.350244  -0.449134  -0.012339  -0.025018
    17  C   -0.094085   0.012123   0.023446   0.443562   0.025694   0.013949
    18  C   -6.419370  -0.045026  -0.012969  -0.418809   0.341325   0.197505
    19  C   14.525438   0.015129  -0.001122   0.169863  -0.011581   0.222427
    20  H    0.015129   0.672133  -0.009495  -0.002453   0.000112  -0.000452
    21  H   -0.001122  -0.009495   0.536111  -0.017658  -0.000212   0.000120
    22  O    0.169863  -0.002453  -0.017658   8.489033  -0.017774  -0.002450
    23  H   -0.011581   0.000112  -0.000212  -0.017774   0.536093  -0.009478
    24  H    0.222427  -0.000452   0.000120  -0.002450  -0.009478   0.675081
 Mulliken charges:
               1
     1  Ir   0.299998
     2  N    0.576590
     3  P   -0.396186
     4  N   -0.534983
     5  P   -0.315437
     6  H    0.080689
     7  H    0.033292
     8  H    0.082010
     9  H    0.079359
    10  H    0.046422
    11  H    0.079285
    12  H    0.276160
    13  H    0.276133
    14  H    0.260643
    15  C   -0.558723
    16  C    0.414976
    17  C   -0.557996
    18  C    0.371363
    19  C   -0.533315
    20  H    0.074610
    21  H    0.122069
    22  O   -0.370687
    23  H    0.121950
    24  H    0.071780
 Sum of Mulliken charges =  -0.00000
 Mulliken charges with hydrogens summed into heavy atoms:
               1
     1  Ir   0.299998
     2  N    0.576590
     3  P   -0.200196
     4  N    0.277953
     5  P   -0.110371
    15  C   -0.484113
    16  C    0.537045
    17  C   -0.557996
    18  C    0.493313
    19  C   -0.461535
    22  O   -0.370687
 Electronic spatial extent (au):  <R**2>=           3562.1749
 Charge=             -0.0000 electrons
 Dipole moment (field-independent basis, Debye):
    X=            -13.2315    Y=              0.0415    Z=             -0.0022  Tot=             13.2315
 Quadrupole moment (field-independent basis, Debye-Ang):
   XX=           -121.2633   YY=            -83.9021   ZZ=           -105.2143
   XY=             -0.2460   XZ=              0.0846   YZ=             -0.0070
 Traceless Quadrupole moment (field-independent basis, Debye-Ang):
   XX=            -17.8034   YY=             19.5578   ZZ=             -1.7544
   XY=             -0.2460   XZ=              0.0846   YZ=             -0.0070
 Octapole moment (field-independent basis, Debye-Ang**2):
  XXX=           -439.9982  YYY=             -0.8074  ZZZ=              0.0426  XYY=            -45.2093
  XXY=              0.1606  XXZ=             -0.2269  XZZ=            -47.7092  YZZ=              1.0186
  YYZ=              0.1138  XYZ=             -0.2306
 Hexadecapole moment (field-independent basis, Debye-Ang**3):
 XXXX=          -4312.0726 YYYY=          -1344.2954 ZZZZ=           -173.9622 XXXY=             -1.4250
 XXXZ=              0.2875 YYYX=              1.7583 YYYZ=             -0.3421 ZZZX=              0.3220
 ZZZY=              0.2707 XXYY=           -739.0493 XXZZ=           -579.7699 YYZZ=           -263.4136
 XXYZ=             -0.6473 YYXZ=              0.2064 ZZXY=             -4.0535
 N-N= 9.613693552761D+02 E-N=-4.657367360634D+03  KE= 1.099277473554D+03
   1 Symmetry operations used in ECPInt.
 ECPInt:  NShTT=    9870 NPrTT=   31870 LenC2=    9106 LenP2D=   21362.
 LDataN:  DoStor=T MaxTD1= 8 Len=  415
 Calling FoFJK, ICntrl=      2527 FMM=F ISym2X=0 I1Cent= 0 IOpClX= 0 NMat=1 NMatS=1 NMatT=0.
 Defaulting to unpruned grid for atomic number  77.
 Defaulting to unpruned grid for atomic number  77.
 Defaulting to unpruned grid for atomic number  77.
 Defaulting to unpruned grid for atomic number  77.
 Defaulting to unpruned grid for atomic number  77.
 Defaulting to unpruned grid for atomic number  77.
 Defaulting to unpruned grid for atomic number  77.
 Defaulting to unpruned grid for atomic number  77.
 Defaulting to unpruned grid for atomic number  77.
 Defaulting to unpruned grid for atomic number  77.
 Defaulting to unpruned grid for atomic number  77.
 Defaulting to unpruned grid for atomic number  77.
 Defaulting to unpruned grid for atomic number  77.
 Defaulting to unpruned grid for atomic number  77.
 Defaulting to unpruned grid for atomic number  77.
 Defaulting to unpruned grid for atomic number  77.
 Defaulting to unpruned grid for atomic number  77.
 Defaulting to unpruned grid for atomic number  77.
 Defaulting to unpruned grid for atomic number  77.
 Defaulting to unpruned grid for atomic number  77.
 Defaulting to unpruned grid for atomic number  77.
 Defaulting to unpruned grid for atomic number  77.
 Defaulting to unpruned grid for atomic number  77.
 Defaulting to unpruned grid for atomic number  77.
 Defaulting to unpruned grid for atomic number  77.
 Defaulting to unpruned grid for atomic number  77.
 Defaulting to unpruned grid for atomic number  77.
 Defaulting to unpruned grid for atomic number  77.
 Defaulting to unpruned grid for atomic number  77.
 Defaulting to unpruned grid for atomic number  77.
 Defaulting to unpruned grid for atomic number  77.
 Defaulting to unpruned grid for atomic number  77.
 Defaulting to unpruned grid for atomic number  77.
 Defaulting to unpruned grid for atomic number  77.
 Defaulting to unpruned grid for atomic number  77.
 Defaulting to unpruned grid for atomic number  77.
 Defaulting to unpruned grid for atomic number  77.
 Defaulting to unpruned grid for atomic number  77.
 Defaulting to unpruned grid for atomic number  77.
 Defaulting to unpruned grid for atomic number  77.
 Defaulting to unpruned grid for atomic number  77.
 Defaulting to unpruned grid for atomic number  77.
 Defaulting to unpruned grid for atomic number  77.
 Defaulting to unpruned grid for atomic number  77.
 Defaulting to unpruned grid for atomic number  77.
 Defaulting to unpruned grid for atomic number  77.
 Defaulting to unpruned grid for atomic number  77.
 Defaulting to unpruned grid for atomic number  77.
 ***** Axes restored to original set *****
 -------------------------------------------------------------------
 Center     Atomic                   Forces (Hartrees/Bohr)
 Number     Number              X              Y              Z
 -------------------------------------------------------------------
      1       77           0.000343481   -0.000212922    0.002711605
      2        7           0.001031724   -0.000286867   -0.026885072
      3       15           0.004003010    0.000112807   -0.007749705
      4        7           0.000133520    0.000134401    0.006899440
      5       15          -0.003939902    0.000116258   -0.007388844
      6        1           0.000079396   -0.000251355   -0.001577799
      7        1           0.000042988   -0.000041797   -0.000846990
      8        1           0.000014006    0.000213722   -0.001444226
      9        1          -0.000109428    0.000284313   -0.001684889
     10        1           0.000156585   -0.000075568   -0.001009483
     11        1          -0.000114140   -0.000283861   -0.001630086
     12        1           0.000189463    0.000474337    0.001219187
     13        1           0.000089048   -0.000476569    0.001245761
     14        1          -0.000784153   -0.000089323    0.001641959
     15        6          -0.031309958   -0.001029033    0.033630919
     16        6           0.044348422   -0.000345065   -0.082452971
     17        6          -0.000179745    0.000833738   -0.268945539
     18        6          -0.044933847   -0.001338332   -0.083013456
     19        6           0.030824515    0.002143822    0.035254983
     20        1          -0.002624180    0.000073809   -0.000804641
     21        1           0.001222888    0.000276205    0.003172652
     22        8          -0.000001492   -0.000124583    0.396697270
     23        1          -0.001187967   -0.000107818    0.003272087
     24        1           0.002705764   -0.000000321   -0.000312161
 -------------------------------------------------------------------
 Cartesian Forces:  Max     0.396697270 RMS     0.059239599
 -----------------------------------------------------------------------------------------------
                       Internal Coordinate Forces (Hartree/Bohr or radian)
  Cent   Atom   N1       Length/X         N2         Alpha/Y        N3         Beta/Z          J
 -----------------------------------------------------------------------------------------------
      1  Ir
      2  N        1  -0.014965(     1)
      3  P        1  -0.043812(     2)      2  -0.253941(    24)
      4  N        1  -0.011006(     3)      3   0.001246(    25)      2  -0.000154(    46)     0
      5  P        1   0.004007(     4)      2   0.056747(    26)      3   0.000086(    47)     0
      6  H        3  -0.000435(     5)      1   0.000948(    27)      2   0.003485(    48)     0
      7  H        3   0.000763(     6)      1  -0.001006(    28)      2  -0.000099(    49)     0
      8  H        3  -0.000438(     7)      1   0.000748(    29)      2  -0.003173(    50)     0
      9  H        5  -0.000461(     8)      1   0.001065(    30)      2   0.003746(    51)     0
     10  H        5   0.000794(     9)      1  -0.001741(    31)      2   0.000181(    52)     0
     11  H        5  -0.000433(    10)      1   0.001036(    32)      2  -0.003636(    53)     0
     12  H        4  -0.000918(    11)      1  -0.001841(    33)      5   0.000129(    54)     0
     13  H        4  -0.000883(    12)      1  -0.001923(    34)      5  -0.000287(    55)     0
     14  H        4  -0.001367(    13)      1  -0.002330(    35)      5   0.000159(    56)     0
     15  C        3   0.039879(    14)      1  -0.205024(    36)      2  -0.012624(    57)     0
     16  C       15  -0.031270(    15)      2  -0.074333(    37)      1   0.004720(    58)     0
     17  C       16   0.064087(    16)     15  -0.068032(    38)      2   0.008895(    59)     0
     18  C       17   0.079788(    17)     16  -0.116685(    39)     15   0.005139(    60)     0
     19  C        2  -0.011558(    18)      1   0.120602(    40)      3  -0.005528(    61)     0
     20  H       15  -0.001871(    19)      2  -0.004126(    41)      1   0.000114(    62)     0
     21  H       16   0.002641(    20)     15   0.004393(    42)      2   0.000529(    63)     0
     22  O       17   0.396697(    21)     16  -0.000042(    43)     15  -0.000221(    64)     0
     23  H       18   0.002663(    22)     17  -0.004603(    44)     16  -0.000229(    65)     0
     24  H       19  -0.002187(    23)      2  -0.003336(    45)      1  -0.000011(    66)     0
 -----------------------------------------------------------------------------------------------
 Internal  Forces:  Max     0.396697270 RMS     0.069779441

 GradGradGradGradGradGradGradGradGradGradGradGradGradGradGradGradGradGrad
 Berny optimization.
 Search for a local minimum.
 Step number   1 out of a maximum of   76
 All quantities printed in internal units (Hartrees-Bohrs-Radians)
 Second derivative matrix not updated -- first step.
 ITU=  0
     Eigenvalues ---    0.00460   0.00460   0.06475   0.07275   0.08355
     Eigenvalues ---    0.09735   0.10827   0.10837   0.10872   0.11240
     Eigenvalues ---    0.12698   0.12930   0.15469   0.19060   0.19203
     Eigenvalues ---    0.19965   0.20076   0.20299   0.20299   0.20299
     Eigenvalues ---    0.20299   0.20849   0.22444   0.22640   0.25590
     Eigenvalues ---    0.27121   0.28571   0.30245   0.30959   0.33985
     Eigenvalues ---    0.33992   0.35162   0.35162   0.35162   0.35162
     Eigenvalues ---    0.35254   0.37373   0.37721   0.37836   0.39362
     Eigenvalues ---    0.43240   0.43240   0.43240   0.43949   0.45658
     Eigenvalues ---    0.46459   0.46459   0.49394   0.50012   0.55413
     Eigenvalues ---    0.63185   0.66011   0.76344   1.28719   1.90502
     Eigenvalues ---    2.60777  14.17051  39.055901000.000001000.00000
     Eigenvalues --- 1000.000001000.000001000.000001000.000001000.00000
     Eigenvalues --- 1000.00000
 RFO step:  Lambda=-1.16091578D-01 EMin= 4.60000002D-03
 Linear search not attempted -- first point.
 Maximum step size (   0.300) exceeded in Quadratic search.
    -- Step size scaled by   0.908
 Variable       Old X    -DE/DX   Delta X   Delta X   Delta X     New X
                                 (Linear)    (Quad)   (Total)
    B1        3.97598  -0.01497   0.00000   0.00861   0.00861   3.98459
    B2        4.27834  -0.04381   0.00000  -0.00292  -0.00292   4.27542
    B3        4.20842  -0.01101   0.00000  -0.04375  -0.04375   4.16467
    B4        4.28968   0.00401   0.00000   0.01063   0.01063   4.30031
    B5        2.70420  -0.00043   0.00000  -0.00124  -0.00124   2.70296
    B6        2.71554   0.00076   0.00000   0.00219   0.00219   2.71773
    B7        2.70420  -0.00044   0.00000  -0.00125  -0.00125   2.70295
    B8        2.70420  -0.00046   0.00000  -0.00131  -0.00131   2.70289
    B9        2.71176   0.00079   0.00000   0.00228   0.00228   2.71403
   B10        2.70420  -0.00043   0.00000  -0.00123  -0.00123   2.70297
   B11        1.94075  -0.00092   0.00000  -0.00152  -0.00152   1.93923
   B12        1.94075  -0.00088   0.00000  -0.00146  -0.00146   1.93929
   B13        1.94075  -0.00137   0.00000  -0.00226  -0.00226   1.93848
   B14        5.65784   0.03988   0.00000   0.05479   0.05479   5.71263
   B15        2.63617  -0.03127   0.00000  -0.02041  -0.02041   2.61576
   B16        2.63617   0.06409   0.00000   0.10518   0.10518   2.74134
   B17        2.63617   0.07979   0.00000   0.10123   0.10123   2.73740
   B18        2.63617  -0.01156   0.00000  -0.02299  -0.02299   2.61318
   B19        2.05413  -0.00187   0.00000  -0.00363  -0.00363   2.05050
   B20        2.05413   0.00264   0.00000   0.00513   0.00513   2.05926
   B21        2.05413   0.39670   0.00000   0.17828   0.17828   2.23242
   B22        2.05413   0.00266   0.00000   0.00517   0.00517   2.05930
   B23        2.05413  -0.00219   0.00000  -0.00425  -0.00425   2.04989
    A4        2.10670   0.00095   0.00000   0.00167   0.00167   2.10837
    A5        2.07342  -0.00101   0.00000  -0.00122  -0.00122   2.07220
    A6        2.10696   0.00075   0.00000   0.00148   0.00148   2.10844
    A7        2.09638   0.00106   0.00000   0.00526   0.00526   2.10165
    A8        2.09677  -0.00174   0.00000  -0.00971  -0.00971   2.08706
    A9        2.09647   0.00104   0.00000   0.00502   0.00502   2.10150
   A10        1.94634  -0.00184   0.00000  -0.00356  -0.00356   1.94278
   A11        1.94641  -0.00192   0.00000  -0.00357  -0.00357   1.94283
   A12        1.97542  -0.00233   0.00000  -0.00468  -0.00468   1.97074
   A13        1.21126  -0.20502   0.00000  -0.00503  -0.00503   1.20623
   A14        2.09412  -0.07433   0.00000   0.05318   0.05318   2.14729
   A15        2.09440  -0.06803   0.00000   0.04571   0.04571   2.14010
   A16        2.09440  -0.11669   0.00000  -0.13091  -0.13091   1.96348
   A17        2.09422   0.12060   0.00000   0.05363   0.05363   2.14785
   A18        2.09455  -0.00413   0.00000  -0.02456  -0.02456   2.06999
   A19        2.09440   0.00439   0.00000  -0.00762  -0.00762   2.08677
   A20        2.09440  -0.00004   0.00000   0.05306   0.05306   2.14746
   A21        2.09440  -0.00460   0.00000  -0.02062  -0.02062   2.07377
   A22        2.09412  -0.00334   0.00000  -0.03473  -0.03473   2.05938
    D3        1.05941   0.00349   0.00000   0.00674   0.00674   1.06616
    D4        3.14159  -0.00010   0.00000   0.00000   0.00000   3.14160
    D5        5.22203  -0.00317   0.00000  -0.00583  -0.00583   5.21619
    D6        1.04720   0.00375   0.00000   0.01358   0.01358   1.06078
    D7        3.13985   0.00018   0.00000   0.00101   0.00101   3.14086
    D8        5.23424  -0.00364   0.00000  -0.01241  -0.01241   5.22184
    D9        5.23250   0.00013   0.00000   0.00010   0.00010   5.23260
   D10        1.05243  -0.00029   0.00000  -0.00045  -0.00045   1.05199
   D11        3.14159   0.00016   0.00000   0.00035   0.00035   3.14195
   D14        6.26573   0.00889   0.00000   0.00481   0.00481   6.27055
   D16        3.13287  -0.00553   0.00000  -0.00219  -0.00219   3.13067
   D17        6.26748   0.00011   0.00000   0.00080   0.00080   6.26828
   D18        3.12414   0.00053   0.00000   0.00318   0.00318   3.12732
   D19        3.14159  -0.00022   0.00000  -0.00232  -0.00232   3.13927
   D20        3.14159  -0.00023   0.00000  -0.00275  -0.00275   3.13884
   D21        0.01571  -0.00001   0.00000  -0.00101  -0.00101   0.01470
    A1        1.57080  -0.25394   0.00000   0.00000   0.00000   1.57080
    A2        1.57080   0.00125   0.00000   0.00000   0.00000   1.57080
    A3        1.57080   0.05675   0.00000   0.00000   0.00000   1.57080
    D1        3.14159  -0.00015   0.00000   0.00000   0.00000   3.14159
    D2       -3.14159   0.00009   0.00000   0.00000   0.00000  -3.14159
   D13        3.14159   0.00472   0.00000   0.00000   0.00000   3.14159
   D15        6.28319   0.00514   0.00000   0.00000   0.00000   6.28319
   D12        0.00000  -0.01262   0.00000   0.00000   0.00000   0.00000
         Item               Value     Threshold  Converged?
 Maximum Force            0.396697     0.000450     NO 
 RMS     Force            0.066105     0.000300     NO 
 Maximum Displacement     0.178284     0.001800     NO 
 RMS     Displacement     0.036927     0.001200     NO 
 Predicted change in Energy=-6.278211D-02
 GradGradGradGradGradGradGradGradGradGradGradGradGradGradGradGradGradGrad

 ---------------------------------------------------------------------------------------------------
                            Z-MATRIX (ANGSTROMS AND DEGREES)
   CD    Cent   Atom    N1       Length/X        N2       Alpha/Y        N3        Beta/Z          J
 ---------------------------------------------------------------------------------------------------
      1      1  Ir
      2      2  N        1   2.108554(     1)
      3      3  P        1   2.262454(     2)      2   90.000(    24)
      4      4  N        1   2.203846(     3)      3   90.000(    25)      2  180.000(    46)      0
      5      5  P        1   2.275623(     4)      2   90.000(    26)      3 -180.000(    47)      0
      6      6  H        3   1.430345(     5)      1  120.801(    27)      2   61.086(    48)      0
      7      7  H        3   1.438161(     6)      1  118.728(    28)      2  180.000(    49)      0
      8      8  H        3   1.430340(     7)      1  120.805(    29)      2  298.866(    50)      0
      9      9  H        5   1.430306(     8)      1  120.416(    30)      2   60.778(    51)      0
     10     10  H        5   1.436205(     9)      1  119.580(    31)      2  179.958(    52)      0
     11     11  H        5   1.430348(    10)      1  120.407(    32)      2  299.189(    53)      0
     12     12  H        4   1.026196(    11)      1  111.313(    33)      5  299.806(    54)      0
     13     13  H        4   1.026226(    12)      1  111.316(    34)      5   60.274(    55)      0
     14     14  H        4   1.025802(    13)      1  112.915(    35)      5  180.020(    56)      0
     15     15  C        3   3.022992(    14)      1   69.112(    36)      2    0.000(    57)      0
     16     16  C       15   1.384199(    15)      2  123.031(    37)      1  180.000(    58)      0
     17     17  C       16   1.450657(    16)     15  122.619(    38)      2  359.276(    59)      0
     18     18  C       17   1.448571(    17)     16  112.499(    39)     15  360.000(    60)      0
     19     19  C        2   1.382836(    18)      1  123.063(    40)      3  179.374(    61)      0
     20     20  H       15   1.085077(    19)      2  118.602(    41)      1  359.146(    62)      0
     21     21  H       16   1.089714(    20)     15  119.563(    42)      2  179.182(    63)      0
     22     22  O       17   1.181344(    21)     16  123.040(    43)     15  179.867(    64)      0
     23     23  H       18   1.089737(    22)     17  118.818(    44)     16  179.842(    65)      0
     24     24  H       19   1.084753(    23)      2  117.994(    45)      1    0.842(    66)      0
 ---------------------------------------------------------------------------------------------------
                         Z-Matrix orientation:                         
 ---------------------------------------------------------------------
 Center     Atomic      Atomic             Coordinates (Angstroms)
 Number     Number       Type             X           Y           Z
 ---------------------------------------------------------------------
      1         77           0        0.000000    0.000000    0.000000
      2          7           0        0.000000    0.000000    2.108554
      3         15           0        2.262454    0.000000    0.000000
      4          7           0        0.000000    0.000000   -2.203846
      5         15           0       -2.275623    0.000000    0.000000
      6          1           0        2.994873   -1.075452    0.594015
      7          1           0        2.953717    0.000005   -1.261136
      8          1           0        2.994948    1.075904    0.593090
      9          1           0       -2.999741    1.076488    0.602164
     10          1           0       -2.984586    0.000918   -1.249022
     11          1           0       -2.999577   -1.076957    0.601624
     12          1           0       -0.475200   -0.829547   -2.576828
     13          1           0       -0.474039    0.830218   -2.576894
     14          1           0        0.944849   -0.000334   -2.603258
     15          6           0        1.184626    0.000000    2.824317
     16          6           0        1.230281    0.000000    4.207762
     17          6           0        0.034983    0.015443    5.029608
     18          6           0       -1.179909    0.030461    4.240830
     19          6           0       -1.158852    0.012656    2.862966
     20          1           0        2.121828   -0.014204    2.277652
     21          1           0        2.195247   -0.013530    4.713861
     22          8           0        0.065234    0.013252    6.210562
     23          1           0       -2.140344    0.040182    4.755609
     24          1           0       -2.108156    0.008940    2.338089
 ---------------------------------------------------------------------
                    Distance matrix (angstroms):
                    1          2          3          4          5
     1  Ir   0.000000
     2  N    2.108554   0.000000
     3  P    2.262454   3.092685   0.000000
     4  N    2.203846   4.312400   3.158423   0.000000
     5  P    2.275623   3.102332   4.538078   3.167870   0.000000
     6  H    3.237084   3.524158   1.430345   4.237202   5.411800
     7  H    3.211683   4.480988   1.438161   3.100508   5.379263
     8  H    3.237135   3.524758   1.430340   4.236760   5.411862
     9  H    3.243435   3.525121   5.404824   4.246288   1.430306
    10  H    3.235400   4.492335   5.393653   3.133599   1.436205
    11  H    3.243339   3.525356   5.404698   4.245935   1.430348
    12  H    2.748455   4.781921   3.850057   1.026196   3.251110
    13  H    2.748519   4.781987   3.849420   1.026226   3.251977
    14  H    2.769421   4.805613   2.917711   1.025802   4.141062
    15  C    3.062695   1.384072   3.022992   5.165826   4.466552
    16  C    4.383932   2.433160   4.332510   6.528577   5.476918
    17  C    5.029753   2.921304   5.500802   7.233555   5.534988
    18  C    4.402017   2.437153   5.462182   6.551868   4.380201
    19  C    3.088636   1.382836   4.461173   5.197661   3.073095
    20  H    3.112886   2.128603   2.282033   4.958446   4.952321
    21  H    5.199978   3.406892   4.714359   7.257683   6.496872
    22  O    6.210919   4.102548   6.587794   8.414671   6.637083
    23  H    5.215219   3.404348   6.480900   7.281257   4.757703
    24  H    3.148184   2.120634   4.956710   5.007352   2.344096
                    6          7          8          9         10
     6  H    0.000000
     7  H    2.144734   0.000000
     8  H    2.151355   2.144158   0.000000
     9  H    6.369168   6.330432   5.994696   0.000000
    10  H    6.348959   5.938316   6.348528   2.141021   0.000000
    11  H    5.994454   6.330200   6.369396   2.153445   2.141712
    12  H    4.707028   3.765193   5.071593   4.484670   2.957999
    13  H    5.071448   3.764304   4.705638   4.067706   2.958688
    14  H    3.947282   2.415956   3.946877   5.195581   4.156250
    15  C    3.067219   4.452034   3.068095   4.858571   5.828758
    16  C    4.162878   5.734028   4.163829   5.661470   6.895042
    17  C    5.442930   6.934890   5.437707   5.471528   6.967008
    18  C    5.652531   6.881819   5.641666   4.200696   5.778945
    19  C    4.856495   5.824225   4.851483   3.103520   4.499099
    20  H    2.173266   3.635280   2.188246   5.497939   6.205895
    21  H    4.328996   6.022960   4.336720   6.714319   7.898534
    22  O    6.427570   8.010604   6.424052   6.479094   8.058967
    23  H    6.703279   7.883673   6.691077   4.366188   6.063818
    24  H    5.500782   6.211043   5.497736   2.224414   3.692635
                   11         12         13         14         15
    11  H    0.000000
    12  H    4.066478   0.000000
    13  H    4.485380   1.659765   0.000000
    14  H    5.195082   1.644637   1.644309   0.000000
    15  C    4.858780   5.711001   5.710824   5.432869   0.000000
    16  C    5.661781   7.044677   7.044539   6.816999   1.384199
    17  C    5.478040   7.670212   7.666931   7.686921   2.487012
    18  C    4.216798   6.907727   6.900669   7.166386   2.756532
    19  C    3.112746   5.546895   5.543415   5.857075   2.343831
    20  H    5.492477   5.565547   5.569398   5.020833   1.085077
    21  H    6.710257   7.807132   7.809744   7.423200   2.142875
    22  O    6.483965   8.844241   8.841811   8.857614   3.566493
    23  H    4.386556   7.569265   7.560842   7.979536   3.845378
    24  H    2.233632   5.246523   5.244225   5.808428   3.328500
                   16         17         18         19         20
    16  C    0.000000
    17  C    1.450657   0.000000
    18  C    2.410610   1.448571   0.000000
    19  C    2.741640   2.473779   1.378140   0.000000
    20  H    2.126120   3.453848   3.841554   3.332593   0.000000
    21  H    1.089714   2.183409   3.408427   3.830988   2.437315
    22  O    2.317049   1.181344   2.330348   3.564377   4.438255
    23  H    3.415093   2.192654   1.089737   2.132178   4.930451
    24  H    3.826346   3.440546   2.117199   1.084753   4.230480
                   21         22         23         24
    21  H    0.000000
    22  O    2.603418   0.000000
    23  H    4.336124   2.642383   0.000000
    24  H    4.915696   4.440686   2.417937   0.000000
 Stoichiometry    C5H13IrN2OP2
 Framework group  C1[X(C5H13IrN2OP2)]
 Deg. of freedom    66
 Full point group                 C1      NOp   1
 Largest Abelian subgroup         C1      NOp   1
 Largest concise Abelian subgroup C1      NOp   1
                         Standard orientation:                         
 ---------------------------------------------------------------------
 Center     Atomic      Atomic             Coordinates (Angstroms)
 Number     Number       Type             X           Y           Z
 ---------------------------------------------------------------------
      1         77           0       -0.989663   -0.003257    0.000450
      2          7           0        1.118795    0.016243    0.005460
      3         15           0       -0.968729   -2.265611   -0.003722
      4          7           0       -3.193409   -0.023640   -0.004785
      5         15           0       -1.010719    2.272265    0.004647
      6          1           0       -0.370501   -2.994510    1.071785
      7          1           0       -2.223411   -2.968507   -0.007998
      8          1           0       -0.366351   -2.990580   -1.079562
      9          1           0       -0.412743    3.003927   -1.069071
     10          1           0       -2.266242    2.969646    0.002069
     11          1           0       -0.418361    2.999740    1.084363
     12          1           0       -3.572727    0.446542    0.824748
     13          1           0       -3.568868    0.448477   -0.835012
     14          1           0       -3.584061   -0.972141   -0.007143
     15          6           0        1.845486   -1.161710    0.004976
     16          6           0        3.229291   -1.194568    0.008178
     17          6           0        4.040075    0.008306   -0.003107
     18          6           0        3.240128    1.215877   -0.017759
     19          6           0        1.862479    1.182044   -0.003266
     20          1           0        1.307484   -2.103953    0.016153
     21          1           0        3.744263   -2.154836    0.021131
     22          8           0        5.221250   -0.011026    0.001833
     23          1           0        3.746020    2.181048   -0.024486
     24          1           0        1.328833    2.126445    0.000953
 ---------------------------------------------------------------------
 Rotational constants (GHZ):           1.0829926           0.3462129           0.2640084
 Basis read from rwf:  (5D, 7F)
 Pseudo-potential data read from rwf file.
 There are   363 symmetry adapted cartesian basis functions of A   symmetry.
 There are   350 symmetry adapted basis functions of A   symmetry.
   350 basis functions,   557 primitive gaussians,   363 cartesian basis functions
    56 alpha electrons       56 beta electrons
       nuclear repulsion energy       952.4513763077 Hartrees.
 NAtoms=   24 NActive=   24 NUniq=   24 SFac= 1.00D+00 NAtFMM=   60 NAOKFM=F Big=F
 Integral buffers will be    131072 words long.
 Raffenetti 2 integral format.
 Two-electron integral symmetry is turned on.
 One-electron integrals computed using PRISM.
   1 Symmetry operations used in ECPInt.
 ECPInt:  NShTT=    9870 NPrTT=   31870 LenC2=    9091 LenP2D=   21301.
[...]

 Orbital symmetries:
       Occupied  (A) (A) (A) (A) (A) (A) (A) (A) (A) (A) (A) (A)
                 (A) (A) (A) (A) (A) (A) (A) (A) (A) (A) (A) (A)
                 (A) (A) (A) (A) (A) (A) (A) (A) (A) (A) (A) (A)
                 (A) (A) (A) (A) (A) (A) (A) (A) (A) (A) (A) (A)
                 (A) (A) (A) (A) (A) (A) (A) (A)
       Virtual   (A) (A) (A) (A) (A) (A) (A) (A) (A) (A) (A) (A)
                 (A) (A) (A) (A) (A) (A) (A) (A) (A) (A) (A) (A)
                 (A) (A) (A) (A) (A) (A) (A) (A) (A) (A) (A) (A)
                 (A) (A) (A) (A) (A) (A) (A) (A) (A) (A) (A) (A)
                 (A) (A) (A) (A) (A) (A) (A) (A) (A) (A) (A) (A)
                 (A) (A) (A) (A) (A) (A) (A) (A) (A) (A) (A) (A)
                 (A) (A) (A) (A) (A) (A) (A) (A) (A) (A) (A) (A)
                 (A) (A) (A) (A) (A) (A) (A) (A) (A) (A) (A) (A)
                 (A) (A) (A) (A) (A) (A) (A) (A) (A) (A) (A) (A)
                 (A) (A) (A) (A) (A) (A) (A) (A) (A) (A) (A) (A)
                 (A) (A) (A) (A) (A) (A) (A) (A) (A) (A) (A) (A)
                 (A) (A) (A) (A) (A) (A) (A) (A) (A) (A) (A) (A)
                 (A) (A) (A) (A) (A) (A) (A) (A) (A) (A) (A) (A)
                 (A) (A) (A) (A) (A) (A) (A) (A) (A) (A) (A) (A)
                 (A) (A) (A) (A) (A) (A) (A) (A) (A) (A) (A) (A)
                 (A) (A) (A) (A) (A) (A) (A) (A) (A) (A) (A) (A)
                 (A) (A) (A) (A) (A) (A) (A) (A) (A) (A) (A) (A)
                 (A) (A) (A) (A) (A) (A) (A) (A) (A) (A) (A) (A)
                 (A) (A) (A) (A) (A) (A) (A) (A) (A) (A) (A) (A)
                 (A) (A) (A) (A) (A) (A) (A) (A) (A) (A) (A) (A)
                 (A) (A) (A) (A) (A) (A) (A) (A) (A) (A) (A) (A)
                 (A) (A) (A) (A) (A) (A) (A) (A) (A) (A) (A) (A)
                 (A) (A) (A) (A) (A) (A) (A) (A) (A) (A) (A) (A)
                 (A) (A) (A) (A) (A) (A) (A) (A) (A) (A) (A) (A)
                 (A) (A) (A) (A) (A) (A)
 The electronic state is 1-A.
 Alpha  occ. eigenvalues --  -76.34262 -76.34227 -18.65429 -14.07224 -14.00691
 Alpha  occ. eigenvalues --   -9.90329  -9.90316  -9.90226  -9.85289  -9.85281
 Alpha  occ. eigenvalues --   -6.35584  -6.35550  -4.57263  -4.57223  -4.57162
 Alpha  occ. eigenvalues --   -4.57133  -4.56864  -4.56832  -3.52660  -1.92133
 Alpha  occ. eigenvalues --   -1.91570  -1.87178  -0.87378  -0.87046  -0.84699
 Alpha  occ. eigenvalues --   -0.67387  -0.67250  -0.63934  -0.62951  -0.54669
 Alpha  occ. eigenvalues --   -0.52515  -0.50863  -0.50612  -0.45151  -0.41752
 Alpha  occ. eigenvalues --   -0.41274  -0.39913  -0.39586  -0.39071  -0.38802
 Alpha  occ. eigenvalues --   -0.38536  -0.36844  -0.35226  -0.34630  -0.31932
 Alpha  occ. eigenvalues --   -0.29875  -0.29662  -0.28572  -0.28529  -0.22984
 Alpha  occ. eigenvalues --   -0.21857  -0.21010  -0.18870  -0.17089  -0.14848
 Alpha  occ. eigenvalues --   -0.14668
 Alpha virt. eigenvalues --   -0.07489  -0.06602  -0.06558  -0.04090  -0.03885
 Alpha virt. eigenvalues --   -0.02246  -0.01591  -0.01308  -0.01252  -0.00347
 Alpha virt. eigenvalues --    0.00238   0.01132   0.01707   0.01911   0.02191
 Alpha virt. eigenvalues --    0.02925   0.03076   0.03545   0.05010   0.05522
 Alpha virt. eigenvalues --    0.05788   0.05981   0.06299   0.06994   0.08458
 Alpha virt. eigenvalues --    0.08600   0.08960   0.09368   0.09866   0.10241
 Alpha virt. eigenvalues --    0.10293   0.10931   0.11106   0.11595   0.12484
 Alpha virt. eigenvalues --    0.12858   0.13375   0.13905   0.14173   0.14344
 Alpha virt. eigenvalues --    0.14690   0.15258   0.15535   0.17156   0.17408
 Alpha virt. eigenvalues --    0.17765   0.17908   0.18855   0.19389   0.19600
 Alpha virt. eigenvalues --    0.19751   0.20138   0.21732   0.22376   0.22976
 Alpha virt. eigenvalues --    0.23613   0.24323   0.24440   0.24613   0.25289
 Alpha virt. eigenvalues --    0.25535   0.26437   0.26696   0.26789   0.28218
 Alpha virt. eigenvalues --    0.28654   0.28885   0.29796   0.31030   0.32034
 Alpha virt. eigenvalues --    0.32189   0.32743   0.32950   0.33546   0.34355
 Alpha virt. eigenvalues --    0.35911   0.36311   0.36660   0.38059   0.39271
 Alpha virt. eigenvalues --    0.39536   0.40092   0.41425   0.42243   0.42614
 Alpha virt. eigenvalues --    0.43766   0.43868   0.45644   0.46739   0.48402
 Alpha virt. eigenvalues --    0.49789   0.50415   0.50888   0.51345   0.52389
 Alpha virt. eigenvalues --    0.53520   0.55188   0.56599   0.56705   0.56959
 Alpha virt. eigenvalues --    0.59179   0.60944   0.61146   0.61484   0.61621
 Alpha virt. eigenvalues --    0.62939   0.64087   0.64509   0.65335   0.67346
 Alpha virt. eigenvalues --    0.67601   0.69307   0.69886   0.70430   0.70910
 Alpha virt. eigenvalues --    0.72281   0.74969   0.75269   0.75680   0.79031
 Alpha virt. eigenvalues --    0.79820   0.80936   0.82487   0.82761   0.85218
 Alpha virt. eigenvalues --    0.86363   0.86469   0.87644   0.88446   0.90472
 Alpha virt. eigenvalues --    0.91198   0.92609   0.92926   0.94210   0.95594
 Alpha virt. eigenvalues --    0.97901   0.99708   1.02829   1.04913   1.07695
 Alpha virt. eigenvalues --    1.08674   1.09569   1.11014   1.12961   1.14450
 Alpha virt. eigenvalues --    1.19577   1.20069   1.20297   1.20709   1.21891
 Alpha virt. eigenvalues --    1.23174   1.24880   1.26486   1.27310   1.27884
 Alpha virt. eigenvalues --    1.28130   1.30303   1.31535   1.32580   1.34168
 Alpha virt. eigenvalues --    1.37145   1.37957   1.41628   1.43313   1.44188
 Alpha virt. eigenvalues --    1.45640   1.46460   1.49126   1.51538   1.51847
 Alpha virt. eigenvalues --    1.53396   1.54677   1.54892   1.57110   1.58846
 Alpha virt. eigenvalues --    1.59478   1.60946   1.61968   1.63337   1.64254
 Alpha virt. eigenvalues --    1.65727   1.65755   1.68489   1.71287   1.73362
 Alpha virt. eigenvalues --    1.73576   1.75761   1.77003   1.78501   1.78928
 Alpha virt. eigenvalues --    1.81133   1.81540   1.83152   1.86270   1.87731
 Alpha virt. eigenvalues --    1.87836   1.89568   1.92981   1.96164   1.97772
 Alpha virt. eigenvalues --    1.99151   1.99600   2.03776   2.04682   2.04861
 Alpha virt. eigenvalues --    2.06944   2.07259   2.07619   2.12733   2.13914
 Alpha virt. eigenvalues --    2.19716   2.23913   2.29571   2.31401   2.37784
 Alpha virt. eigenvalues --    2.39266   2.41257   2.43292   2.43532   2.46975
 Alpha virt. eigenvalues --    2.49341   2.49754   2.50097   2.51102   2.53576
 Alpha virt. eigenvalues --    2.55035   2.57679   2.59965   2.61366   2.64380
 Alpha virt. eigenvalues --    2.66983   2.67463   2.68667   2.70907   2.72444
 Alpha virt. eigenvalues --    2.73267   2.77094   2.80213   2.81820   2.83792
 Alpha virt. eigenvalues --    2.85403   2.86459   2.86978   2.89792   2.90379
 Alpha virt. eigenvalues --    2.90519   2.92083   2.92640   2.95464   3.10426
 Alpha virt. eigenvalues --    3.17381   3.29774   3.33755   3.36772   3.47743
 Alpha virt. eigenvalues --    3.50236   3.57823   3.62699   3.76980   3.83105
 Alpha virt. eigenvalues --    3.93324   3.98050   4.04087   4.11156   4.30863
 Alpha virt. eigenvalues --    4.48973   4.49112   4.49384   5.00844   5.05618
 Alpha virt. eigenvalues --    5.16340   5.68374   6.95613   6.98033  13.64191
 Alpha virt. eigenvalues --   13.67986  13.75456  13.76983  13.79537  13.85557
 Alpha virt. eigenvalues --   23.48147  23.61330  23.71835  23.88879  23.91075
 Alpha virt. eigenvalues --   35.20052  35.28100  47.20630  47.48379  47.59405
 Alpha virt. eigenvalues --   49.69696 139.41754 162.53052 162.56146
          Condensed to atoms (all electrons):
               1          2          3          4          5          6
     1  Ir  17.944853  -0.692816  -0.045007  -0.342414   0.003339  -0.035014
     2  N   -0.692816   7.420261  -0.004439   0.134817  -0.096754   0.004229
     3  P   -0.045007  -0.004439  14.840682   0.044907  -0.194172   0.355745
     4  N   -0.342414   0.134817   0.044907   6.823515   0.005596   0.000738
     5  P    0.003339  -0.096754  -0.194172   0.005596  14.797127   0.001207
     6  H   -0.035014   0.004229   0.355745   0.000738   0.001207   0.670917
     7  H   -0.001910   0.002117   0.234962  -0.006059   0.007378  -0.017404
     8  H   -0.030366   0.004935   0.347280  -0.002547   0.002249  -0.040587
     9  H   -0.028584   0.005202   0.003403  -0.003298   0.339687   0.000001
    10  H   -0.020475   0.000314   0.003798   0.006963   0.267418   0.000001
    11  H   -0.032578   0.003885   0.002523  -0.000008   0.349446  -0.000024
    12  H   -0.008258  -0.001702   0.000858   0.326744   0.004785   0.000282
    13  H   -0.019303   0.000235   0.002786   0.327179   0.002849  -0.000137
    14  H    0.040660  -0.008016   0.002108   0.293396  -0.000473  -0.000741
    15  C   -0.830093   0.286541   0.604554   0.020284  -0.238651  -0.052926
    16  C    0.895257  -0.397485  -0.837092  -0.067235   0.272587   0.028668
    17  C   -0.127873   0.022367  -0.009334   0.005335  -0.032124   0.006114
    18  C    0.584302  -0.250751   0.227684  -0.041604  -0.649066  -0.006118
    19  C   -0.515021   0.169668  -0.193453   0.017186   0.469105  -0.000598
    20  H   -0.017105  -0.120212  -0.002639  -0.002148   0.008409  -0.002287
    21  H    0.003134   0.029072  -0.002445   0.000019  -0.000113   0.000019
    22  O   -0.004379  -0.015559   0.000998   0.000001   0.000439   0.000000
    23  H    0.003346   0.028572  -0.000145   0.000018  -0.001854   0.000000
    24  H   -0.018842  -0.124142   0.003976   0.000285   0.005037  -0.000008
               7          8          9         10         11         12
     1  Ir  -0.001910  -0.030366  -0.028584  -0.020475  -0.032578  -0.008258
     2  N    0.002117   0.004935   0.005202   0.000314   0.003885  -0.001702
     3  P    0.234962   0.347280   0.003403   0.003798   0.002523   0.000858
     4  N   -0.006059  -0.002547  -0.003298   0.006963  -0.000008   0.326744
     5  P    0.007378   0.002249   0.339687   0.267418   0.349446   0.004785
     6  H   -0.017404  -0.040587   0.000001   0.000001  -0.000024   0.000282
     7  H    0.723819  -0.017547  -0.000000  -0.000027   0.000001  -0.000606
     8  H   -0.017547   0.670186  -0.000024  -0.000000   0.000001  -0.000118
     9  H   -0.000000  -0.000024   0.672995  -0.018144  -0.038210   0.000253
    10  H   -0.000027  -0.000000  -0.018144   0.704941  -0.018916   0.004165
    11  H    0.000001   0.000001  -0.038210  -0.018916   0.672931  -0.000600
    12  H   -0.000606  -0.000118   0.000253   0.004165  -0.000600   0.440445
    13  H   -0.000962   0.000401  -0.000055   0.001406   0.000074  -0.022934
    14  H    0.016811  -0.000199  -0.000037   0.000052   0.000014  -0.024485
    15  C    0.014495  -0.053115   0.001376   0.001231   0.000051   0.000745
    16  C    0.010469   0.034224  -0.008380  -0.000910  -0.007215   0.000516
    17  C   -0.000395   0.006297   0.006477  -0.000390   0.006593  -0.000019
    18  C   -0.001473  -0.007436   0.040743   0.007803   0.037176   0.000169
    19  C    0.000689   0.000471  -0.057023   0.010785  -0.058176  -0.000258
    20  H    0.003012  -0.002629  -0.000001  -0.000010  -0.000006  -0.000001
    21  H   -0.000007   0.000020  -0.000000   0.000000  -0.000000  -0.000000
    22  O   -0.000000  -0.000000   0.000001  -0.000000   0.000002   0.000000
    23  H    0.000000   0.000000   0.000018  -0.000008   0.000015  -0.000000
    24  H   -0.000009  -0.000003  -0.002888   0.003026  -0.002889  -0.000056
              13         14         15         16         17         18
     1  Ir  -0.019303   0.040660  -0.830093   0.895257  -0.127873   0.584302
     2  N    0.000235  -0.008016   0.286541  -0.397485   0.022367  -0.250751
     3  P    0.002786   0.002108   0.604554  -0.837092  -0.009334   0.227684
     4  N    0.327179   0.293396   0.020284  -0.067235   0.005335  -0.041604
     5  P    0.002849  -0.000473  -0.238651   0.272587  -0.032124  -0.649066
     6  H   -0.000137  -0.000741  -0.052926   0.028668   0.006114  -0.006118
     7  H   -0.000962   0.016811   0.014495   0.010469  -0.000395  -0.001473
     8  H    0.000401  -0.000199  -0.053115   0.034224   0.006297  -0.007436
     9  H   -0.000055  -0.000037   0.001376  -0.008380   0.006477   0.040743
    10  H    0.001406   0.000052   0.001231  -0.000910  -0.000390   0.007803
    11  H    0.000074   0.000014   0.000051  -0.007215   0.006593   0.037176
    12  H   -0.022934  -0.024485   0.000745   0.000516  -0.000019   0.000169
    13  H    0.449308  -0.025904   0.000261   0.000124   0.000021   0.000049
    14  H   -0.025904   0.439174   0.000102   0.001511  -0.000169   0.001232
    15  C    0.000261   0.000102  17.506999  -9.750379   0.384161   0.075109
    16  C    0.000124   0.001511  -9.750379  16.960216  -0.709694  -1.513302
    17  C    0.000021  -0.000169   0.384161  -0.709694   6.912942  -0.463009
    18  C    0.000049   0.001232   0.075109  -1.513302  -0.463009  14.939357
    19  C    0.000196   0.001710  -1.578367   0.299436   0.087520  -7.690092
    20  H   -0.000015   0.000104   0.231629   0.205138   0.003160  -0.054127
    21  H   -0.000000  -0.000000  -0.007493   0.292595   0.036539   0.001154
    22  O    0.000000  -0.000000   0.075269  -0.263601   0.531012  -0.243434
    23  H   -0.000000   0.000000   0.004338   0.001528   0.038231   0.285964
    24  H   -0.000075   0.000020  -0.001997  -0.033202   0.002682   0.187280
              19         20         21         22         23         24
     1  Ir  -0.515021  -0.017105   0.003134  -0.004379   0.003346  -0.018842
     2  N    0.169668  -0.120212   0.029072  -0.015559   0.028572  -0.124142
     3  P   -0.193453  -0.002639  -0.002445   0.000998  -0.000145   0.003976
     4  N    0.017186  -0.002148   0.000019   0.000001   0.000018   0.000285
     5  P    0.469105   0.008409  -0.000113   0.000439  -0.001854   0.005037
     6  H   -0.000598  -0.002287   0.000019   0.000000   0.000000  -0.000008
     7  H    0.000689   0.003012  -0.000007  -0.000000   0.000000  -0.000009
     8  H    0.000471  -0.002629   0.000020  -0.000000   0.000000  -0.000003
     9  H   -0.057023  -0.000001  -0.000000   0.000001   0.000018  -0.002888
    10  H    0.010785  -0.000010   0.000000  -0.000000  -0.000008   0.003026
    11  H   -0.058176  -0.000006  -0.000000   0.000002   0.000015  -0.002889
    12  H   -0.000258  -0.000001  -0.000000   0.000000  -0.000000  -0.000056
    13  H    0.000196  -0.000015  -0.000000   0.000000  -0.000000  -0.000075
    14  H    0.001710   0.000104  -0.000000  -0.000000   0.000000   0.000020
    15  C   -1.578367   0.231629  -0.007493   0.075269   0.004338  -0.001997
    16  C    0.299436   0.205138   0.292595  -0.263601   0.001528  -0.033202
    17  C    0.087520   0.003160   0.036539   0.531012   0.038231   0.002682
    18  C   -7.690092  -0.054127   0.001154  -0.243434   0.285964   0.187280
    19  C   15.361925   0.020665   0.005002   0.050796  -0.002448   0.252068
    20  H    0.020665   0.666168  -0.013184  -0.001037   0.000140  -0.000813
    21  H    0.005002  -0.013184   0.536741  -0.007355  -0.000299   0.000144
    22  O    0.050796  -0.001037  -0.007355   8.256878  -0.007323  -0.001073
    23  H   -0.002448   0.000140  -0.000299  -0.007323   0.536667  -0.013160
    24  H    0.252068  -0.000813   0.000144  -0.001073  -0.013160   0.668215
 Mulliken charges:
               1
     1  Ir   0.295148
     2  N    0.599662
     3  P   -0.387539
     4  N   -0.541670
     5  P   -0.323453
     6  H    0.087920
     7  H    0.032644
     8  H    0.088508
     9  H    0.086489
    10  H    0.046976
    11  H    0.085909
    12  H    0.280079
    13  H    0.284498
    14  H    0.263132
    15  C   -0.694127
    16  C    0.586227
    17  C   -0.706443
    18  C    0.532390
    19  C   -0.651785
    20  H    0.077789
    21  H    0.126454
    22  O   -0.371632
    23  H    0.126399
    24  H    0.076425
 Sum of Mulliken charges =  -0.00000
 Mulliken charges with hydrogens summed into heavy atoms:
               1
     1  Ir   0.295148
     2  N    0.599662
     3  P   -0.178466
     4  N    0.286038
     5  P   -0.104079
    15  C   -0.616338
    16  C    0.712681
    17  C   -0.706443
    18  C    0.658789
    19  C   -0.575361
    22  O   -0.371632
 Electronic spatial extent (au):  <R**2>=           3692.9418
 Charge=              0.0000 electrons
 Dipole moment (field-independent basis, Debye):
    X=            -15.3556    Y=              0.0511    Z=             -0.0148  Tot=             15.3557
 Quadrupole moment (field-independent basis, Debye-Ang):
   XX=           -133.6405   YY=            -82.9374   ZZ=           -105.2563
   XY=             -0.1937   XZ=              0.0285   YZ=              0.0047
 Traceless Quadrupole moment (field-independent basis, Debye-Ang):
   XX=            -26.3624   YY=             24.3407   ZZ=              2.0218
   XY=             -0.1937   XZ=              0.0285   YZ=              0.0047
 Octapole moment (field-independent basis, Debye-Ang**2):
  XXX=           -530.6627  YYY=             -0.7474  ZZZ=             -0.4143  XYY=            -50.0893
  XXY=              0.4169  XXZ=              0.0433  XZZ=            -52.4452  YZZ=              0.9685
  YYZ=              0.3028  XYZ=             -0.0131
 Hexadecapole moment (field-independent basis, Debye-Ang**3):
 XXXX=          -5040.6507 YYYY=          -1325.8581 ZZZZ=           -172.7024 XXXY=             -0.8716
 XXXZ=             -0.2577 YYYX=              1.8496 YYYZ=             -0.0042 ZZZX=              1.5268
 ZZZY=             -0.0015 XXYY=           -777.0591 XXZZ=           -622.8594 YYZZ=           -259.6431
 XXYZ=              0.0759 YYXZ=             -1.2604 ZZXY=             -3.7117
 N-N= 9.492027529527D+02 E-N=-4.632044920379D+03  KE= 1.098349382834D+03
 Unable to Open any file for archive entry.
 1\1\GINC-NODE003\POpt\RPBEPBE\GenECP\C5H13Ir1N2O1P2\MVANVLEET\03-Jun-2
 024\1\\# PBEPBE GenECP POpt\\trans-(H)Ir(PH3)2(NH3)\\0,1\Ir\N,1,B1\P,1
 ,B2,2,A1\N,1,B3,3,A2,2,D1,0\P,1,B4,2,A3,3,D2,0\H,3,B5,1,A4,2,D3,0\H,3,
 B6,1,A5,2,D4,0\H,3,B7,1,A6,2,D5,0\H,5,B8,1,A7,2,D6,0\H,5,B9,1,A8,2,D7,
 0\H,5,B10,1,A9,2,D8,0\H,4,B11,1,A10,5,D9,0\H,4,B12,1,A11,5,D10,0\H,4,B
 13,1,A12,5,D11,0\C,3,B14,1,A13,2,D12,0\C,15,B15,2,A14,1,D13,0\C,16,B16
 ,15,A15,2,D14,0\C,17,B17,16,A16,15,D15,0\C,2,B18,1,A17,3,D16,0\H,15,B1
 9,2,A18,1,D17,0\H,16,B20,15,A19,2,D18,0\O,17,B21,16,A20,15,D19,0\H,18,
 B22,17,A21,16,D20,0\H,19,B23,2,A22,1,D21,0\\B1=2.10973817\B2=2.2773747
 4\B3=2.14723139\B4=2.28329166\B5=1.42881628\B6=1.43931601\B7=1.4287902
 7\B8=1.42874263\B9=1.43718218\B10=1.42878169\B11=1.02664924\B12=1.0272
 6361\B13=1.02602539\B14=3.08671021\B15=1.3718333\B16=1.4563418\B17=1.4
 5617434\B18=1.37914714\B19=1.09012127\B20=1.09262191\B21=1.25005742\B2
 2=1.09262279\B23=1.08990019\A4=121.26028191\A5=117.23586728\A6=121.209
 40589\A7=120.84846771\A8=118.1369756\A9=120.81857088\A10=111.80468278\
 A11=111.11091067\A12=113.02809455\A13=68.55557366\A14=125.81464792\A15
 =122.21390414\A16=111.1687089\A17=123.62962699\A18=116.80238364\A19=11
 9.22233581\A20=124.40374397\A21=118.57403569\A22=116.81737492\D3=62.03
 286573\D4=179.89095781\D5=297.67977942\D6=61.84183662\D7=180.16541005\
 D8=298.43954149\D9=306.9682035\D10=67.43328439\D11=187.16648045\D14=36
 0.02316104\D16=180.03863944\D17=360.09545287\D18=179.99385946\D19=180.
 01533111\D20=179.99653126\D21=-0.0161202\A1=90.\A2=90.\A3=90.\D1=180.\
 D2=-180.\D13=180.\D15=360.\D12=0.\\Version=ES64L-G16RevC.01\State=1-A\
 HF=-1169.5727909\RMSD=3.308e-09\RMSF=2.443e-03\Dipole=-0.0215406,0.006
 3173,-6.0413387\Quadrupole=18.0967622,1.5031321,-19.5998942,0.0051881,
 0.1349681,-0.0194165\PG=C01 [X(C5H13Ir1N2O1P2)]\\@
 The archive entry for this job was punched.


 LIFE IS SO UNCERTAIN - EAT DESSERT FIRST.
 Job cpu time:       0 days  2 hours  7 minutes 27.7 seconds.
 Elapsed time:       0 days  0 hours  2 minutes 48.4 seconds.
 File lengths (MBytes):  RWF=     78 Int=      0 D2E=      0 Chk=     11 Scr=      1
 Normal termination of Gaussian 16 at Mon Jun  3 17:41:34 2024.
