 Entering Gaussian System, Link 0=/cm/shared/apps//g16/g16
 Input=trans-phenyl_Ir_PH3_2_NH3.gjf
 Output=trans-phenyl_Ir_PH3_2_NH3.log
 Initial command:
 /cm/shared/apps//g16/l1.exe "/local/mvanvleet/pbs.15366.josephine/Gau-142540.inp" -scrdir="/local/mvanvleet/pbs.15366.josephine/"
 Entering Link 1 = /cm/shared/apps//g16/l1.exe PID=    142543.
  
 Copyright (c) 1988-2019, Gaussian, Inc.  All Rights Reserved.
  
 This is part of the Gaussian(R) 16 program.  It is based on
 the Gaussian(R) 09 system (copyright 2009, Gaussian, Inc.),
 the Gaussian(R) 03 system (copyright 2003, Gaussian, Inc.),
 the Gaussian(R) 98 system (copyright 1998, Gaussian, Inc.),
 the Gaussian(R) 94 system (copyright 1995, Gaussian, Inc.),
 the Gaussian 92(TM) system (copyright 1992, Gaussian, Inc.),
 the Gaussian 90(TM) system (copyright 1990, Gaussian, Inc.),
 the Gaussian 88(TM) system (copyright 1988, Gaussian, Inc.),
 the Gaussian 86(TM) system (copyright 1986, Carnegie Mellon
 University), and the Gaussian 82(TM) system (copyright 1983,
 Carnegie Mellon University). Gaussian is a federally registered
 trademark of Gaussian, Inc.
  
 This software contains proprietary and confidential information,
 including trade secrets, belonging to Gaussian, Inc.
  
 This software is provided under written license and may be
 used, copied, transmitted, or stored only in accord with that
 written license.
  
 The following legend is applicable only to US Government
 contracts under FAR:
  
                    RESTRICTED RIGHTS LEGEND
  
 Use, reproduction and disclosure by the US Government is
 subject to restrictions as set forth in subparagraphs (a)
 and (c) of the Commercial Computer Software - Restricted
 Rights clause in FAR 52.227-19.
  
 Gaussian, Inc.
 340 Quinnipiac St., Bldg. 40, Wallingford CT 06492
  
  
 ---------------------------------------------------------------
 Warning -- This program may not be used in any manner that
 competes with the business of Gaussian, Inc. or will provide
 assistance to any competitor of Gaussian, Inc.  The licensee
 of this program is prohibited from giving any competitor of
 Gaussian, Inc. access to this program.  By using this program,
 the user acknowledges that Gaussian, Inc. is engaged in the
 business of creating and licensing software in the field of
 computational chemistry and represents and warrants to the
 licensee that it is not a competitor of Gaussian, Inc. and that
 it will not use this program in any manner prohibited above.
 ---------------------------------------------------------------
  

 Cite this work as:
 Gaussian 16, Revision C.01,
 M. J. Frisch, G. W. Trucks, H. B. Schlegel, G. E. Scuseria, 
 M. A. Robb, J. R. Cheeseman, G. Scalmani, V. Barone, 
 G. A. Petersson, H. Nakatsuji, X. Li, M. Caricato, A. V. Marenich, 
 J. Bloino, B. G. Janesko, R. Gomperts, B. Mennucci, H. P. Hratchian, 
 J. V. Ortiz, A. F. Izmaylov, J. L. Sonnenberg, D. Williams-Young, 
 F. Ding, F. Lipparini, F. Egidi, J. Goings, B. Peng, A. Petrone, 
 T. Henderson, D. Ranasinghe, V. G. Zakrzewski, J. Gao, N. Rega, 
 G. Zheng, W. Liang, M. Hada, M. Ehara, K. Toyota, R. Fukuda, 
 J. Hasegawa, M. Ishida, T. Nakajima, Y. Honda, O. Kitao, H. Nakai, 
 T. Vreven, K. Throssell, J. A. Montgomery, Jr., J. E. Peralta, 
 F. Ogliaro, M. J. Bearpark, J. J. Heyd, E. N. Brothers, K. N. Kudin, 
 V. N. Staroverov, T. A. Keith, R. Kobayashi, J. Normand, 
 K. Raghavachari, A. P. Rendell, J. C. Burant, S. S. Iyengar, 
 J. Tomasi, M. Cossi, J. M. Millam, M. Klene, C. Adamo, R. Cammi, 
 J. W. Ochterski, R. L. Martin, K. Morokuma, O. Farkas, 
 J. B. Foresman, and D. J. Fox, Gaussian, Inc., Wallingford CT, 2019.
 
 ******************************************
 Gaussian 16:  ES64L-G16RevC.01  3-Jul-2019
                 5-Jun-2024 
 ******************************************
 %nprocshared=48
 Will use up to   48 processors via shared memory.
 %chk=trans-phenyl_Ir_PH3_2_NH3.chk
 %mem=16GB
 --------------------
 # PBEPBE GenECP POpt
 --------------------
 1/10=7,26=3,38=1/1,3;
 2/12=2,17=6,18=5,29=3,40=1/2;
 3/5=7,11=2,16=1,17=8,25=1,30=1,71=1,74=1009/1,2,3;
 4//1;
 5/5=2,38=5/2;
 6/7=2,8=2,9=2,10=2,28=1/1;
 7/29=1/1,2,3,16;
 1/10=7,26=3/3(2);
 2/29=3/2;
 99//99;
 2/29=3/2;
 3/5=7,6=1,11=2,16=1,17=8,25=1,30=1,71=1,74=1009,82=7/1,2,3;
 4/5=5,16=3,69=1/1;
 5/5=2,38=5/2;
 7//1,2,3,16;
 1/26=3/3(-5);
 2/29=3/2;
 6/7=2,8=2,9=2,10=2,19=2,28=1/1;
 99/9=1/99;
 ----------------------
 trans-(H)Ir(PH3)2(NH3)
 ----------------------
 Symbolic Z-matrix:
 Charge =  0 Multiplicity = 1
 Ir                   1
 C                    1    B1
 P                    1    B2       2    A1
 N                    1    B3       3    A2       2    D1       0
 P                    1    B4       2    A3       3    D2       0
 H                    3    B5       1    A4       2    D3       0
 H                    3    B6       1    A5       2    D4       0
 H                    3    B7       1    A6       2    D5       0
 H                    5    B8       1    A7       2    D6       0
 H                    5    B9       1    A8       2    D7       0
 H                    5    B10      1    A9       2    D8       0
 H                    4    B11      1    A10      5    D9       0
 H                    4    B12      1    A11      5    D10      0
 H                    4    B13      1    A12      5    D11      0
 C                    3    B14      1    A13      2    D12      0
 C                    15   B15      2    A14      1    D13      0
 C                    16   B16      15   A15      2    D14      0
 C                    17   B17      16   A16      15   D15      0
 C                    2    B18      1    A17      3    D16      0
 H                    15   B19      2    A18      1    D17      0
 H                    16   B20      15   A19      2    D18      0
 H                    17   B21      16   A20      15   D19      0
 H                    18   B22      17   A21      16   D20      0
 H                    19   B23      2    A22      1    D21      0
       Variables:
  B1                    2.104                    
  B2                    2.264                    
  B3                    2.227                    
  B4                    2.27                     
  B5                    1.431                    
  B6                    1.437                    
  B7                    1.431                    
  B8                    1.431                    
  B9                    1.435                    
  B10                   1.431                    
  B11                   1.027                    
  B12                   1.027                    
  B13                   1.027                    
  B14                   2.994                    
  B15                   1.395                    
  B16                   1.395                    
  B17                   1.395                    
  B18                   1.395                    
  B19                   1.087                    
  B20                   1.087                    
  B21                   1.087                    
  B22                   1.087                    
  B23                   1.087                    
  A4                  120.705                    
  A5                  118.798                    
  A6                  120.72                     
  A7                  120.114                    
  A8                  120.136                    
  A9                  120.119                    
  A10                 111.517                    
  A11                 111.521                    
  A12                 113.183                    
  A13                  69.4                      
  A14                 119.984                    
  A15                 120.                       
  A16                 120.                       
  A17                 119.99                     
  A18                 120.009                    
  A19                 120.                       
  A20                 120.                       
  A21                 120.                       
  A22                 119.984                    
  D3                   60.7                      
  D4                  180.                       
  D5                  299.2                      
  D6                   60.                       
  D7                  179.9                      
  D8                  299.9                      
  D9                  299.8                      
  D10                  60.3                      
  D11                 180.                       
  D14                 359.                       
  D16                 179.5                      
  D17                 359.1                      
  D18                 179.                       
  D19                 180.                       
  D20                 180.                       
  D21                   0.9                      
       Constants:
  A1                   90.                       
  A2                   90.                       
  A3                   90.                       
  D1                  180.                       
  D2                 -180.                       
  D13                 180.                       
  D15                 360.                       
  D12                   0.                       
 

 GradGradGradGradGradGradGradGradGradGradGradGradGradGradGradGradGradGrad
 Berny optimization.
 Initialization pass.
                       ----------------------------
                       !    Initial Parameters    !
                       ! (Angstroms and Degrees)  !
 ----------------------                            ----------------------
 !      Name          Value   Derivative information (Atomic Units)     !
 ------------------------------------------------------------------------
 !       B1          2.104    estimate D2E/DX2                          !
 !       B2          2.264    estimate D2E/DX2                          !
 !       B3          2.227    estimate D2E/DX2                          !
 !       B4          2.27     estimate D2E/DX2                          !
 !       B5          1.431    estimate D2E/DX2                          !
 !       B6          1.437    estimate D2E/DX2                          !
 !       B7          1.431    estimate D2E/DX2                          !
 !       B8          1.431    estimate D2E/DX2                          !
 !       B9          1.435    estimate D2E/DX2                          !
 !       B10         1.431    estimate D2E/DX2                          !
 !       B11         1.027    estimate D2E/DX2                          !
 !       B12         1.027    estimate D2E/DX2                          !
 !       B13         1.027    estimate D2E/DX2                          !
 !       B14         2.994    estimate D2E/DX2                          !
 !       B15         1.395    estimate D2E/DX2                          !
 !       B16         1.395    estimate D2E/DX2                          !
 !       B17         1.395    estimate D2E/DX2                          !
 !       B18         1.395    estimate D2E/DX2                          !
 !       B19         1.087    estimate D2E/DX2                          !
 !       B20         1.087    estimate D2E/DX2                          !
 !       B21         1.087    estimate D2E/DX2                          !
 !       B22         1.087    estimate D2E/DX2                          !
 !       B23         1.087    estimate D2E/DX2                          !
 !       A4        120.705    estimate D2E/DX2                          !
 !       A5        118.798    estimate D2E/DX2                          !
 !       A6        120.72     estimate D2E/DX2                          !
 !       A7        120.114    estimate D2E/DX2                          !
 !       A8        120.136    estimate D2E/DX2                          !
 !       A9        120.119    estimate D2E/DX2                          !
 !       A10       111.517    estimate D2E/DX2                          !
 !       A11       111.521    estimate D2E/DX2                          !
 !       A12       113.183    estimate D2E/DX2                          !
 !       A13        69.4      estimate D2E/DX2                          !
 !       A14       119.984    estimate D2E/DX2                          !
 !       A15       120.0      estimate D2E/DX2                          !
 !       A16       120.0      estimate D2E/DX2                          !
 !       A17       119.99     estimate D2E/DX2                          !
 !       A18       120.009    estimate D2E/DX2                          !
 !       A19       120.0      estimate D2E/DX2                          !
 !       A20       120.0      estimate D2E/DX2                          !
 !       A21       120.0      estimate D2E/DX2                          !
 !       A22       119.984    estimate D2E/DX2                          !
 !       D3         60.7      estimate D2E/DX2                          !
 !       D4        180.0      estimate D2E/DX2                          !
 !       D5        299.2      estimate D2E/DX2                          !
 !       D6         60.0      estimate D2E/DX2                          !
 !       D7        179.9      estimate D2E/DX2                          !
 !       D8        299.9      estimate D2E/DX2                          !
 !       D9        299.8      estimate D2E/DX2                          !
 !       D10        60.3      estimate D2E/DX2                          !
 !       D11       180.0      estimate D2E/DX2                          !
 !       D14       359.0      estimate D2E/DX2                          !
 !       D16       179.5      estimate D2E/DX2                          !
 !       D17       359.1      estimate D2E/DX2                          !
 !       D18       179.0      estimate D2E/DX2                          !
 !       D19       180.0      estimate D2E/DX2                          !
 !       D20       180.0      estimate D2E/DX2                          !
 !       D21         0.9      estimate D2E/DX2                          !
 !       A1         90.0      Frozen                                    !
 !       A2         90.0      Frozen                                    !
 !       A3         90.0      Frozen                                    !
 !       D1        180.0      Frozen                                    !
 !       D2       -180.0      Frozen                                    !
 !       D13       180.0      Frozen                                    !
 !       D15       360.0      Frozen                                    !
 !       D12         0.0      Frozen                                    !
 ------------------------------------------------------------------------
 Trust Radius=3.00D-01 FncErr=1.00D-07 GrdErr=1.00D-06 EigMax=2.50D+02 EigMin=1.00D-04
 Number of steps in this run=     76 maximum allowed number of steps=    132.
 GradGradGradGradGradGradGradGradGradGradGradGradGradGradGradGradGradGrad

 ---------------------------------------------------------------------------------------------------
                            Z-MATRIX (ANGSTROMS AND DEGREES)
   CD    Cent   Atom    N1       Length/X        N2       Alpha/Y        N3        Beta/Z          J
 ---------------------------------------------------------------------------------------------------
      1      1  Ir
      2      2  C        1   2.104000(     1)
      3      3  P        1   2.264000(     2)      2   90.000(    24)
      4      4  N        1   2.227000(     3)      3   90.000(    25)      2  180.000(    46)      0
      5      5  P        1   2.270000(     4)      2   90.000(    26)      3 -180.000(    47)      0
      6      6  H        3   1.431000(     5)      1  120.705(    27)      2   60.700(    48)      0
      7      7  H        3   1.437000(     6)      1  118.798(    28)      2  180.000(    49)      0
      8      8  H        3   1.431000(     7)      1  120.720(    29)      2  299.200(    50)      0
      9      9  H        5   1.431000(     8)      1  120.114(    30)      2   60.000(    51)      0
     10     10  H        5   1.435000(     9)      1  120.136(    31)      2  179.900(    52)      0
     11     11  H        5   1.431000(    10)      1  120.119(    32)      2  299.900(    53)      0
     12     12  H        4   1.027000(    11)      1  111.517(    33)      5  299.800(    54)      0
     13     13  H        4   1.027000(    12)      1  111.521(    34)      5   60.300(    55)      0
     14     14  H        4   1.027000(    13)      1  113.183(    35)      5  180.000(    56)      0
     15     15  C        3   2.994000(    14)      1   69.400(    36)      2    0.000(    57)      0
     16     16  C       15   1.395000(    15)      2  119.984(    37)      1  180.000(    58)      0
     17     17  C       16   1.395000(    16)     15  120.000(    38)      2  359.000(    59)      0
     18     18  C       17   1.395000(    17)     16  120.000(    39)     15  360.000(    60)      0
     19     19  C        2   1.395000(    18)      1  119.990(    40)      3  179.500(    61)      0
     20     20  H       15   1.087000(    19)      2  120.009(    41)      1  359.100(    62)      0
     21     21  H       16   1.087000(    20)     15  120.000(    42)      2  179.000(    63)      0
     22     22  H       17   1.087000(    21)     16  120.000(    43)     15  180.000(    64)      0
     23     23  H       18   1.087000(    22)     17  120.000(    44)     16  180.000(    65)      0
     24     24  H       19   1.087000(    23)      2  119.984(    45)      1    0.900(    66)      0
 ---------------------------------------------------------------------------------------------------
                         Z-Matrix orientation:                         
 ---------------------------------------------------------------------
 Center     Atomic      Atomic             Coordinates (Angstroms)
 Number     Number       Type             X           Y           Z
 ---------------------------------------------------------------------
      1         77           0        0.000000    0.000000    0.000000
      2          6           0        0.000000    0.000000    2.104000
      3         15           0        2.264000    0.000000    0.000000
      4          7           0        0.000000    0.000000   -2.227000
      5         15           0       -2.270000    0.000000    0.000000
      6          1           0        2.994694   -1.072981    0.602129
      7          1           0        2.956236   -0.000000   -1.259277
      8          1           0        2.995016    1.073863    0.600162
      9          1           0       -2.987964    1.072015    0.618928
     10          1           0       -2.990448    0.002166   -1.241038
     11          1           0       -2.988072   -1.073039    0.617025
     12          1           0       -0.474822   -0.829087   -2.603680
     13          1           0       -0.473362    0.829891   -2.603747
     14          1           0        0.944072    0.000000   -2.631298
     15          6           0        1.210586    0.000000    2.802562
     16          6           0        1.210516    0.000000    4.197562
     17          6           0        0.002560    0.021084    4.895002
     18          6           0       -1.205327    0.042169    4.197441
     19          6           0       -1.208181    0.010544    2.801289
     20          1           0        2.151858   -0.014785    2.259095
     21          1           0        2.151715   -0.016429    4.741109
     22          1           0        0.002506    0.021084    5.982002
     23          1           0       -2.146580    0.058598    4.740894
     24          1           0       -2.149339    0.003968    2.257463
 ---------------------------------------------------------------------
                    Distance matrix (angstroms):
                    1          2          3          4          5
     1  Ir   0.000000
     2  C    2.104000   0.000000
     3  P    2.264000   3.090714   0.000000
     4  N    2.227000   4.331000   3.175724   0.000000
     5  P    2.270000   3.095112   4.534000   3.180005   0.000000
     6  H    3.237598   3.517826   1.431000   4.257165   5.406556
     7  H    3.213271   4.477830   1.437000   3.110598   5.375809
     8  H    3.237823   3.519209   1.431000   4.256307   5.406827
     9  H    3.234226   3.504652   5.395870   4.263385   1.431000
    10  H    3.237740   4.486877   5.399019   3.148794   1.435000
    11  H    3.234302   3.505864   5.395961   4.262449   1.431000
    12  H    2.773444   4.803654   3.868809   1.027000   3.269434
    13  H    2.773498   4.803714   3.867993   1.027000   3.270493
    14  H    2.795533   4.828491   2.943797   1.027000   4.153792
    15  C    3.052847   1.397679   2.994000   5.173202   4.468650
    16  C    4.368624   2.418337   4.327743   6.537610   5.452845
    17  C    4.895048   2.791083   5.392179   7.122034   5.396852
    18  C    4.367277   2.416006   5.445780   6.536669   4.330568
    19  C    3.050743   1.395000   4.461320   5.171412   2.995796
    20  H    3.119972   2.157491   2.261925   4.975516   4.965537
    21  H    5.206560   3.403600   4.742467   7.292784   6.483051
    22  H    5.982040   3.878060   6.395244   8.209029   6.399146
    23  H    5.204548   3.400654   6.475549   7.291282   4.742863
    24  H    3.117020   2.154814   4.957188   4.972935   2.260688
                    6          7          8          9         10
     6  H    0.000000
     7  H    2.148860   0.000000
     8  H    2.146845   2.147603   0.000000
     9  H    6.355588   6.325377   5.983010   0.000000
    10  H    6.354143   5.946712   6.353293   2.145707   0.000000
    11  H    5.982785   6.325087   6.356636   2.145055   2.146735
    12  H    4.730142   3.777164   5.091719   4.507247   2.979286
    13  H    5.091755   3.776038   4.728023   4.094812   2.979568
    14  H    3.976354   2.435415   3.975159   5.212878   4.172922
    15  C    3.029231   4.421067   3.031162   4.852350   5.830900
    16  C    4.154723   5.729278   4.156791   5.619882   6.872152
    17  C    5.345896   6.826404   5.339362   5.322828   6.827111
    18  C    5.640036   6.862664   5.625628   4.128455   5.724100
    19  C    4.865644   5.816415   4.862353   3.009493   4.417800
    20  H    2.139086   3.609180   2.155952   5.503550   6.220493
    21  H    4.354087   6.054103   4.364326   6.677829   7.888490
    22  H    6.252456   7.820555   6.247213   6.229761   7.818595
    23  H    6.696458   7.876815   6.679255   4.327303   6.041425
    24  H    5.510084   6.199546   5.509602   2.128101   3.598190
                   11         12         13         14         15
    11  H    0.000000
    12  H    4.092540   0.000000
    13  H    4.507581   1.658979   0.000000
    14  H    5.211984   1.643596   1.642741   0.000000
    15  C    4.853527   5.723237   5.722987   5.440392   0.000000
    16  C    5.621371   7.055824   7.055634   6.834057   1.395000
    17  C    5.333111   7.561807   7.557242   7.584991   2.416211
    18  C    4.152259   6.895504   6.885669   7.159146   2.790000
    19  C    3.018804   5.518740   5.515950   5.843399   2.418791
    20  H    5.498653   5.586512   5.590393   5.037352   1.087000
    21  H    6.673973   7.842515   7.845649   7.470680   2.154985
    22  H    6.238881   8.640866   8.636880   8.664637   3.401285
    23  H    4.358327   7.584559   7.572206   7.994047   3.877000
    24  H    2.134116   5.208521   5.207918   5.785256   3.403858
                   16         17         18         19         20
    16  C    0.000000
    17  C    1.395000   0.000000
    18  C    2.416211   1.395000   0.000000
    19  C    2.792810   2.418603   1.396513   0.000000
    20  H    2.154994   3.401290   3.876999   3.403598   0.000000
    21  H    1.087000   2.154985   3.401285   3.879760   2.482015
    22  H    2.154985   1.087000   2.154985   3.403352   4.298958
    23  H    3.401285   2.154985   1.087000   2.155219   4.963999
    24  H    3.879772   3.404053   2.157808   1.087000   4.301239
                   21         22         23         24
    21  H    0.000000
    22  H    2.482000   0.000000
    23  H    4.298950   2.482000   0.000000
    24  H    4.966688   4.301502   2.484034   0.000000
 Stoichiometry    C6H14IrNP2
 Framework group  C1[X(C6H14IrNP2)]
 Deg. of freedom    66
 Full point group                 C1      NOp   1
 Largest Abelian subgroup         C1      NOp   1
 Largest concise Abelian subgroup C1      NOp   1
                         Standard orientation:                         
 ---------------------------------------------------------------------
 Center     Atomic      Atomic             Coordinates (Angstroms)
 Number     Number       Type             X           Y           Z
 ---------------------------------------------------------------------
      1         77           0       -0.746822   -0.000861    0.000519
      2          6           0        1.357165    0.000796    0.007610
      3         15           0       -0.745022   -2.264854   -0.004622
      4          7           0       -2.973809   -0.002614   -0.006986
      5         15           0       -0.748627    2.269133    0.005674
      6          1           0       -0.145930   -2.997511    1.068720
      7          1           0       -2.003741   -2.958080   -0.010437
      8          1           0       -0.140665   -2.992954   -1.078113
      9          1           0       -0.126663    2.990020   -1.062616
     10          1           0       -1.990223    2.988606    0.000962
     11          1           0       -0.135791    2.985249    1.082415
     12          1           0       -3.353657    0.470025    0.821903
     13          1           0       -3.348135    0.472336   -0.837065
     14          1           0       -3.377354   -0.947002   -0.010492
     15          6           0        2.056686   -1.209236    0.007215
     16          6           0        3.451678   -1.208068    0.011916
     17          6           0        4.148224    0.000482   -0.004074
     18          6           0        3.449778    1.207864   -0.024767
     19          6           0        2.053525    1.209547    0.002160
     20          1           0        1.513921   -2.150967    0.018031
     21          1           0        3.995914   -2.148874    0.028040
     22          1           0        5.235217    0.001393   -0.000411
     23          1           0        3.992534    2.149580   -0.037227
     24          1           0        1.508931    2.150259    0.009040
 ---------------------------------------------------------------------
 Rotational constants (GHZ):           1.0789191           0.5097081           0.3490594
 General basis read from cards:  (5D, 7F)
 ======================================================================================================
                                       Pseudopotential Parameters
 ======================================================================================================
  Center     Atomic      Valence      Angular      Power
  Number     Number     Electrons     Momentum     of R      Exponent        Coefficient   SO-Coeffient
 ======================================================================================================
    1         77           17
                                      H and up 
                                                     2        1.0000000        0.00000000    0.00000000
                                      S - H
                                                     2       13.6522030      732.26920000    0.00000000
                                                     2        6.8261010       26.48472100    0.00000000
                                      P - H
                                                     2       10.2798680      299.48947400    0.00000000
                                                     2        5.1399340       26.46623400    0.00000000
                                      D - H
                                                     2        7.3498590      124.45759500    0.00000000
                                                     2        3.6749290       14.03599500    0.00000000
                                      F - H
                                                     2        3.0340720       21.53103100    0.00000000
                                      G - H
                                                     2        4.8088570      -21.60759700    0.00000000
    2          6
                                   No pseudopotential on this center.
    3         15
                                   No pseudopotential on this center.
    4          7
                                   No pseudopotential on this center.
    5         15
                                   No pseudopotential on this center.
    6          1
                                   No pseudopotential on this center.
    7          1
                                   No pseudopotential on this center.
    8          1
                                   No pseudopotential on this center.
    9          1
                                   No pseudopotential on this center.
   10          1
                                   No pseudopotential on this center.
   11          1
                                   No pseudopotential on this center.
   12          1
                                   No pseudopotential on this center.
   13          1
                                   No pseudopotential on this center.
   14          1
                                   No pseudopotential on this center.
   15          6
                                   No pseudopotential on this center.
   16          6
                                   No pseudopotential on this center.
   17          6
                                   No pseudopotential on this center.
   18          6
                                   No pseudopotential on this center.
   19          6
                                   No pseudopotential on this center.
   20          1
                                   No pseudopotential on this center.
   21          1
                                   No pseudopotential on this center.
   22          1
                                   No pseudopotential on this center.
   23          1
                                   No pseudopotential on this center.
   24          1
                                   No pseudopotential on this center.
 ======================================================================================================
 There are   346 symmetry adapted cartesian basis functions of A   symmetry.
 There are   334 symmetry adapted basis functions of A   symmetry.
   334 basis functions,   529 primitive gaussians,   346 cartesian basis functions
    52 alpha electrons       52 beta electrons
       nuclear repulsion energy       839.4906278463 Hartrees.
 NAtoms=   24 NActive=   24 NUniq=   24 SFac= 1.00D+00 NAtFMM=   60 NAOKFM=F Big=F
 Integral buffers will be    131072 words long.
 Raffenetti 2 integral format.
 Two-electron integral symmetry is turned on.
 One-electron integrals computed using PRISM.
   1 Symmetry operations used in ECPInt.
 ECPInt:  NShTT=    9591 NPrTT=   30119 LenC2=    8933 LenP2D=   20739.
 LDataN:  DoStor=T MaxTD1= 7 Len=  274
 NBasis=   334 RedAO= T EigKep=  2.30D-06  NBF=   334
 NBsUse=   333 1.00D-06 EigRej=  9.22D-07 NBFU=   333
 Defaulting to unpruned grid for atomic number  77.
 ExpMin= 1.50D-02 ExpMax= 7.75D+04 ExpMxC= 2.65D+03 IAcc=3 IRadAn=         5 AccDes= 0.00D+00
 Harris functional with IExCor= 1009 and IRadAn=       5 diagonalized for initial guess.
 HarFok:  IExCor= 1009 AccDes= 0.00D+00 IRadAn=         5 IDoV= 1 UseB2=F ITyADJ=14
 ICtDFT=  3500011 ScaDFX=  1.000000  1.000000  1.000000  1.000000
 Defaulting to unpruned grid for atomic number  77.
 FoFCou: FMM=F IPFlag=           0 FMFlag=      100000 FMFlg1=           0
         NFxFlg=           0 DoJE=T BraDBF=F KetDBF=T FulRan=T
         wScrn=  0.000000 ICntrl=       500 IOpCl=  0 I1Cent=   200000004 NGrid=           0
         NMat0=    1 NMatS0=      1 NMatT0=    0 NMatD0=    1 NMtDS0=    0 NMtDT0=    0
 Petite list used in FoFCou.
 Requested convergence on RMS density matrix=1.00D-08 within 128 cycles.
 Requested convergence on MAX density matrix=1.00D-06.
 Requested convergence on             energy=1.00D-06.
 No special actions if energy rises.
 Defaulting to unpruned grid for atomic number  77.
 Defaulting to unpruned grid for atomic number  77.
 Defaulting to unpruned grid for atomic number  77.
 Defaulting to unpruned grid for atomic number  77.
 Defaulting to unpruned grid for atomic number  77.
 Defaulting to unpruned grid for atomic number  77.
 Defaulting to unpruned grid for atomic number  77.
 Defaulting to unpruned grid for atomic number  77.
 Defaulting to unpruned grid for atomic number  77.
 Defaulting to unpruned grid for atomic number  77.
 Defaulting to unpruned grid for atomic number  77.
 Defaulting to unpruned grid for atomic number  77.
 Defaulting to unpruned grid for atomic number  77.
 Defaulting to unpruned grid for atomic number  77.
 Defaulting to unpruned grid for atomic number  77.
 Defaulting to unpruned grid for atomic number  77.
 Defaulting to unpruned grid for atomic number  77.
 Defaulting to unpruned grid for atomic number  77.
 Defaulting to unpruned grid for atomic number  77.
 Defaulting to unpruned grid for atomic number  77.
 Defaulting to unpruned grid for atomic number  77.
 Defaulting to unpruned grid for atomic number  77.
 Defaulting to unpruned grid for atomic number  77.
 Defaulting to unpruned grid for atomic number  77.
 Defaulting to unpruned grid for atomic number  77.
 Defaulting to unpruned grid for atomic number  77.
 Defaulting to unpruned grid for atomic number  77.
 Defaulting to unpruned grid for atomic number  77.
 Defaulting to unpruned grid for atomic number  77.
 Defaulting to unpruned grid for atomic number  77.
 Defaulting to unpruned grid for atomic number  77.
 Defaulting to unpruned grid for atomic number  77.
 Defaulting to unpruned grid for atomic number  77.
 Defaulting to unpruned grid for atomic number  77.
 Defaulting to unpruned grid for atomic number  77.
 Defaulting to unpruned grid for atomic number  77.
 Defaulting to unpruned grid for atomic number  77.
 Defaulting to unpruned grid for atomic number  77.
 Defaulting to unpruned grid for atomic number  77.
 Defaulting to unpruned grid for atomic number  77.
 Defaulting to unpruned grid for atomic number  77.
 Defaulting to unpruned grid for atomic number  77.
 Defaulting to unpruned grid for atomic number  77.
 Defaulting to unpruned grid for atomic number  77.
 Defaulting to unpruned grid for atomic number  77.
 Defaulting to unpruned grid for atomic number  77.
 Defaulting to unpruned grid for atomic number  77.
 Defaulting to unpruned grid for atomic number  77.
 Rare condition: small coef for last iteration:  0.000D+00
 EnCoef did   100 forward-backward iterations
 EnCoef did     4 forward-backward iterations
 SCF Done:  E(RPBE-PBE) =  -1078.33782759     A.U. after   20 cycles
            NFock= 20  Conv=0.58D-08     -V/T= 2.0703

 **********************************************************************

            Population analysis using the SCF Density.

 **********************************************************************

 Orbital symmetries:
       Occupied  (A) (A) (A) (A) (A) (A) (A) (A) (A) (A) (A) (A)
                 (A) (A) (A) (A) (A) (A) (A) (A) (A) (A) (A) (A)
                 (A) (A) (A) (A) (A) (A) (A) (A) (A) (A) (A) (A)
                 (A) (A) (A) (A) (A) (A) (A) (A) (A) (A) (A) (A)
                 (A) (A) (A) (A)
       Virtual   (A) (A) (A) (A) (A) (A) (A) (A) (A) (A) (A) (A)
                 (A) (A) (A) (A) (A) (A) (A) (A) (A) (A) (A) (A)
                 (A) (A) (A) (A) (A) (A) (A) (A) (A) (A) (A) (A)
                 (A) (A) (A) (A) (A) (A) (A) (A) (A) (A) (A) (A)
                 (A) (A) (A) (A) (A) (A) (A) (A) (A) (A) (A) (A)
                 (A) (A) (A) (A) (A) (A) (A) (A) (A) (A) (A) (A)
                 (A) (A) (A) (A) (A) (A) (A) (A) (A) (A) (A) (A)
                 (A) (A) (A) (A) (A) (A) (A) (A) (A) (A) (A) (A)
                 (A) (A) (A) (A) (A) (A) (A) (A) (A) (A) (A) (A)
                 (A) (A) (A) (A) (A) (A) (A) (A) (A) (A) (A) (A)
                 (A) (A) (A) (A) (A) (A) (A) (A) (A) (A) (A) (A)
                 (A) (A) (A) (A) (A) (A) (A) (A) (A) (A) (A) (A)
                 (A) (A) (A) (A) (A) (A) (A) (A) (A) (A) (A) (A)
                 (A) (A) (A) (A) (A) (A) (A) (A) (A) (A) (A) (A)
                 (A) (A) (A) (A) (A) (A) (A) (A) (A) (A) (A) (A)
                 (A) (A) (A) (A) (A) (A) (A) (A) (A) (A) (A) (A)
                 (A) (A) (A) (A) (A) (A) (A) (A) (A) (A) (A) (A)
                 (A) (A) (A) (A) (A) (A) (A) (A) (A) (A) (A) (A)
                 (A) (A) (A) (A) (A) (A) (A) (A) (A) (A) (A) (A)
                 (A) (A) (A) (A) (A) (A) (A) (A) (A) (A) (A) (A)
                 (A) (A) (A) (A) (A) (A) (A) (A) (A) (A) (A) (A)
                 (A) (A) (A) (A) (A) (A) (A) (A) (A) (A) (A) (A)
                 (A) (A) (A) (A) (A) (A) (A) (A) (A) (A) (A) (A)
                 (A) (A) (A) (A) (A)
 The electronic state is 1-A.
 Alpha  occ. eigenvalues --  -76.31577 -76.31552 -14.03321  -9.85796  -9.85788
 Alpha  occ. eigenvalues --   -9.85419  -9.85404  -9.85257  -9.85229  -6.32876
 Alpha  occ. eigenvalues --   -6.32852  -4.54556  -4.54527  -4.54464  -4.54444
 Alpha  occ. eigenvalues --   -4.54148  -4.54125  -3.48873  -1.88462  -1.87209
 Alpha  occ. eigenvalues --   -1.83921  -0.83747  -0.74767  -0.65065  -0.64294
 Alpha  occ. eigenvalues --   -0.61043  -0.60460  -0.51878  -0.50487  -0.47293
 Alpha  occ. eigenvalues --   -0.47156  -0.44397  -0.39053  -0.38375  -0.37059
 Alpha  occ. eigenvalues --   -0.36690  -0.36401  -0.36110  -0.35331  -0.34862
 Alpha  occ. eigenvalues --   -0.33653  -0.30773  -0.30142  -0.27624  -0.26959
 Alpha  occ. eigenvalues --   -0.21447  -0.20847  -0.20252  -0.19213  -0.17982
 Alpha  occ. eigenvalues --   -0.14063  -0.13648
 Alpha virt. eigenvalues --   -0.05263  -0.04749  -0.03398  -0.02237  -0.01733
 Alpha virt. eigenvalues --   -0.01382   0.00349   0.00547   0.00702   0.01529
 Alpha virt. eigenvalues --    0.01961   0.02645   0.02760   0.03223   0.03269
 Alpha virt. eigenvalues --    0.03917   0.04463   0.04973   0.05884   0.06191
 Alpha virt. eigenvalues --    0.06697   0.06984   0.07863   0.08191   0.08258
 Alpha virt. eigenvalues --    0.09114   0.09511   0.10486   0.10856   0.11812
 Alpha virt. eigenvalues --    0.11955   0.12257   0.12299   0.12602   0.13186
 Alpha virt. eigenvalues --    0.14475   0.14644   0.14819   0.14959   0.15197
 Alpha virt. eigenvalues --    0.15464   0.16279   0.16580   0.18042   0.18690
 Alpha virt. eigenvalues --    0.18875   0.19293   0.19382   0.19626   0.20241
 Alpha virt. eigenvalues --    0.20468   0.20633   0.21958   0.22598   0.23034
 Alpha virt. eigenvalues --    0.23822   0.24071   0.24287   0.26030   0.26251
 Alpha virt. eigenvalues --    0.26708   0.27171   0.27407   0.28595   0.28909
 Alpha virt. eigenvalues --    0.30321   0.30657   0.31929   0.32241   0.32768
 Alpha virt. eigenvalues --    0.32816   0.33966   0.35091   0.35372   0.36883
 Alpha virt. eigenvalues --    0.39472   0.39646   0.40902   0.42344   0.42823
 Alpha virt. eigenvalues --    0.43306   0.45794   0.48199   0.48578   0.48849
 Alpha virt. eigenvalues --    0.51161   0.51566   0.51976   0.52493   0.53120
 Alpha virt. eigenvalues --    0.53217   0.54798   0.55840   0.56128   0.57070
 Alpha virt. eigenvalues --    0.57860   0.59020   0.59398   0.61580   0.61978
 Alpha virt. eigenvalues --    0.62316   0.63538   0.64825   0.65326   0.65702
 Alpha virt. eigenvalues --    0.66890   0.68432   0.68711   0.69418   0.70600
 Alpha virt. eigenvalues --    0.71178   0.72207   0.73762   0.75205   0.75465
 Alpha virt. eigenvalues --    0.76427   0.79310   0.79776   0.82120   0.82582
 Alpha virt. eigenvalues --    0.83961   0.85622   0.85932   0.86609   0.87640
 Alpha virt. eigenvalues --    0.88757   0.89089   0.91458   0.91975   0.94371
 Alpha virt. eigenvalues --    0.95583   0.95794   0.98116   0.99097   0.99594
 Alpha virt. eigenvalues --    1.04006   1.04305   1.04884   1.07252   1.10811
 Alpha virt. eigenvalues --    1.11156   1.15288   1.21250   1.22913   1.22948
 Alpha virt. eigenvalues --    1.23076   1.25059   1.27920   1.28499   1.30162
 Alpha virt. eigenvalues --    1.30672   1.32132   1.33551   1.35983   1.36727
 Alpha virt. eigenvalues --    1.40754   1.43991   1.44319   1.45011   1.48119
 Alpha virt. eigenvalues --    1.48147   1.49061   1.51930   1.53372   1.53573
 Alpha virt. eigenvalues --    1.55169   1.56760   1.58314   1.59382   1.60272
 Alpha virt. eigenvalues --    1.61329   1.62561   1.64333   1.65337   1.65661
 Alpha virt. eigenvalues --    1.66659   1.69429   1.70204   1.71992   1.72414
 Alpha virt. eigenvalues --    1.74829   1.77451   1.80523   1.81295   1.81335
 Alpha virt. eigenvalues --    1.82571   1.85259   1.86882   1.87876   1.88437
 Alpha virt. eigenvalues --    1.88959   1.91052   1.92934   1.93703   1.96356
 Alpha virt. eigenvalues --    2.00029   2.00949   2.03672   2.04295   2.08367
 Alpha virt. eigenvalues --    2.09078   2.09555   2.11674   2.13660   2.14295
 Alpha virt. eigenvalues --    2.22667   2.23448   2.29337   2.29607   2.35470
 Alpha virt. eigenvalues --    2.37840   2.42514   2.44269   2.46669   2.50050
 Alpha virt. eigenvalues --    2.52093   2.52478   2.52683   2.53603   2.54941
 Alpha virt. eigenvalues --    2.58025   2.59439   2.59748   2.62080   2.63988
 Alpha virt. eigenvalues --    2.65352   2.68192   2.68790   2.70956   2.72334
 Alpha virt. eigenvalues --    2.72885   2.75458   2.75851   2.76274   2.78810
 Alpha virt. eigenvalues --    2.85088   2.85380   2.86878   2.88338   2.90060
 Alpha virt. eigenvalues --    2.90386   2.95194   2.95905   3.04346   3.12222
 Alpha virt. eigenvalues --    3.14653   3.30436   3.31874   3.44785   3.46891
 Alpha virt. eigenvalues --    3.56819   3.71791   3.93246   3.98216   4.07645
 Alpha virt. eigenvalues --    4.10431   4.10936   4.52130   4.52521   4.78996
 Alpha virt. eigenvalues --    7.00637   7.01545  13.67282  13.70627  13.79138
 Alpha virt. eigenvalues --   13.81049  13.84005  13.88774  23.37389  23.72910
 Alpha virt. eigenvalues --   23.74835  23.85511  23.87246  23.96609  35.23225
 Alpha virt. eigenvalues --   47.24549  47.54385  47.65290 139.48514 162.58841
 Alpha virt. eigenvalues --  162.59850
          Condensed to atoms (all electrons):
               1          2          3          4          5          6
     1  Ir  17.491143   0.325115  -0.289331  -0.114418  -0.236696  -0.012976
     2  C    0.325115  42.479834  -3.214040   0.005925  -3.577090   0.365618
     3  P   -0.289331  -3.214040  16.105001   0.010665  -0.687687   0.279575
     4  N   -0.114418   0.005925   0.010665   6.846864  -0.041371  -0.003374
     5  P   -0.236696  -3.577090  -0.687687  -0.041371  16.070579   0.011453
     6  H   -0.012976   0.365618   0.279575  -0.003374   0.011453   0.710447
     7  H    0.015927   0.107888   0.197634  -0.007748   0.011849  -0.015981
     8  H   -0.013694   0.367125   0.281949  -0.003254   0.011395  -0.036415
     9  H   -0.017760   0.368718   0.012319  -0.001168   0.274971  -0.000003
    10  H    0.003035   0.097953   0.008279  -0.001370   0.232361  -0.000003
    11  H   -0.014370   0.394053   0.012765  -0.000969   0.268905  -0.000055
    12  H   -0.012206   0.000230   0.004353   0.317705   0.007931   0.000305
    13  H   -0.012458   0.001381   0.004778   0.316809   0.007571  -0.000084
    14  H    0.004595  -0.004985   0.001597   0.335668   0.000730  -0.000192
    15  C   -0.316055  -7.336329   6.197678   0.007285  -4.041997  -0.406793
    16  C   -0.050410  -7.733593   0.974470  -0.011352  -0.374427  -0.105154
    17  C   -0.060660  -3.755880   0.133227   0.000036   0.140949  -0.008632
    18  C   -0.112539  -7.321796  -0.362252  -0.000618   1.059205   0.010701
    19  C    0.087328  -8.908416  -4.153784  -0.012316   6.270284   0.128998
    20  H   -0.055162   0.116051  -0.027287  -0.000503   0.015841   0.004009
    21  H   -0.001631   0.042187  -0.001584   0.000016   0.000086   0.000047
    22  H   -0.000543   0.019058   0.000285  -0.000003   0.000074   0.000001
    23  H   -0.001684   0.044491   0.000013   0.000018  -0.001037  -0.000000
    24  H   -0.058692   0.150703   0.011396   0.002636  -0.014223  -0.000028
               7          8          9         10         11         12
     1  Ir   0.015927  -0.013694  -0.017760   0.003035  -0.014370  -0.012206
     2  C    0.107888   0.367125   0.368718   0.097953   0.394053   0.000230
     3  P    0.197634   0.281949   0.012319   0.008279   0.012765   0.004353
     4  N   -0.007748  -0.003254  -0.001168  -0.001370  -0.000969   0.317705
     5  P    0.011849   0.011395   0.274971   0.232361   0.268905   0.007931
     6  H   -0.015981  -0.036415  -0.000003  -0.000003  -0.000055   0.000305
     7  H    0.740677  -0.015948  -0.000004  -0.000022  -0.000004  -0.000759
     8  H   -0.015948   0.709633  -0.000054  -0.000003  -0.000003  -0.000084
     9  H   -0.000004  -0.000054   0.712485  -0.017009  -0.034322   0.000158
    10  H   -0.000022  -0.000003  -0.017009   0.721547  -0.016732   0.002946
    11  H   -0.000004  -0.000003  -0.034322  -0.016732   0.713980  -0.000453
    12  H   -0.000759  -0.000084   0.000158   0.002946  -0.000453   0.450654
    13  H   -0.000760   0.000303  -0.000435   0.002878   0.000157  -0.017352
    14  H    0.014697  -0.000205  -0.000016   0.000019  -0.000018  -0.025754
    15  C   -0.096114  -0.402586   0.122216   0.038123   0.129445   0.003254
    16  C   -0.015965  -0.108064   0.009388   0.001722   0.010246   0.000413
    17  C   -0.001661  -0.009108  -0.008785  -0.001603  -0.009896  -0.000005
    18  C    0.001301   0.010820  -0.097183  -0.017694  -0.109360  -0.000529
    19  C    0.038314   0.125990  -0.403992  -0.094924  -0.423945  -0.004102
    20  H    0.003116   0.003170  -0.000027  -0.000010  -0.000031  -0.000023
    21  H   -0.000005   0.000050  -0.000000   0.000000  -0.000000  -0.000000
    22  H   -0.000000   0.000001   0.000001  -0.000000   0.000001   0.000000
    23  H    0.000000  -0.000000   0.000033  -0.000005   0.000063  -0.000000
    24  H   -0.000008  -0.000030   0.003606   0.003009   0.003359  -0.000123
              13         14         15         16         17         18
     1  Ir  -0.012458   0.004595  -0.316055  -0.050410  -0.060660  -0.112539
     2  C    0.001381  -0.004985  -7.336329  -7.733593  -3.755880  -7.321796
     3  P    0.004778   0.001597   6.197678   0.974470   0.133227  -0.362252
     4  N    0.316809   0.335668   0.007285  -0.011352   0.000036  -0.000618
     5  P    0.007571   0.000730  -4.041997  -0.374427   0.140949   1.059205
     6  H   -0.000084  -0.000192  -0.406793  -0.105154  -0.008632   0.010701
     7  H   -0.000760   0.014697  -0.096114  -0.015965  -0.001661   0.001301
     8  H    0.000303  -0.000205  -0.402586  -0.108064  -0.009108   0.010820
     9  H   -0.000435  -0.000016   0.122216   0.009388  -0.008785  -0.097183
    10  H    0.002878   0.000019   0.038123   0.001722  -0.001603  -0.017694
    11  H    0.000157  -0.000018   0.129445   0.010246  -0.009896  -0.109360
    12  H   -0.017352  -0.025754   0.003254   0.000413  -0.000005  -0.000529
    13  H    0.451601  -0.025909   0.003918   0.000441  -0.000019  -0.000604
    14  H   -0.025909   0.437110  -0.004791  -0.000449  -0.000018   0.000415
    15  C    0.003918  -0.004791  47.014097   8.216736  -0.324925  -6.087426
    16  C    0.000441  -0.000449   8.216736  11.648447   1.697548  -1.838051
    17  C   -0.000019  -0.000018  -0.324925   1.697548   6.587620   1.675848
    18  C   -0.000604   0.000415  -6.087426  -1.838051   1.675848  11.221828
    19  C   -0.005348   0.005781 -35.788051  -5.972618  -0.113368   8.404104
    20  H   -0.000024   0.000081   0.074090  -0.018012   0.012821  -0.021755
    21  H   -0.000000  -0.000000  -0.057841   0.388743  -0.023847  -0.001780
    22  H    0.000000  -0.000000   0.023570  -0.061859   0.399241  -0.055016
    23  H   -0.000000   0.000000  -0.010182  -0.001706  -0.025665   0.382686
    24  H   -0.000125   0.000014   0.101732  -0.011048   0.006059  -0.066001
              19         20         21         22         23         24
     1  Ir   0.087328  -0.055162  -0.001631  -0.000543  -0.001684  -0.058692
     2  C   -8.908416   0.116051   0.042187   0.019058   0.044491   0.150703
     3  P   -4.153784  -0.027287  -0.001584   0.000285   0.000013   0.011396
     4  N   -0.012316  -0.000503   0.000016  -0.000003   0.000018   0.002636
     5  P    6.270284   0.015841   0.000086   0.000074  -0.001037  -0.014223
     6  H    0.128998   0.004009   0.000047   0.000001  -0.000000  -0.000028
     7  H    0.038314   0.003116  -0.000005  -0.000000   0.000000  -0.000008
     8  H    0.125990   0.003170   0.000050   0.000001  -0.000000  -0.000030
     9  H   -0.403992  -0.000027  -0.000000   0.000001   0.000033   0.003606
    10  H   -0.094924  -0.000010   0.000000  -0.000000  -0.000005   0.003009
    11  H   -0.423945  -0.000031  -0.000000   0.000001   0.000063   0.003359
    12  H   -0.004102  -0.000023  -0.000000   0.000000  -0.000000  -0.000123
    13  H   -0.005348  -0.000024  -0.000000   0.000000  -0.000000  -0.000125
    14  H    0.005781   0.000081  -0.000000  -0.000000   0.000000   0.000014
    15  C  -35.788051   0.074090  -0.057841   0.023570  -0.010182   0.101732
    16  C   -5.972618  -0.018012   0.388743  -0.061859  -0.001706  -0.011048
    17  C   -0.113368   0.012821  -0.023847   0.399241  -0.025665   0.006059
    18  C    8.404104  -0.021755  -0.001780  -0.055016   0.382686  -0.066001
    19  C   47.492851   0.118599  -0.007862   0.015668  -0.050366   0.090690
    20  H    0.118599   0.721088  -0.011561  -0.000634   0.000158   0.000203
    21  H   -0.007862  -0.011561   0.569735  -0.009575  -0.000359   0.000163
    22  H    0.015668  -0.000634  -0.009575   0.558758  -0.009561  -0.000643
    23  H   -0.050366   0.000158  -0.000359  -0.009561   0.569492  -0.011553
    24  H    0.090690   0.000203   0.000163  -0.000643  -0.011553   0.724595
 Mulliken charges:
               1
     1  Ir   0.454143
     2  C    2.965799
     3  P   -0.500020
     4  N   -0.645162
     5  P   -0.409657
     6  H    0.078535
     7  H    0.023575
     8  H    0.079013
     9  H    0.076860
    10  H    0.037502
    11  H    0.077184
    12  H    0.273442
    13  H    0.273281
    14  H    0.261632
    15  C   -1.059056
    16  C   -0.645449
    17  C   -0.309277
    18  C   -0.674303
    19  C   -0.839516
    20  H    0.065804
    21  H    0.115019
    22  H    0.121176
    23  H    0.115164
    24  H    0.064309
 Sum of Mulliken charges =  -0.00000
 Mulliken charges with hydrogens summed into heavy atoms:
               1
     1  Ir   0.454143
     2  C    2.965799
     3  P   -0.318897
     4  N    0.163193
     5  P   -0.218110
    15  C   -0.993252
    16  C   -0.530430
    17  C   -0.188100
    18  C   -0.559139
    19  C   -0.775207
 Electronic spatial extent (au):  <R**2>=           2951.7574
 Charge=             -0.0000 electrons
 Dipole moment (field-independent basis, Debye):
    X=             -6.1428    Y=              0.0478    Z=             -0.0055  Tot=              6.1430
 Quadrupole moment (field-independent basis, Debye-Ang):
   XX=            -83.5104   YY=            -84.0189   ZZ=           -102.6599
   XY=             -0.2092   XZ=              0.0930   YZ=             -0.0320
 Traceless Quadrupole moment (field-independent basis, Debye-Ang):
   XX=              6.5526   YY=              6.0442   ZZ=            -12.5968
   XY=             -0.2092   XZ=              0.0930   YZ=             -0.0320
 Octapole moment (field-independent basis, Debye-Ang**2):
  XXX=           -170.6312  YYY=             -0.7797  ZZZ=              0.0169  XYY=            -38.8499
  XXY=              0.2555  XXZ=              0.0282  XZZ=            -50.9320  YZZ=              0.9744
  YYZ=              0.0820  XYZ=             -0.3094
 Hexadecapole moment (field-independent basis, Debye-Ang**3):
 XXXX=          -2411.7662 YYYY=          -1394.1442 ZZZZ=           -178.5100 XXXY=             -1.0007
 XXXZ=              1.2676 YYYX=              1.5198 YYYZ=             -0.3526 ZZZX=              0.3471
 ZZZY=              0.1895 XXYY=           -646.0954 XXZZ=           -503.1183 YYZZ=           -266.4869
 XXYZ=             -1.1464 YYXZ=              0.1617 ZZXY=             -3.6411
 N-N= 8.394906278463D+02 E-N=-4.197320210705D+03  KE= 1.007488289574D+03
   1 Symmetry operations used in ECPInt.
 ECPInt:  NShTT=    9591 NPrTT=   30119 LenC2=    8933 LenP2D=   20739.
 LDataN:  DoStor=T MaxTD1= 8 Len=  415
 Calling FoFJK, ICntrl=      2527 FMM=F ISym2X=0 I1Cent= 0 IOpClX= 0 NMat=1 NMatS=1 NMatT=0.
 Defaulting to unpruned grid for atomic number  77.
 Defaulting to unpruned grid for atomic number  77.
 Defaulting to unpruned grid for atomic number  77.
 Defaulting to unpruned grid for atomic number  77.
 Defaulting to unpruned grid for atomic number  77.
 Defaulting to unpruned grid for atomic number  77.
 Defaulting to unpruned grid for atomic number  77.
 Defaulting to unpruned grid for atomic number  77.
 Defaulting to unpruned grid for atomic number  77.
 Defaulting to unpruned grid for atomic number  77.
 Defaulting to unpruned grid for atomic number  77.
 Defaulting to unpruned grid for atomic number  77.
 Defaulting to unpruned grid for atomic number  77.
 Defaulting to unpruned grid for atomic number  77.
 Defaulting to unpruned grid for atomic number  77.
 Defaulting to unpruned grid for atomic number  77.
 Defaulting to unpruned grid for atomic number  77.
 Defaulting to unpruned grid for atomic number  77.
 Defaulting to unpruned grid for atomic number  77.
 Defaulting to unpruned grid for atomic number  77.
 Defaulting to unpruned grid for atomic number  77.
 Defaulting to unpruned grid for atomic number  77.
 Defaulting to unpruned grid for atomic number  77.
 Defaulting to unpruned grid for atomic number  77.
 Defaulting to unpruned grid for atomic number  77.
 Defaulting to unpruned grid for atomic number  77.
 Defaulting to unpruned grid for atomic number  77.
 Defaulting to unpruned grid for atomic number  77.
 Defaulting to unpruned grid for atomic number  77.
 Defaulting to unpruned grid for atomic number  77.
 Defaulting to unpruned grid for atomic number  77.
 Defaulting to unpruned grid for atomic number  77.
 Defaulting to unpruned grid for atomic number  77.
 Defaulting to unpruned grid for atomic number  77.
 Defaulting to unpruned grid for atomic number  77.
 Defaulting to unpruned grid for atomic number  77.
 Defaulting to unpruned grid for atomic number  77.
 Defaulting to unpruned grid for atomic number  77.
 Defaulting to unpruned grid for atomic number  77.
 Defaulting to unpruned grid for atomic number  77.
 Defaulting to unpruned grid for atomic number  77.
 Defaulting to unpruned grid for atomic number  77.
 Defaulting to unpruned grid for atomic number  77.
 Defaulting to unpruned grid for atomic number  77.
 Defaulting to unpruned grid for atomic number  77.
 Defaulting to unpruned grid for atomic number  77.
 Defaulting to unpruned grid for atomic number  77.
 Defaulting to unpruned grid for atomic number  77.
 ***** Axes restored to original set *****
 -------------------------------------------------------------------
 Center     Atomic                   Forces (Hartrees/Bohr)
 Number     Number              X              Y              Z
 -------------------------------------------------------------------
      1       77           0.000098326   -0.000504135    0.015160351
      2        6           0.001368039    0.000018779   -0.052825740
      3       15          -0.001590670    0.000102116   -0.004934774
      4        7           0.000853573    0.000227108   -0.005560600
      5       15           0.001582945    0.000100963   -0.004694078
      6        1           0.000807487   -0.000202217   -0.001834664
      7        1           0.000977004   -0.000046485   -0.001141553
      8        1           0.000736365    0.000169101   -0.001716235
      9        1          -0.000829214    0.000235203   -0.001946282
     10        1          -0.000800279   -0.000079698   -0.001219831
     11        1          -0.000844826   -0.000242835   -0.001864423
     12        1           0.000075506    0.000693223    0.000425807
     13        1          -0.000029824   -0.000683344    0.000387293
     14        1          -0.000988343   -0.000088056    0.000466060
     15        6          -0.006035423   -0.000811748    0.015979301
     16        6           0.003617995    0.000008537   -0.000767779
     17        6          -0.000315240    0.000907266    0.004627077
     18        6          -0.003931686   -0.002525787   -0.001188120
     19        6           0.005180979    0.001694868    0.017612019
     20        1           0.003539544    0.000156333    0.007005131
     21        1           0.004221610    0.000039791    0.003158222
     22        1          -0.000025190    0.000351379    0.004107862
     23        1          -0.004194989    0.000177716    0.003272750
     24        1          -0.003473688    0.000301920    0.007492205
 -------------------------------------------------------------------
 Cartesian Forces:  Max     0.052825740 RMS     0.007475466
 -----------------------------------------------------------------------------------------------
                       Internal Coordinate Forces (Hartree/Bohr or radian)
  Cent   Atom   N1       Length/X         N2         Alpha/Y        N3         Beta/Z          J
 -----------------------------------------------------------------------------------------------
      1  Ir
      2  C        1  -0.023969(     1)
      3  P        1  -0.000028(     2)      2  -0.031282(    24)
      4  N        1   0.004281(     3)      3   0.000995(    25)      2  -0.000507(    46)     0
      5  P        1   0.000891(     4)      2   0.048625(    26)      3  -0.000028(    47)     0
      6  H        3  -0.000208(     5)      1   0.002874(    27)      2   0.003950(    48)     0
      7  H        3   0.001471(     6)      1   0.000832(    28)      2  -0.000111(    49)     0
      8  H        3  -0.000217(     7)      1   0.002665(    29)      2  -0.003675(    50)     0
      9  H        5  -0.000250(     8)      1   0.002984(    30)      2   0.004218(    51)     0
     10  H        5   0.001457(     9)      1   0.000216(    31)      2   0.000192(    52)     0
     11  H        5  -0.000198(    10)      1   0.002952(    32)      2  -0.004064(    53)     0
     12  H        4  -0.000751(    11)      1  -0.000314(    33)      5   0.000504(    54)     0
     13  H        4  -0.000681(    12)      1  -0.000287(    34)      5  -0.000658(    55)     0
     14  H        4  -0.001092(    13)      1  -0.000076(    35)      5   0.000157(    56)     0
     15  C        3   0.030705(    14)      1   0.059507(    36)      2  -0.011621(    57)     0
     16  C       15   0.013210(    15)      2   0.027538(    37)      1   0.004830(    58)     0
     17  C       16   0.012725(    16)     15   0.030433(    38)      2   0.008322(    59)     0
     18  C       17   0.005959(    17)     16   0.016927(    39)     15   0.005684(    60)     0
     19  C        2   0.011085(    18)      1   0.076441(    40)      3  -0.005173(    61)     0
     20  H       15  -0.000439(    19)      2   0.016099(    41)      1   0.000158(    62)     0
     21  H       16   0.005234(    20)     15   0.001283(    42)      2   0.000202(    63)     0
     22  H       17   0.004108(    21)     16   0.000064(    43)     15   0.000624(    64)     0
     23  H       18   0.005271(    22)     17  -0.001511(    44)     16   0.000186(    65)     0
     24  H       19  -0.000743(    23)      2   0.016901(    45)      1  -0.000350(    66)     0
 -----------------------------------------------------------------------------------------------
 Internal  Forces:  Max     0.076441275 RMS     0.016396799

 GradGradGradGradGradGradGradGradGradGradGradGradGradGradGradGradGradGrad
 Berny optimization.
 Search for a local minimum.
 Step number   1 out of a maximum of   76
 All quantities printed in internal units (Hartrees-Bohrs-Radians)
 Second derivative matrix not updated -- first step.
 ITU=  0
     Eigenvalues ---    0.00460   0.00460   0.06900   0.07275   0.08485
     Eigenvalues ---    0.09736   0.10827   0.10837   0.11177   0.11240
     Eigenvalues ---    0.12698   0.12930   0.15625   0.19060   0.19849
     Eigenvalues ---    0.19965   0.20076   0.20299   0.20299   0.20299
     Eigenvalues ---    0.20299   0.21058   0.22221   0.22640   0.24842
     Eigenvalues ---    0.27039   0.28112   0.30260   0.30897   0.31705
     Eigenvalues ---    0.33985   0.33992   0.35162   0.35162   0.35162
     Eigenvalues ---    0.35162   0.35162   0.35254   0.37721   0.37836
     Eigenvalues ---    0.39360   0.43240   0.43240   0.43240   0.43949
     Eigenvalues ---    0.45621   0.46459   0.46459   0.48072   0.49404
     Eigenvalues ---    0.55415   0.59406   0.63188   0.70558   1.33980
     Eigenvalues ---    2.57846  14.16062  39.052751000.000001000.00000
     Eigenvalues --- 1000.000001000.000001000.000001000.000001000.00000
     Eigenvalues --- 1000.00000
 RFO step:  Lambda=-1.24187811D-02 EMin= 4.60000002D-03
 Linear search not attempted -- first point.
 Variable       Old X    -DE/DX   Delta X   Delta X   Delta X     New X
                                 (Linear)    (Quad)   (Total)
    B1        3.97598  -0.02397   0.00000   0.02993   0.02993   4.00591
    B2        4.27834  -0.00003   0.00000   0.00312   0.00312   4.28146
    B3        4.20842   0.00428   0.00000   0.03430   0.03430   4.24272
    B4        4.28968   0.00089   0.00000   0.00373   0.00373   4.29341
    B5        2.70420  -0.00021   0.00000  -0.00097  -0.00097   2.70323
    B6        2.71554   0.00147   0.00000   0.00694   0.00694   2.72247
    B7        2.70420  -0.00022   0.00000  -0.00101  -0.00101   2.70319
    B8        2.70420  -0.00025   0.00000  -0.00116  -0.00116   2.70304
    B9        2.71176   0.00146   0.00000   0.00683   0.00683   2.71859
   B10        2.70420  -0.00020   0.00000  -0.00092  -0.00092   2.70328
   B11        1.94075  -0.00075   0.00000  -0.00169  -0.00169   1.93906
   B12        1.94075  -0.00068   0.00000  -0.00153  -0.00153   1.93922
   B13        1.94075  -0.00109   0.00000  -0.00245  -0.00245   1.93829
   B14        5.65784   0.03070   0.00000   0.09257   0.09257   5.75041
   B15        2.63617   0.01321   0.00000   0.01551   0.01551   2.65168
   B16        2.63617   0.01272   0.00000   0.00174   0.00174   2.63791
   B17        2.63617   0.00596   0.00000  -0.00026  -0.00026   2.63591
   B18        2.63617   0.01108   0.00000   0.04819   0.04819   2.68436
   B19        2.05413  -0.00044   0.00000  -0.00121  -0.00121   2.05293
   B20        2.05413   0.00523   0.00000   0.01438   0.01438   2.06851
   B21        2.05413   0.00411   0.00000   0.01128   0.01128   2.06542
   B22        2.05413   0.00527   0.00000   0.01448   0.01448   2.06861
   B23        2.05413  -0.00074   0.00000  -0.00204  -0.00204   2.05209
    A4        2.10670   0.00287   0.00000   0.00884   0.00884   2.11554
    A5        2.07342   0.00083   0.00000  -0.00761  -0.00761   2.06581
    A6        2.10696   0.00266   0.00000   0.00856   0.00856   2.11552
    A7        2.09638   0.00298   0.00000   0.01628   0.01628   2.11266
    A8        2.09677   0.00022   0.00000  -0.01841  -0.01841   2.07835
    A9        2.09647   0.00295   0.00000   0.01573   0.01573   2.11220
   A10        1.94634  -0.00031   0.00000  -0.00210  -0.00210   1.94424
   A11        1.94641  -0.00029   0.00000  -0.00137  -0.00137   1.94504
   A12        1.97542  -0.00008   0.00000   0.00162   0.00162   1.97704
   A13        1.21126   0.05951   0.00000   0.00722   0.00722   1.21848
   A14        2.09412   0.02754   0.00000   0.05288   0.05288   2.14700
   A15        2.09440   0.03043   0.00000   0.01220   0.01220   2.10660
   A16        2.09440   0.01693   0.00000  -0.02638  -0.02638   2.06801
   A17        2.09422   0.07644   0.00000   0.08246   0.08246   2.17668
   A18        2.09455   0.01610   0.00000   0.00616   0.00616   2.10071
   A19        2.09440   0.00128   0.00000  -0.00201  -0.00201   2.09238
   A20        2.09440   0.00006   0.00000   0.01289   0.01289   2.10729
   A21        2.09440  -0.00151   0.00000  -0.00690  -0.00690   2.08749
   A22        2.09412   0.01690   0.00000   0.02158   0.02158   2.11569
    D3        1.05941   0.00395   0.00000   0.01652   0.01652   1.07594
    D4        3.14159  -0.00011   0.00000   0.00021   0.00021   3.14180
    D5        5.22203  -0.00367   0.00000  -0.01506  -0.01506   5.20696
    D6        1.04720   0.00422   0.00000   0.03444   0.03444   1.08164
    D7        3.13985   0.00019   0.00000   0.00728   0.00728   3.14713
    D8        5.23424  -0.00406   0.00000  -0.02139  -0.02139   5.21285
    D9        5.23250   0.00050   0.00000   0.00229   0.00229   5.23478
   D10        1.05243  -0.00066   0.00000  -0.00284  -0.00284   1.04959
   D11        3.14159   0.00016   0.00000   0.00072   0.00072   3.14232
   D14        6.26573   0.00832   0.00000   0.00980   0.00980   6.27553
   D16        3.13287  -0.00517   0.00000   0.00096   0.00096   3.13383
   D17        6.26748   0.00016   0.00000   0.00318   0.00318   6.27065
   D18        3.12414   0.00020   0.00000   0.00683   0.00683   3.13097
   D19        3.14159   0.00062   0.00000   0.00067   0.00067   3.14226
   D20        3.14159   0.00019   0.00000  -0.00298  -0.00298   3.13861
   D21        0.01571  -0.00035   0.00000  -0.00680  -0.00680   0.00891
    A1        1.57080  -0.03128   0.00000   0.00000   0.00000   1.57080
    A2        1.57080   0.00099   0.00000   0.00000   0.00000   1.57080
    A3        1.57080   0.04862   0.00000   0.00000   0.00000   1.57080
    D1        3.14159  -0.00051   0.00000   0.00000   0.00000   3.14159
    D2       -3.14159  -0.00003   0.00000   0.00000   0.00000  -3.14159
   D13        3.14159   0.00483   0.00000   0.00000   0.00000   3.14159
   D15        6.28319   0.00568   0.00000   0.00000   0.00000   6.28319
   D12        0.00000  -0.01162   0.00000   0.00000   0.00000   0.00000
         Item               Value     Threshold  Converged?
 Maximum Force            0.076441     0.000450     NO 
 RMS     Force            0.015652     0.000300     NO 
 Maximum Displacement     0.092567     0.001800     NO 
 RMS     Displacement     0.020815     0.001200     NO 
 Predicted change in Energy=-6.386948D-03
 GradGradGradGradGradGradGradGradGradGradGradGradGradGradGradGradGradGrad

 ---------------------------------------------------------------------------------------------------
                            Z-MATRIX (ANGSTROMS AND DEGREES)
   CD    Cent   Atom    N1       Length/X        N2       Alpha/Y        N3        Beta/Z          J
 ---------------------------------------------------------------------------------------------------
      1      1  Ir
      2      2  C        1   2.119838(     1)
      3      3  P        1   2.265652(     2)      2   90.000(    24)
      4      4  N        1   2.245152(     3)      3   90.000(    25)      2  180.000(    46)      0
      5      5  P        1   2.271975(     4)      2   90.000(    26)      3 -180.000(    47)      0
      6      6  H        3   1.430489(     5)      1  121.211(    27)      2   61.647(    48)      0
      7      7  H        3   1.440671(     6)      1  118.362(    28)      2  180.012(    49)      0
      8      8  H        3   1.430468(     7)      1  121.210(    29)      2  298.337(    50)      0
      9      9  H        5   1.430387(     8)      1  121.047(    30)      2   61.974(    51)      0
     10     10  H        5   1.438616(     9)      1  119.081(    31)      2  180.317(    52)      0
     11     11  H        5   1.430514(    10)      1  121.020(    32)      2  298.674(    53)      0
     12     12  H        4   1.026107(    11)      1  111.397(    33)      5  299.931(    54)      0
     13     13  H        4   1.026190(    12)      1  111.443(    34)      5   60.137(    55)      0
     14     14  H        4   1.025701(    13)      1  113.276(    35)      5  180.042(    56)      0
     15     15  C        3   3.042984(    14)      1   69.814(    36)      2    0.000(    57)      0
     16     16  C       15   1.403207(    15)      2  123.014(    37)      1  180.000(    58)      0
     17     17  C       16   1.395922(    16)     15  120.699(    38)      2  359.562(    59)      0
     18     18  C       17   1.394864(    17)     16  118.488(    39)     15  360.000(    60)      0
     19     19  C        2   1.420502(    18)      1  124.714(    40)      3  179.555(    61)      0
     20     20  H       15   1.086361(    19)      2  120.362(    41)      1  359.282(    62)      0
     21     21  H       16   1.094608(    20)     15  119.885(    42)      2  179.391(    63)      0
     22     22  H       17   1.092971(    21)     16  120.739(    43)     15  180.038(    64)      0
     23     23  H       18   1.094663(    22)     17  119.605(    44)     16  179.829(    65)      0
     24     24  H       19   1.085921(    23)      2  121.220(    45)      1    0.510(    66)      0
 ---------------------------------------------------------------------------------------------------
                         Z-Matrix orientation:                         
 ---------------------------------------------------------------------
 Center     Atomic      Atomic             Coordinates (Angstroms)
 Number     Number       Type             X           Y           Z
 ---------------------------------------------------------------------
      1         77           0        0.000000    0.000000    0.000000
      2          6           0        0.000000    0.000000    2.119838
      3         15           0        2.265652    0.000000    0.000000
      4          7           0        0.000000    0.000000   -2.245152
      5         15           0       -2.271975    0.000000    0.000000
      6          1           0        3.006928   -1.076671    0.581022
      7          1           0        2.950032    0.000262   -1.267736
      8          1           0        3.006893    1.076835    0.580712
      9          1           0       -3.009677    1.081770    0.575828
     10          1           0       -2.971207   -0.006960   -1.257236
     11          1           0       -3.009178   -1.075583    0.588237
     12          1           0       -0.476696   -0.827962   -2.619498
     13          1           0       -0.475601    0.828333   -2.620298
     14          1           0        0.942222   -0.000683   -2.650466
     15          6           0        1.215591    0.000000    2.856069
     16          6           0        1.259973    0.000000    4.258573
     17          6           0        0.082852    0.009185    5.008841
     18          6           0       -1.137090    0.018352    4.332598
     19          6           0       -1.167619    0.009070    2.928794
     20          1           0        2.170840   -0.011746    2.338823
     21          1           0        2.225753   -0.010086    4.773679
     22          1           0        0.116675    0.009819    6.101288
     23          1           0       -2.071477    0.022797    4.902850
     24          1           0       -2.159166    0.008500    2.486010
 ---------------------------------------------------------------------
                    Distance matrix (angstroms):
                    1          2          3          4          5
     1  Ir   0.000000
     2  C    2.119838   0.000000
     3  P    2.265652   3.102723   0.000000
     4  N    2.245152   4.364990   3.189653   0.000000
     5  P    2.271975   3.107344   4.537627   3.194147   0.000000
     6  H    3.246294   3.545249   1.430489   4.264750   5.418821
     7  H    3.210895   4.492032   1.440671   3.107738   5.373688
     8  H    3.246260   3.545404   1.430468   4.264561   5.418786
     9  H    3.249609   3.551387   5.415800   4.264541   1.430387
    10  H    3.226261   4.498083   5.385664   3.131149   1.438616
    11  H    3.249316   3.543703   5.415416   4.270846   1.430514
    12  H    2.788284   4.834674   3.881721   1.026107   3.281816
    13  H    2.788959   4.835414   3.881567   1.026190   3.283148
    14  H    2.812962   4.862467   2.962505   1.025701   4.166057
    15  C    3.103996   1.421160   3.042984   5.244055   4.507798
    16  C    4.441056   2.482281   4.375710   6.624649   5.532640
    17  C    5.009534   2.890205   5.463807   7.254472   5.534779
    18  C    4.479366   2.487894   5.509119   6.675336   4.478807
    19  C    3.152975   1.420502   4.512789   5.304068   3.130099
    20  H    3.191046   2.181888   2.340774   5.072032   5.020840
    21  H    5.267076   3.463661   4.773856   7.363292   6.558786
    22  H    6.102412   3.983171   6.468687   8.347262   6.552211
    23  H    5.322544   3.469393   6.545925   7.442141   4.907001
    24  H    3.292767   2.190012   5.075365   5.200573   2.488582
                    6          7          8          9         10
     6  H    0.000000
     7  H    2.140311   0.000000
     8  H    2.153506   2.139860   0.000000
     9  H    6.392060   6.331392   6.016574   0.000000
    10  H    6.345200   5.921253   6.347467   2.132354   0.000000
    11  H    6.016110   6.333583   6.389528   2.157388   2.132878
    12  H    4.737174   3.775670   5.099508   4.502574   2.958443
    13  H    5.099559   3.774929   4.736663   4.086685   2.963731
    14  H    3.982873   2.437878   3.983017   5.215187   4.154041
    15  C    3.089328   4.473707   3.089593   4.921647   5.869293
    16  C    4.211348   5.778962   4.211647   5.741319   6.951768
    17  C    5.416168   6.900451   5.412783   5.510515   6.970743
    18  C    5.696164   6.933155   5.689431   4.330215   5.883100
    19  C    4.910979   5.879286   4.907154   3.174951   4.558074
    20  H    2.218778   3.689791   2.230459   5.580473   6.274735
    21  H    4.396159   6.084684   4.401426   6.798811   7.961177
    22  H    6.325137   7.894968   6.322076   6.438468   7.980174
    23  H    6.758492   7.955639   6.751423   4.552446   6.225516
    24  H    5.612049   6.339920   5.608891   2.350334   3.830344
                   11         12         13         14         15
    11  H    0.000000
    12  H    4.094429   0.000000
    13  H    4.509835   1.656296   0.000000
    14  H    5.220936   1.642765   1.642680   0.000000
    15  C    4.914123   5.790612   5.791102   5.513316   0.000000
    16  C    5.731832   7.142087   7.142634   6.916343   1.403207
    17  C    5.502645   7.694508   7.693285   7.707373   2.432614
    18  C    4.326852   7.034487   7.031103   7.286089   2.777694
    19  C    3.169545   5.653454   5.651771   5.964870   2.384337
    20  H    5.570357   5.679842   5.683508   5.138349   1.086361
    21  H    6.786583   7.913989   7.916512   7.534287   2.167432
    22  H    6.429836   8.781007   8.779911   8.790611   3.426246
    23  H    4.549901   7.736461   7.732623   8.132375   3.872293
    24  H    2.345058   5.440274   5.438832   6.000173   3.394996
                   16         17         18         19         20
    16  C    0.000000
    17  C    1.395922   0.000000
    18  C    2.398275   1.394864   0.000000
    19  C    2.767959   2.426988   1.404166   0.000000
    20  H    2.124913   3.389561   3.862440   3.390252   0.000000
    21  H    1.094608   2.155852   3.391766   3.862505   2.435476
    22  H    2.168600   1.092971   2.168009   3.422591   4.286747
    23  H    3.393254   2.156978   1.094663   2.171184   4.957084
    24  H    3.851307   3.375103   2.110598   1.085921   4.332554
                   21         22         23         24
    21  H    0.000000
    22  H    2.492219   0.000000
    23  H    4.299297   2.494882   0.000000
    24  H    4.945836   4.271966   2.418473   0.000000
 Stoichiometry    C6H14IrNP2
 Framework group  C1[X(C6H14IrNP2)]
 Deg. of freedom    66
 Full point group                 C1      NOp   1
 Largest Abelian subgroup         C1      NOp   1
 Largest concise Abelian subgroup C1      NOp   1
                         Standard orientation:                         
 ---------------------------------------------------------------------
 Center     Atomic      Atomic             Coordinates (Angstroms)
 Number     Number       Type             X           Y           Z
 ---------------------------------------------------------------------
      1         77           0       -0.767292   -0.002792    0.000284
      2          6           0        1.352239    0.033111    0.003547
      3         15           0       -0.728915   -2.268117   -0.002401
      4          7           0       -3.012120   -0.040818   -0.003172
      5         15           0       -0.805777    2.268856    0.002976
      6          1           0       -0.137056   -3.000749    1.074285
      7          1           0       -1.984875   -2.973870   -0.005426
      8          1           0       -0.134096   -2.998112   -1.079218
      9          1           0       -0.240884    3.017513   -1.077031
     10          1           0       -2.074685    2.946684    0.008829
     11          1           0       -0.231745    3.014613    1.080336
     12          1           0       -3.395744    0.428467    0.824777
     13          1           0       -3.394009    0.429364   -0.831518
     14          1           0       -3.401416   -0.989769   -0.004230
     15          6           0        2.108954   -1.169835    0.003240
     16          6           0        3.512007   -1.190456    0.005347
     17          6           0        4.242241   -0.000787   -0.001289
     18          6           0        3.545446    1.207536   -0.010051
     19          6           0        2.141314    1.214274   -0.002894
     20          1           0        1.607946   -2.133721    0.013058
     21          1           0        4.043382   -2.147386    0.015081
     22          1           0        5.335105   -0.016102   -0.000281
     23          1           0        4.099795    2.151453   -0.012511
     24          1           0        1.681797    2.198178   -0.001830
 ---------------------------------------------------------------------
 Rotational constants (GHZ):           1.0803962           0.4877005           0.3387520
 Basis read from rwf:  (5D, 7F)
 Pseudo-potential data read from rwf file.
 There are   346 symmetry adapted cartesian basis functions of A   symmetry.
 There are   334 symmetry adapted basis functions of A   symmetry.
   334 basis functions,   529 primitive gaussians,   346 cartesian basis functions
    52 alpha electrons       52 beta electrons
       nuclear repulsion energy       831.3468448951 Hartrees.
 NAtoms=   24 NActive=   24 NUniq=   24 SFac= 1.00D+00 NAtFMM=   60 NAOKFM=F Big=F
 Integral buffers will be    131072 words long.
 Raffenetti 2 integral format.
 Two-electron integral symmetry is turned on.
 One-electron integrals computed using PRISM.
   1 Symmetry operations used in ECPInt.
 ECPInt:  NShTT=    9591 NPrTT=   30119 LenC2=    8895 LenP2D=   20637.
 LDataN:  DoStor=T MaxTD1= 7 Len=  274
 NBasis=   334 RedAO= T EigKep=  1.00D-06  NBF=   334
 NBsUse=   334 1.00D-06 EigRej= -1.00D+00 NBFU=   334
 Defaulting to unpruned grid for atomic number  77.
 Initial guess from the checkpoint file:  "trans-phenyl_Ir_PH3_2_NH3.chk"
 B after Tr=    -0.000000   -0.000000    0.000000
         Rot=    0.999995    0.000043   -0.000025   -0.003283 Ang=   0.38 deg.
[...]
 ---------------------------------------------------------------------
 Rotational constants (GHZ):           1.0813217           0.4939339           0.3418343

 **********************************************************************

            Population analysis using the SCF Density.

 **********************************************************************

 Orbital symmetries:
       Occupied  (A) (A) (A) (A) (A) (A) (A) (A) (A) (A) (A) (A)
                 (A) (A) (A) (A) (A) (A) (A) (A) (A) (A) (A) (A)
                 (A) (A) (A) (A) (A) (A) (A) (A) (A) (A) (A) (A)
                 (A) (A) (A) (A) (A) (A) (A) (A) (A) (A) (A) (A)
                 (A) (A) (A) (A)
       Virtual   (A) (A) (A) (A) (A) (A) (A) (A) (A) (A) (A) (A)
                 (A) (A) (A) (A) (A) (A) (A) (A) (A) (A) (A) (A)
                 (A) (A) (A) (A) (A) (A) (A) (A) (A) (A) (A) (A)
                 (A) (A) (A) (A) (A) (A) (A) (A) (A) (A) (A) (A)
                 (A) (A) (A) (A) (A) (A) (A) (A) (A) (A) (A) (A)
                 (A) (A) (A) (A) (A) (A) (A) (A) (A) (A) (A) (A)
                 (A) (A) (A) (A) (A) (A) (A) (A) (A) (A) (A) (A)
                 (A) (A) (A) (A) (A) (A) (A) (A) (A) (A) (A) (A)
                 (A) (A) (A) (A) (A) (A) (A) (A) (A) (A) (A) (A)
                 (A) (A) (A) (A) (A) (A) (A) (A) (A) (A) (A) (A)
                 (A) (A) (A) (A) (A) (A) (A) (A) (A) (A) (A) (A)
                 (A) (A) (A) (A) (A) (A) (A) (A) (A) (A) (A) (A)
                 (A) (A) (A) (A) (A) (A) (A) (A) (A) (A) (A) (A)
                 (A) (A) (A) (A) (A) (A) (A) (A) (A) (A) (A) (A)
                 (A) (A) (A) (A) (A) (A) (A) (A) (A) (A) (A) (A)
                 (A) (A) (A) (A) (A) (A) (A) (A) (A) (A) (A) (A)
                 (A) (A) (A) (A) (A) (A) (A) (A) (A) (A) (A) (A)
                 (A) (A) (A) (A) (A) (A) (A) (A) (A) (A) (A) (A)
                 (A) (A) (A) (A) (A) (A) (A) (A) (A) (A) (A) (A)
                 (A) (A) (A) (A) (A) (A) (A) (A) (A) (A) (A) (A)
                 (A) (A) (A) (A) (A) (A) (A) (A) (A) (A) (A) (A)
                 (A) (A) (A) (A) (A) (A) (A) (A) (A) (A) (A) (A)
                 (A) (A) (A) (A) (A) (A) (A) (A) (A) (A) (A) (A)
                 (A) (A) (A) (A) (A)
 The electronic state is 1-A.
 Alpha  occ. eigenvalues --  -76.31723 -76.31702 -14.03457  -9.86238  -9.85723
 Alpha  occ. eigenvalues --   -9.85722  -9.85425  -9.85387  -9.85375  -6.33010
 Alpha  occ. eigenvalues --   -6.32990  -4.54689  -4.54663  -4.54598  -4.54581
 Alpha  occ. eigenvalues --   -4.54287  -4.54267  -3.49283  -1.88814  -1.87714
 Alpha  occ. eigenvalues --   -1.84286  -0.83932  -0.74151  -0.64404  -0.64018
 Alpha  occ. eigenvalues --   -0.61057  -0.60420  -0.50978  -0.50731  -0.47574
 Alpha  occ. eigenvalues --   -0.47379  -0.43719  -0.38664  -0.37866  -0.37131
 Alpha  occ. eigenvalues --   -0.36527  -0.36230  -0.35834  -0.35512  -0.35010
 Alpha  occ. eigenvalues --   -0.33232  -0.30767  -0.29693  -0.27379  -0.26581
 Alpha  occ. eigenvalues --   -0.22906  -0.20907  -0.19804  -0.19454  -0.18271
 Alpha  occ. eigenvalues --   -0.14327  -0.13934
 Alpha virt. eigenvalues --   -0.05346  -0.04919  -0.03538  -0.02305  -0.01594
 Alpha virt. eigenvalues --   -0.01338   0.00148   0.00449   0.00574   0.01429
 Alpha virt. eigenvalues --    0.02080   0.02524   0.02693   0.03153   0.03223
 Alpha virt. eigenvalues --    0.03871   0.04353   0.04855   0.05947   0.05975
 Alpha virt. eigenvalues --    0.06749   0.06978   0.07875   0.08201   0.08339
 Alpha virt. eigenvalues --    0.09053   0.09507   0.10430   0.10879   0.11645
 Alpha virt. eigenvalues --    0.11803   0.12217   0.12240   0.12338   0.13099
 Alpha virt. eigenvalues --    0.14266   0.14670   0.14695   0.15002   0.15160
 Alpha virt. eigenvalues --    0.15513   0.16197   0.16515   0.18084   0.18572
 Alpha virt. eigenvalues --    0.18681   0.19098   0.19494   0.19685   0.20093
 Alpha virt. eigenvalues --    0.20410   0.20518   0.21745   0.22682   0.22884
 Alpha virt. eigenvalues --    0.23818   0.24142   0.24238   0.25911   0.26319
 Alpha virt. eigenvalues --    0.26832   0.26925   0.27111   0.28550   0.28742
 Alpha virt. eigenvalues --    0.29777   0.30304   0.31441   0.31851   0.32212
 Alpha virt. eigenvalues --    0.32480   0.33976   0.34785   0.35280   0.36606
 Alpha virt. eigenvalues --    0.39293   0.39588   0.40831   0.42031   0.42828
 Alpha virt. eigenvalues --    0.43337   0.45734   0.48170   0.48503   0.48681
 Alpha virt. eigenvalues --    0.50949   0.51602   0.51893   0.52890   0.52938
 Alpha virt. eigenvalues --    0.53314   0.53835   0.55899   0.56042   0.57181
 Alpha virt. eigenvalues --    0.57925   0.58875   0.59426   0.61024   0.62057
 Alpha virt. eigenvalues --    0.62427   0.62592   0.64734   0.65637   0.65744
 Alpha virt. eigenvalues --    0.67109   0.68094   0.68549   0.69347   0.70818
 Alpha virt. eigenvalues --    0.70990   0.71767   0.72696   0.74342   0.74904
 Alpha virt. eigenvalues --    0.76243   0.79112   0.80345   0.81681   0.82548
 Alpha virt. eigenvalues --    0.83914   0.85234   0.85475   0.85724   0.87210
 Alpha virt. eigenvalues --    0.88793   0.88999   0.91007   0.91346   0.93573
 Alpha virt. eigenvalues --    0.94820   0.95263   0.97121   0.97992   0.99342
 Alpha virt. eigenvalues --    1.04077   1.04372   1.05875   1.07022   1.10674
 Alpha virt. eigenvalues --    1.11286   1.13775   1.20393   1.22396   1.23082
 Alpha virt. eigenvalues --    1.23182   1.24045   1.27613   1.28412   1.30327
 Alpha virt. eigenvalues --    1.30433   1.31969   1.33323   1.34672   1.36152
 Alpha virt. eigenvalues --    1.40467   1.43829   1.44435   1.45061   1.47660
 Alpha virt. eigenvalues --    1.48581   1.49986   1.50837   1.52936   1.53522
 Alpha virt. eigenvalues --    1.55193   1.56817   1.58024   1.59854   1.60127
 Alpha virt. eigenvalues --    1.62104   1.62892   1.64114   1.64594   1.65658
 Alpha virt. eigenvalues --    1.66759   1.68962   1.69521   1.70968   1.73804
 Alpha virt. eigenvalues --    1.74474   1.74610   1.79987   1.80709   1.81561
 Alpha virt. eigenvalues --    1.81629   1.85064   1.85809   1.86121   1.87477
 Alpha virt. eigenvalues --    1.88214   1.89980   1.93123   1.93434   1.96680
 Alpha virt. eigenvalues --    1.98448   2.00589   2.01995   2.05209   2.08707
 Alpha virt. eigenvalues --    2.09426   2.09935   2.11809   2.12336   2.12624
 Alpha virt. eigenvalues --    2.21786   2.22081   2.25192   2.27735   2.34232
 Alpha virt. eigenvalues --    2.35429   2.40312   2.43699   2.46467   2.48150
 Alpha virt. eigenvalues --    2.51652   2.52024   2.52517   2.53648   2.54394
 Alpha virt. eigenvalues --    2.55521   2.58259   2.59570   2.61606   2.63261
 Alpha virt. eigenvalues --    2.64756   2.68302   2.68763   2.71067   2.71649
 Alpha virt. eigenvalues --    2.72087   2.74055   2.74415   2.76304   2.76358
 Alpha virt. eigenvalues --    2.84504   2.85232   2.85766   2.89046   2.89847
 Alpha virt. eigenvalues --    2.90001   2.95091   2.96805   3.03172   3.10106
 Alpha virt. eigenvalues --    3.13764   3.28352   3.31358   3.42418   3.45778
 Alpha virt. eigenvalues --    3.47529   3.73565   3.91816   3.97697   4.07131
 Alpha virt. eigenvalues --    4.08497   4.10802   4.52817   4.52873   4.72850
 Alpha virt. eigenvalues --    6.99831   7.01159  13.67345  13.70558  13.77764
 Alpha virt. eigenvalues --   13.79950  13.82812  13.88069  23.36498  23.69322
 Alpha virt. eigenvalues --   23.70797  23.80597  23.85227  23.93702  35.23241
 Alpha virt. eigenvalues --   47.24728  47.54001  47.67998 139.50054 162.57575
 Alpha virt. eigenvalues --  162.59276
          Condensed to atoms (all electrons):
               1          2          3          4          5          6
     1  Ir  17.404390   0.303637  -0.256909  -0.076482  -0.259849  -0.009837
     2  C    0.303637  37.375203  -3.164151  -0.000097  -3.407648   0.330851
     3  P   -0.256909  -3.164151  16.251911  -0.000334  -0.773617   0.276126
     4  N   -0.076482  -0.000097  -0.000334   6.855969  -0.023692  -0.002093
     5  P   -0.259849  -3.407648  -0.773617  -0.023692  16.236870   0.011351
     6  H   -0.009837   0.330851   0.276126  -0.002093   0.011351   0.700950
     7  H    0.013139   0.103770   0.192357  -0.009447   0.013359  -0.016330
     8  H   -0.007526   0.330428   0.271248  -0.003578   0.011985  -0.035028
     9  H   -0.008608   0.335404   0.012822  -0.002171   0.262667  -0.000002
    10  H   -0.000989   0.093227   0.009891  -0.003520   0.227324  -0.000003
    11  H   -0.010647   0.341516   0.012323  -0.000473   0.268145  -0.000045
    12  H   -0.010746   0.000335   0.004432   0.319006   0.005995   0.000258
    13  H   -0.011855   0.000889   0.005905   0.312818   0.004898  -0.000073
    14  H    0.002859  -0.003918   0.002711   0.333572   0.000579  -0.000362
    15  C   -0.233330  -4.761932   5.717298  -0.007166  -3.857946  -0.333467
    16  C   -0.055005  -8.134024   1.261030  -0.010796  -0.534452  -0.116835
    17  C   -0.070883  -3.192701   0.138645   0.000343   0.140068  -0.008243
    18  C   -0.103549  -7.673572  -0.513857  -0.002640   1.316596   0.012678
    19  C    0.003247  -5.787852  -3.931435  -0.013241   5.777671   0.109225
    20  H   -0.048044   0.094350  -0.003170  -0.000243   0.010501  -0.000238
    21  H   -0.000748   0.050782  -0.001458   0.000015   0.000157   0.000052
    22  H   -0.000321   0.008603   0.000140  -0.000002  -0.000029   0.000000
    23  H   -0.000885   0.053765   0.000098   0.000016  -0.001024  -0.000000
    24  H   -0.049322   0.126390   0.007081   0.001651   0.005891  -0.000015
               7          8          9         10         11         12
     1  Ir   0.013139  -0.007526  -0.008608  -0.000989  -0.010647  -0.010746
     2  C    0.103770   0.330428   0.335404   0.093227   0.341516   0.000335
     3  P    0.192357   0.271248   0.012822   0.009891   0.012323   0.004432
     4  N   -0.009447  -0.003578  -0.002171  -0.003520  -0.000473   0.319006
     5  P    0.013359   0.011985   0.262667   0.227324   0.268145   0.005995
     6  H   -0.016330  -0.035028  -0.000002  -0.000003  -0.000045   0.000258
     7  H    0.746270  -0.016262  -0.000004  -0.000028  -0.000004  -0.000671
     8  H   -0.016262   0.700164  -0.000046  -0.000004  -0.000002  -0.000072
     9  H   -0.000004  -0.000046   0.703191  -0.016745  -0.033158   0.000224
    10  H   -0.000028  -0.000004  -0.016745   0.727157  -0.017135   0.003823
    11  H   -0.000004  -0.000002  -0.033158  -0.017135   0.703076  -0.000539
    12  H   -0.000671  -0.000072   0.000224   0.003823  -0.000539   0.443788
    13  H   -0.000853   0.000304  -0.000264   0.002334   0.000130  -0.016578
    14  H    0.014699  -0.000084  -0.000027   0.000126  -0.000005  -0.024455
    15  C   -0.086201  -0.333501   0.107199   0.036358   0.107400   0.003078
    16  C   -0.015793  -0.113456   0.011424   0.002160   0.012065   0.000342
    17  C   -0.001419  -0.008077  -0.008396  -0.001382  -0.008689   0.000002
    18  C    0.001658   0.012207  -0.107691  -0.017408  -0.112983  -0.000420
    19  C    0.035679   0.110157  -0.335038  -0.085242  -0.339703  -0.003373
    20  H    0.002859  -0.000454  -0.000014  -0.000007  -0.000016  -0.000011
    21  H   -0.000005   0.000054  -0.000000   0.000000  -0.000000  -0.000000
    22  H   -0.000000   0.000000   0.000000  -0.000000   0.000000   0.000000
    23  H    0.000000  -0.000000   0.000054  -0.000005   0.000056  -0.000000
    24  H   -0.000006  -0.000014  -0.000755   0.002799  -0.000929  -0.000064
              13         14         15         16         17         18
     1  Ir  -0.011855   0.002859  -0.233330  -0.055005  -0.070883  -0.103549
     2  C    0.000889  -0.003918  -4.761932  -8.134024  -3.192701  -7.673572
     3  P    0.005905   0.002711   5.717298   1.261030   0.138645  -0.513857
     4  N    0.312818   0.333572  -0.007166  -0.010796   0.000343  -0.002640
     5  P    0.004898   0.000579  -3.857946  -0.534452   0.140068   1.316596
     6  H   -0.000073  -0.000362  -0.333467  -0.116835  -0.008243   0.012678
     7  H   -0.000853   0.014699  -0.086201  -0.015793  -0.001419   0.001658
     8  H    0.000304  -0.000084  -0.333501  -0.113456  -0.008077   0.012207
     9  H   -0.000264  -0.000027   0.107199   0.011424  -0.008396  -0.107691
    10  H    0.002334   0.000126   0.036358   0.002160  -0.001382  -0.017408
    11  H    0.000130  -0.000005   0.107400   0.012065  -0.008689  -0.112983
    12  H   -0.016578  -0.024455   0.003078   0.000342   0.000002  -0.000420
    13  H    0.449621  -0.024686   0.002878   0.000304   0.000015  -0.000348
    14  H   -0.024686   0.433195  -0.002837  -0.000244  -0.000038   0.000349
    15  C    0.002878  -0.002837  36.154008   7.675657  -0.719900  -6.499778
    16  C    0.000304  -0.000244   7.675657  13.482192   1.780927  -2.464975
    17  C    0.000015  -0.000038  -0.719900   1.780927   6.653563   1.833722
    18  C   -0.000348   0.000349  -6.499778  -2.464975   1.833722  12.824716
    19  C   -0.003204   0.004197 -26.199187  -6.505120  -0.597943   7.847266
    20  H   -0.000018   0.000054   0.173128  -0.024635   0.014296  -0.022793
    21  H   -0.000000  -0.000000  -0.056892   0.382918  -0.029022  -0.005270
    22  H    0.000000  -0.000000   0.021502  -0.054690   0.397580  -0.048648
    23  H   -0.000000   0.000000  -0.005816  -0.004842  -0.029910   0.376548
    24  H   -0.000071   0.000008   0.046000  -0.013408   0.007128  -0.071026
              19         20         21         22         23         24
     1  Ir   0.003247  -0.048044  -0.000748  -0.000321  -0.000885  -0.049322
     2  C   -5.787852   0.094350   0.050782   0.008603   0.053765   0.126390
     3  P   -3.931435  -0.003170  -0.001458   0.000140   0.000098   0.007081
     4  N   -0.013241  -0.000243   0.000015  -0.000002   0.000016   0.001651
     5  P    5.777671   0.010501   0.000157  -0.000029  -0.001024   0.005891
     6  H    0.109225  -0.000238   0.000052   0.000000  -0.000000  -0.000015
     7  H    0.035679   0.002859  -0.000005  -0.000000   0.000000  -0.000006
     8  H    0.110157  -0.000454   0.000054   0.000000  -0.000000  -0.000014
     9  H   -0.335038  -0.000014  -0.000000   0.000000   0.000054  -0.000755
    10  H   -0.085242  -0.000007   0.000000  -0.000000  -0.000005   0.002799
    11  H   -0.339703  -0.000016  -0.000000   0.000000   0.000056  -0.000929
    12  H   -0.003373  -0.000011  -0.000000   0.000000  -0.000000  -0.000064
    13  H   -0.003204  -0.000018  -0.000000   0.000000  -0.000000  -0.000071
    14  H    0.004197   0.000054  -0.000000  -0.000000   0.000000   0.000008
    15  C  -26.199187   0.173128  -0.056892   0.021502  -0.005816   0.046000
    16  C   -6.505120  -0.024635   0.382918  -0.054690  -0.004842  -0.013408
    17  C   -0.597943   0.014296  -0.029022   0.397580  -0.029910   0.007128
    18  C    7.847266  -0.022793  -0.005270  -0.048648   0.376548  -0.071026
    19  C   36.486095   0.057324  -0.004211   0.014957  -0.051538   0.190559
    20  H    0.057324   0.679879  -0.013635  -0.000640   0.000140  -0.000157
    21  H   -0.004211  -0.013635   0.571557  -0.008728  -0.000403   0.000145
    22  H    0.014957  -0.000640  -0.008728   0.558484  -0.008690  -0.000656
    23  H   -0.051538   0.000140  -0.000403  -0.008690   0.571431  -0.013623
    24  H    0.190559  -0.000157   0.000145  -0.000656  -0.013623   0.680537
 Mulliken charges:
               1
     1  Ir   0.488265
     2  C    2.576743
     3  P   -0.519089
     4  N   -0.667414
     5  P   -0.435800
     6  H    0.081082
     7  H    0.023233
     8  H    0.081554
     9  H    0.079934
    10  H    0.037270
    11  H    0.079618
    12  H    0.275645
    13  H    0.277854
    14  H    0.264308
    15  C   -0.946551
    16  C   -0.560745
    17  C   -0.289686
    18  C   -0.580784
    19  C   -0.779292
    20  H    0.081543
    21  H    0.114692
    22  H    0.121136
    23  H    0.114628
    24  H    0.081857
 Sum of Mulliken charges =  -0.00000
 Mulliken charges with hydrogens summed into heavy atoms:
               1
     1  Ir   0.488265
     2  C    2.576743
     3  P   -0.333220
     4  N    0.150393
     5  P   -0.238978
    15  C   -0.865008
    16  C   -0.446053
    17  C   -0.168550
    18  C   -0.466156
    19  C   -0.697435
 Electronic spatial extent (au):  <R**2>=           3008.0352
 Charge=             -0.0000 electrons
 Dipole moment (field-independent basis, Debye):
    X=             -6.4639    Y=              0.0513    Z=             -0.0097  Tot=              6.4641
 Quadrupole moment (field-independent basis, Debye-Ang):
   XX=            -83.6742   YY=            -83.8313   ZZ=           -102.7375
   XY=             -0.1845   XZ=              0.0241   YZ=             -0.0011
 Traceless Quadrupole moment (field-independent basis, Debye-Ang):
   XX=              6.4068   YY=              6.2497   ZZ=            -12.6565
   XY=             -0.1845   XZ=              0.0241   YZ=             -0.0011
 Octapole moment (field-independent basis, Debye-Ang**2):
  XXX=           -175.7640  YYY=             -0.7888  ZZZ=             -0.2253  XYY=            -39.6190
  XXY=              0.3072  XXZ=             -0.0079  XZZ=            -52.8215  YZZ=              0.9768
  YYZ=              0.1864  XYZ=             -0.0199
 Hexadecapole moment (field-independent basis, Debye-Ang**3):
 XXXX=          -2484.8597 YYYY=          -1386.4661 ZZZZ=           -178.0778 XXXY=             -0.4194
 XXXZ=             -0.1001 YYYX=              1.9618 YYYZ=             -0.0196 ZZZX=              0.8917
 ZZZY=              0.0028 XXYY=           -660.6451 XXZZ=           -519.5857 YYZZ=           -265.4495
 XXYZ=             -0.0222 YYXZ=             -0.6854 ZZXY=             -3.6256
 N-N= 8.336587257196D+02 E-N=-4.185456009742D+03  KE= 1.007265225537D+03
 Unable to Open any file for archive entry.
 1\1\GINC-NODE003\POpt\RPBEPBE\GenECP\C6H14Ir1N1P2\MVANVLEET\05-Jun-202
 4\1\\# PBEPBE GenECP POpt\\trans-(H)Ir(PH3)2(NH3)\\0,1\Ir\C,1,B1\P,1,B
 2,2,A1\N,1,B3,3,A2,2,D1,0\P,1,B4,2,A3,3,D2,0\H,3,B5,1,A4,2,D3,0\H,3,B6
 ,1,A5,2,D4,0\H,3,B7,1,A6,2,D5,0\H,5,B8,1,A7,2,D6,0\H,5,B9,1,A8,2,D7,0\
 H,5,B10,1,A9,2,D8,0\H,4,B11,1,A10,5,D9,0\H,4,B12,1,A11,5,D10,0\H,4,B13
 ,1,A12,5,D11,0\C,3,B14,1,A13,2,D12,0\C,15,B15,2,A14,1,D13,0\C,16,B16,1
 5,A15,2,D14,0\C,17,B17,16,A16,15,D15,0\C,2,B18,1,A17,3,D16,0\H,15,B19,
 2,A18,1,D17,0\H,16,B20,15,A19,2,D18,0\H,17,B21,16,A20,15,D19,0\H,18,B2
 2,17,A21,16,D20,0\H,19,B23,2,A22,1,D21,0\\B1=2.07076138\B2=2.26669713\
 B3=2.24814525\B4=2.27099102\B5=1.42995154\B6=1.44127193\B7=1.42992688\
 B8=1.42995409\B9=1.43950951\B10=1.42992565\B11=1.02540188\B12=1.025660
 43\B13=1.02508442\B14=3.06237539\B15=1.39985583\B16=1.3979251\B17=1.39
 780983\B18=1.42556389\B19=1.09356064\B20=1.09446493\B21=1.09257622\B22
 =1.09447237\B23=1.09337949\A4=121.79093724\A5=117.69034514\A6=121.7674
 3868\A7=121.44704123\A8=118.42125565\A9=121.47103441\A10=111.18480111\
 A11=110.77287612\A12=113.23323266\A13=69.29864858\A14=124.36428877\A15
 =120.6750846\A16=117.65338795\A17=123.89410749\A18=120.82732012\A19=11
 9.15155137\A20=121.17157039\A21=120.17437954\A22=120.83704376\D3=62.29
 475918\D4=179.9907566\D5=297.65951714\D6=62.13997495\D7=180.21120285\D
 8=298.28763957\D9=304.20984379\D10=64.11000847\D11=184.09475668\D14=35
 9.95638\D16=179.93678132\D17=359.90092125\D18=179.96916985\D19=180.001
 37885\D20=180.01622244\D21=0.01195177\A1=90.\A2=90.\A3=90.\D1=180.\D2=
 -180.\D13=180.\D15=360.\D12=0.\\Version=ES64L-G16RevC.01\State=1-A\HF=
 -1078.3452568\RMSD=4.204e-09\RMSF=2.022e-03\Dipole=-0.0210745,0.003433
 6,-2.5430961\Quadrupole=4.64658,-9.409809,4.763229,-0.0027545,0.137217
 5,-0.015721\PG=C01 [X(C6H14Ir1N1P2)]\\@
 The archive entry for this job was punched.


 FROM THE ASHES OF OUR DESPAIR GROW THE FLOWERS OF TOMORROW.
 Job cpu time:       0 days  1 hours 40 minutes 33.4 seconds.
 Elapsed time:       0 days  0 hours  2 minutes 13.1 seconds.
 File lengths (MBytes):  RWF=     72 Int=      0 D2E=      0 Chk=     10 Scr=      1
 Normal termination of Gaussian 16 at Wed Jun  5 15:47:54 2024.
