 Entering Gaussian System, Link 0=/cm/shared/apps//g16/g16
 Input=trans-pyridonate_Ir_PH3_2_CO.gjf
 Output=trans-pyridonate_Ir_PH3_2_CO.log
 Initial command:
 /cm/shared/apps//g16/l1.exe "/local/mvanvleet/pbs.15360.josephine/Gau-120568.inp" -scrdir="/local/mvanvleet/pbs.15360.josephine/"
 Entering Link 1 = /cm/shared/apps//g16/l1.exe PID=    120571.
  
 Copyright (c) 1988-2019, Gaussian, Inc.  All Rights Reserved.
  
 This is part of the Gaussian(R) 16 program.  It is based on
 the Gaussian(R) 09 system (copyright 2009, Gaussian, Inc.),
 the Gaussian(R) 03 system (copyright 2003, Gaussian, Inc.),
 the Gaussian(R) 98 system (copyright 1998, Gaussian, Inc.),
 the Gaussian(R) 94 system (copyright 1995, Gaussian, Inc.),
 the Gaussian 92(TM) system (copyright 1992, Gaussian, Inc.),
 the Gaussian 90(TM) system (copyright 1990, Gaussian, Inc.),
 the Gaussian 88(TM) system (copyright 1988, Gaussian, Inc.),
 the Gaussian 86(TM) system (copyright 1986, Carnegie Mellon
 University), and the Gaussian 82(TM) system (copyright 1983,
 Carnegie Mellon University). Gaussian is a federally registered
 trademark of Gaussian, Inc.
  
 This software contains proprietary and confidential information,
 including trade secrets, belonging to Gaussian, Inc.
  
 This software is provided under written license and may be
 used, copied, transmitted, or stored only in accord with that
 written license.
  
 The following legend is applicable only to US Government
 contracts under FAR:
  
                    RESTRICTED RIGHTS LEGEND
  
 Use, reproduction and disclosure by the US Government is
 subject to restrictions as set forth in subparagraphs (a)
 and (c) of the Commercial Computer Software - Restricted
 Rights clause in FAR 52.227-19.
  
 Gaussian, Inc.
 340 Quinnipiac St., Bldg. 40, Wallingford CT 06492
  
  
 ---------------------------------------------------------------
 Warning -- This program may not be used in any manner that
 competes with the business of Gaussian, Inc. or will provide
 assistance to any competitor of Gaussian, Inc.  The licensee
 of this program is prohibited from giving any competitor of
 Gaussian, Inc. access to this program.  By using this program,
 the user acknowledges that Gaussian, Inc. is engaged in the
 business of creating and licensing software in the field of
 computational chemistry and represents and warrants to the
 licensee that it is not a competitor of Gaussian, Inc. and that
 it will not use this program in any manner prohibited above.
 ---------------------------------------------------------------
  

 Cite this work as:
 Gaussian 16, Revision C.01,
 M. J. Frisch, G. W. Trucks, H. B. Schlegel, G. E. Scuseria, 
 M. A. Robb, J. R. Cheeseman, G. Scalmani, V. Barone, 
 G. A. Petersson, H. Nakatsuji, X. Li, M. Caricato, A. V. Marenich, 
 J. Bloino, B. G. Janesko, R. Gomperts, B. Mennucci, H. P. Hratchian, 
 J. V. Ortiz, A. F. Izmaylov, J. L. Sonnenberg, D. Williams-Young, 
 F. Ding, F. Lipparini, F. Egidi, J. Goings, B. Peng, A. Petrone, 
 T. Henderson, D. Ranasinghe, V. G. Zakrzewski, J. Gao, N. Rega, 
 G. Zheng, W. Liang, M. Hada, M. Ehara, K. Toyota, R. Fukuda, 
 J. Hasegawa, M. Ishida, T. Nakajima, Y. Honda, O. Kitao, H. Nakai, 
 T. Vreven, K. Throssell, J. A. Montgomery, Jr., J. E. Peralta, 
 F. Ogliaro, M. J. Bearpark, J. J. Heyd, E. N. Brothers, K. N. Kudin, 
 V. N. Staroverov, T. A. Keith, R. Kobayashi, J. Normand, 
 K. Raghavachari, A. P. Rendell, J. C. Burant, S. S. Iyengar, 
 J. Tomasi, M. Cossi, J. M. Millam, M. Klene, C. Adamo, R. Cammi, 
 J. W. Ochterski, R. L. Martin, K. Morokuma, O. Farkas, 
 J. B. Foresman, and D. J. Fox, Gaussian, Inc., Wallingford CT, 2019.
 
 ******************************************
 Gaussian 16:  ES64L-G16RevC.01  3-Jul-2019
                 5-Jun-2024 
 ******************************************
 %nprocshared=48
 Will use up to   48 processors via shared memory.
 %chk=trans-pyridonate_Ir_PH3_2_CO.chk
 %mem=16GB
 -----------------------------
 # PBEPBE GenECP POpt Pop=NBO7
 -----------------------------
 1/10=7,26=3,38=1/1,3;
 2/12=2,17=6,18=5,29=3,40=1/2;
 3/5=7,11=2,16=1,17=8,25=1,30=1,71=1,74=1009/1,2,3;
 4//1;
 5/5=2,38=5/2;
 6/7=2,8=2,9=2,10=2,28=1,40=1,113=1,114=1,124=3103/1,12;
 7/29=1/1,2,3,16;
 1/10=7,26=3/3(2);
 2/29=3/2;
 99//99;
 2/29=3/2;
 3/5=7,6=1,11=2,16=1,17=8,25=1,30=1,71=1,74=1009,82=7/1,2,3;
 4/5=5,16=3,69=1/1;
 5/5=2,38=5/2;
 7//1,2,3,16;
 1/26=3/3(-5);
 2/29=3/2;
 6/7=2,8=2,9=2,10=2,19=2,28=1,40=1,113=1,114=1,124=3103/1,12;
 99/9=1/99;
 ---------------------
 trans-(H)Ir(PH3)2(CO)
 ---------------------
 Symbolic Z-matrix:
 Charge =  0 Multiplicity = 1
 Ir                   1
 N                    1    B1
 P                    1    B2       2    A1
 C                    1    B3       3    A2       2    D1       0
 P                    1    B4       2    A3       3    D2       0
 H                    3    B5       1    A4       2    D3       0
 H                    3    B6       1    A5       2    D4       0
 H                    3    B7       1    A6       2    D5       0
 H                    5    B8       1    A7       2    D6       0
 H                    5    B9       1    A8       2    D7       0
 H                    5    B10      1    A9       2    D8       0
 O                    1    B11      3    A10      8    D9       0
 C                    3    B14      1    A13      2    D12      0
 C                    13   B15      2    A14      1    D13      0
 C                    14   B16      13   A15      2    D14      0
 C                    15   B17      14   A16      13   D15      0
 C                    2    B18      1    A17      3    D16      0
 H                    13   B19      2    A18      1    D17      0
 H                    14   B20      13   A19      2    D18      0
 O                    15   B21      14   A20      13   D19      0
 H                    16   B22      15   A21      14   D20      0
 H                    17   B23      2    A22      1    D21      0
       Variables:
  B1                    2.104                    
  B2                    2.264                    
  B4                    2.27                     
  B5                    1.431                    
  B6                    1.437                    
  B7                    1.431                    
  B8                    1.431                    
  B9                    1.435                    
  B10                   1.431                    
  B11                   3.145                    
  B14                   2.994                    
  B15                   1.395                    
  B16                   1.395                    
  B17                   1.395                    
  B18                   1.395                    
  B19                   1.087                    
  B20                   1.087                    
  B21                   1.087                    
  B22                   1.087                    
  B23                   1.087                    
  A4                  120.705                    
  A5                  118.798                    
  A6                  120.72                     
  A7                  120.114                    
  A8                  120.136                    
  A9                  120.119                    
  A10                  90.                       
  A13                  69.4                      
  A14                 119.984                    
  A15                 120.                       
  A16                 120.                       
  A17                 119.99                     
  A18                 120.009                    
  A19                 120.                       
  A20                 120.                       
  A21                 120.                       
  A22                 119.984                    
  D3                   60.7                      
  D4                  180.                       
  D5                  299.2                      
  D6                   60.                       
  D7                  179.9                      
  D8                  299.9                      
  D9                  119.2                      
  D14                 359.                       
  D16                 179.5                      
  D17                 359.1                      
  D18                 179.                       
  D19                 180.                       
  D20                 180.                       
  D21                   0.9                      
       Constants:
  B3                    1.868                    
  A1                   90.                       
  A2                   90.                       
  A3                   90.                       
  D1                  180.                       
  D2                 -180.                       
  D13                 180.                       
  D15                 360.                       
  D12                   0.                       
 

 GradGradGradGradGradGradGradGradGradGradGradGradGradGradGradGradGradGrad
 Berny optimization.
 Initialization pass.
                       ----------------------------
                       !    Initial Parameters    !
                       ! (Angstroms and Degrees)  !
 ----------------------                            ----------------------
 !      Name          Value   Derivative information (Atomic Units)     !
 ------------------------------------------------------------------------
 !       B1          2.104    estimate D2E/DX2                          !
 !       B2          2.264    estimate D2E/DX2                          !
 !       B4          2.27     estimate D2E/DX2                          !
 !       B5          1.431    estimate D2E/DX2                          !
 !       B6          1.437    estimate D2E/DX2                          !
 !       B7          1.431    estimate D2E/DX2                          !
 !       B8          1.431    estimate D2E/DX2                          !
 !       B9          1.435    estimate D2E/DX2                          !
 !       B10         1.431    estimate D2E/DX2                          !
 !       B11         3.145    estimate D2E/DX2                          !
 !       B14         2.994    estimate D2E/DX2                          !
 !       B15         1.395    estimate D2E/DX2                          !
 !       B16         1.395    estimate D2E/DX2                          !
 !       B17         1.395    estimate D2E/DX2                          !
 !       B18         1.395    estimate D2E/DX2                          !
 !       B19         1.087    estimate D2E/DX2                          !
 !       B20         1.087    estimate D2E/DX2                          !
 !       B21         1.087    estimate D2E/DX2                          !
 !       B22         1.087    estimate D2E/DX2                          !
 !       B23         1.087    estimate D2E/DX2                          !
 !       A4        120.705    estimate D2E/DX2                          !
 !       A5        118.798    estimate D2E/DX2                          !
 !       A6        120.72     estimate D2E/DX2                          !
 !       A7        120.114    estimate D2E/DX2                          !
 !       A8        120.136    estimate D2E/DX2                          !
 !       A9        120.119    estimate D2E/DX2                          !
 !       A10        90.0      estimate D2E/DX2                          !
 !       A13        69.4      estimate D2E/DX2                          !
 !       A14       119.984    estimate D2E/DX2                          !
 !       A15       120.0      estimate D2E/DX2                          !
 !       A16       120.0      estimate D2E/DX2                          !
 !       A17       119.99     estimate D2E/DX2                          !
 !       A18       120.009    estimate D2E/DX2                          !
 !       A19       120.0      estimate D2E/DX2                          !
 !       A20       120.0      estimate D2E/DX2                          !
 !       A21       120.0      estimate D2E/DX2                          !
 !       A22       119.984    estimate D2E/DX2                          !
 !       D3         60.7      estimate D2E/DX2                          !
 !       D4        180.0      estimate D2E/DX2                          !
 !       D5        299.2      estimate D2E/DX2                          !
 !       D6         60.0      estimate D2E/DX2                          !
 !       D7        179.9      estimate D2E/DX2                          !
 !       D8        299.9      estimate D2E/DX2                          !
 !       D9        119.2      estimate D2E/DX2                          !
 !       D14       359.0      estimate D2E/DX2                          !
 !       D16       179.5      estimate D2E/DX2                          !
 !       D17       359.1      estimate D2E/DX2                          !
 !       D18       179.0      estimate D2E/DX2                          !
 !       D19       180.0      estimate D2E/DX2                          !
 !       D20       180.0      estimate D2E/DX2                          !
 !       D21         0.9      estimate D2E/DX2                          !
 !       B3          1.868    Frozen                                    !
 !       A1         90.0      Frozen                                    !
 !       A2         90.0      Frozen                                    !
 !       A3         90.0      Frozen                                    !
 !       D1        180.0      Frozen                                    !
 !       D2       -180.0      Frozen                                    !
 !       D13       180.0      Frozen                                    !
 !       D15       360.0      Frozen                                    !
 !       D12         0.0      Frozen                                    !
 ------------------------------------------------------------------------
 Trust Radius=3.00D-01 FncErr=1.00D-07 GrdErr=1.00D-06 EigMax=2.50D+02 EigMin=1.00D-04
 Number of steps in this run=     70 maximum allowed number of steps=    120.
 GradGradGradGradGradGradGradGradGradGradGradGradGradGradGradGradGradGrad

 ---------------------------------------------------------------------------------------------------
                            Z-MATRIX (ANGSTROMS AND DEGREES)
   CD    Cent   Atom    N1       Length/X        N2       Alpha/Y        N3        Beta/Z          J
 ---------------------------------------------------------------------------------------------------
      1      1  Ir
      2      2  N        1   2.104000(     1)
      3      3  P        1   2.264000(     2)      2   90.000(    22)
      4      4  C        1   1.868000(     3)      3   90.000(    23)      2  180.000(    42)      0
      5      5  P        1   2.270000(     4)      2   90.000(    24)      3 -180.000(    43)      0
      6      6  H        3   1.431000(     5)      1  120.705(    25)      2   60.700(    44)      0
      7      7  H        3   1.437000(     6)      1  118.798(    26)      2  180.000(    45)      0
      8      8  H        3   1.431000(     7)      1  120.720(    27)      2  299.200(    46)      0
      9      9  H        5   1.431000(     8)      1  120.114(    28)      2   60.000(    47)      0
     10     10  H        5   1.435000(     9)      1  120.136(    29)      2  179.900(    48)      0
     11     11  H        5   1.431000(    10)      1  120.119(    30)      2  299.900(    49)      0
     12     12  O        1   3.145000(    11)      3   90.000(    31)      8  119.200(    50)      0
     13     13  C        3   2.994000(    12)      1   69.400(    32)      2    0.000(    51)      0
     14     14  C       13   1.395000(    13)      2  119.984(    33)      1  180.000(    52)      0
     15     15  C       14   1.395000(    14)     13  120.000(    34)      2  359.000(    53)      0
     16     16  C       15   1.395000(    15)     14  120.000(    35)     13  360.000(    54)      0
     17     17  C        2   1.395000(    16)      1  119.990(    36)      3  179.500(    55)      0
     18     18  H       13   1.087000(    17)      2  120.009(    37)      1  359.100(    56)      0
     19     19  H       14   1.087000(    18)     13  120.000(    38)      2  179.000(    57)      0
     20     20  O       15   1.087000(    19)     14  120.000(    39)     13  180.000(    58)      0
     21     21  H       16   1.087000(    20)     15  120.000(    40)     14  180.000(    59)      0
     22     22  H       17   1.087000(    21)      2  119.984(    41)      1    0.900(    60)      0
 ---------------------------------------------------------------------------------------------------
                         Z-Matrix orientation:                         
 ---------------------------------------------------------------------
 Center     Atomic      Atomic             Coordinates (Angstroms)
 Number     Number       Type             X           Y           Z
 ---------------------------------------------------------------------
      1         77           0        0.000000    0.000000    0.000000
      2          7           0        0.000000    0.000000    2.104000
      3         15           0        2.264000    0.000000    0.000000
      4          6           0        0.000000    0.000000   -1.868000
      5         15           0       -2.270000    0.000000    0.000000
      6          1           0        2.994694   -1.072981    0.602129
      7          1           0        2.956236   -0.000000   -1.259277
      8          1           0        2.995016    1.073863    0.600162
      9          1           0       -2.987964    1.072015    0.618928
     10          1           0       -2.990448    0.002166   -1.241038
     11          1           0       -2.988072   -1.073039    0.617025
     12          8           0        0.000000   -0.000000   -3.145000
     13          6           0        1.210586    0.000000    2.802562
     14          6           0        1.210516    0.000000    4.197562
     15          6           0        0.002560    0.021084    4.895002
     16          6           0       -1.205327    0.042169    4.197441
     17          6           0       -1.208181    0.010544    2.801289
     18          1           0        2.151858   -0.014785    2.259095
     19          1           0        2.151715   -0.016429    4.741109
     20          8           0        0.002506    0.021084    5.982002
     21          1           0       -2.146580    0.058598    4.740894
     22          1           0       -2.149339    0.003968    2.257463
 ---------------------------------------------------------------------
                    Distance matrix (angstroms):
                    1          2          3          4          5
     1  Ir   0.000000
     2  N    2.104000   0.000000
     3  P    2.264000   3.090714   0.000000
     4  C    1.868000   3.972000   2.935152   0.000000
     5  P    2.270000   3.095112   4.534000   2.939783   0.000000
     6  H    3.237598   3.517826   1.431000   4.027532   5.406556
     7  H    3.213271   4.477830   1.437000   3.018257   5.375809
     8  H    3.237823   3.519209   1.431000   4.026801   5.406827
     9  H    3.234226   3.504652   5.395870   4.032612   1.431000
    10  H    3.237740   4.486877   5.399019   3.055465   1.435000
    11  H    3.234302   3.505864   5.395961   4.031791   1.431000
    12  O    3.145000   5.249000   3.875141   1.277000   3.878650
    13  C    3.052847   1.397679   2.994000   4.824901   4.468650
    14  C    4.368624   2.418337   4.327743   6.185175   5.452845
    15  C    4.895048   2.791083   5.392179   6.763035   5.396852
    16  C    4.367277   2.416006   5.445780   6.184187   4.330568
    17  C    3.050743   1.395000   4.461320   4.823077   2.995796
    18  H    3.119972   2.157491   2.261925   4.654420   4.965537
    19  H    5.206560   3.403600   4.742467   6.950574   6.483051
    20  O    5.982040   3.878060   6.395244   7.850031   6.399146
    21  H    5.204548   3.400654   6.475549   6.949009   4.742863
    22  H    3.117020   2.154814   4.957188   4.651786   2.260688
                    6          7          8          9         10
     6  H    0.000000
     7  H    2.148860   0.000000
     8  H    2.146845   2.147603   0.000000
     9  H    6.355588   6.325377   5.983010   0.000000
    10  H    6.354143   5.946712   6.353293   2.145707   0.000000
    11  H    5.982785   6.325087   6.356636   2.145055   2.146735
    12  O    4.915329   3.506463   4.914218   4.923850   3.545117
    13  C    3.029231   4.421067   3.031162   4.852350   5.830900
    14  C    4.154723   5.729278   4.156791   5.619882   6.872152
    15  C    5.345896   6.826404   5.339362   5.322828   6.827111
    16  C    5.640036   6.862664   5.625628   4.128455   5.724100
    17  C    4.865644   5.816415   4.862353   3.009493   4.417800
    18  H    2.139086   3.609180   2.155952   5.503550   6.220493
    19  H    4.354087   6.054103   4.364326   6.677829   7.888490
    20  O    6.252456   7.820555   6.247213   6.229761   7.818595
    21  H    6.696458   7.876815   6.679255   4.327303   6.041425
    22  H    5.510084   6.199546   5.509602   2.128101   3.598190
                   11         12         13         14         15
    11  H    0.000000
    12  O    4.922684   0.000000
    13  C    4.853527   6.069515   0.000000
    14  C    5.621371   7.441678   1.395000   0.000000
    15  C    5.333111   8.040030   2.416211   1.395000   0.000000
    16  C    4.152259   7.440836   2.790000   2.416211   1.395000
    17  C    3.018804   6.067798   2.418791   2.792810   2.418603
    18  H    5.498653   5.816782   1.087000   2.154994   3.401290
    19  H    6.673973   8.174403   2.154985   1.087000   2.154985
    20  O    6.238881   9.127027   3.401285   2.154985   1.087000
    21  H    4.358327   8.173039   3.877000   3.401285   2.154985
    22  H    2.134116   5.814317   3.403858   3.879772   3.404053
                   16         17         18         19         20
    16  C    0.000000
    17  C    1.396513   0.000000
    18  H    3.876999   3.403598   0.000000
    19  H    3.401285   3.879760   2.482015   0.000000
    20  O    2.154985   3.403352   4.298958   2.482000   0.000000
    21  H    1.087000   2.155219   4.963999   4.298950   2.482000
    22  H    2.157808   1.087000   4.301239   4.966688   4.301502
                   21         22
    21  H    0.000000
    22  H    2.484034   0.000000
 Stoichiometry    C6H10IrNO2P2
 Framework group  C1[X(C6H10IrNO2P2)]
 Deg. of freedom    60
 Full point group                 C1      NOp   1
 Largest Abelian subgroup         C1      NOp   1
 Largest concise Abelian subgroup C1      NOp   1
                         Standard orientation:                         
 ---------------------------------------------------------------------
 Center     Atomic      Atomic             Coordinates (Angstroms)
 Number     Number       Type             X           Y           Z
 ---------------------------------------------------------------------
      1         77           0       -0.872255   -0.000658    0.000920
      2          7           0        1.231734    0.000609    0.007538
      3         15           0       -0.870875   -2.264652   -0.004227
      4          6           0       -2.740245   -0.001783   -0.004955
      5         15           0       -0.873638    2.269336    0.006081
      6          1           0       -0.271678   -2.997423    1.068978
      7          1           0       -2.129724   -2.957644   -0.009762
      8          1           0       -0.266895   -2.992861   -1.077857
      9          1           0       -0.251780    2.990110   -1.062347
     10          1           0       -2.115102    2.989039    0.001650
     11          1           0       -0.260427    2.985336    1.082686
     12          8           0       -4.017239   -0.002552   -0.008972
     13          6           0        1.931031   -1.209553    0.006982
     14          6           0        3.326023   -1.208643    0.011370
     15          6           0        4.022790   -0.000222   -0.004774
     16          6           0        3.324563    1.207289   -0.025306
     17          6           0        1.928317    1.209231    0.001934
     18          1           0        1.388093   -2.151184    0.017918
     19          1           0        3.870090   -2.149550    0.027369
     20          8           0        5.109784    0.000487   -0.001355
     21          1           0        3.867491    2.148904   -0.037886
     22          1           0        1.383899    2.150044    0.008939
 ---------------------------------------------------------------------
 Rotational constants (GHZ):           1.0852601           0.3211421           0.2489488
 General basis read from cards:  (5D, 7F)
 ======================================================================================================
                                       Pseudopotential Parameters
 ======================================================================================================
  Center     Atomic      Valence      Angular      Power
  Number     Number     Electrons     Momentum     of R      Exponent        Coefficient   SO-Coeffient
 ======================================================================================================
    1         77           17
                                      H and up 
                                                     2        1.0000000        0.00000000    0.00000000
                                      S - H
                                                     2       13.6522030      732.26920000    0.00000000
                                                     2        6.8261010       26.48472100    0.00000000
                                      P - H
                                                     2       10.2798680      299.48947400    0.00000000
                                                     2        5.1399340       26.46623400    0.00000000
                                      D - H
                                                     2        7.3498590      124.45759500    0.00000000
                                                     2        3.6749290       14.03599500    0.00000000
                                      F - H
                                                     2        3.0340720       21.53103100    0.00000000
                                      G - H
                                                     2        4.8088570      -21.60759700    0.00000000
    2          7
                                   No pseudopotential on this center.
    3         15
                                   No pseudopotential on this center.
    4          6
                                   No pseudopotential on this center.
    5         15
                                   No pseudopotential on this center.
    6          1
                                   No pseudopotential on this center.
    7          1
                                   No pseudopotential on this center.
    8          1
                                   No pseudopotential on this center.
    9          1
                                   No pseudopotential on this center.
   10          1
                                   No pseudopotential on this center.
   11          1
                                   No pseudopotential on this center.
   12          8
                                   No pseudopotential on this center.
   13          6
                                   No pseudopotential on this center.
   14          6
                                   No pseudopotential on this center.
   15          6
                                   No pseudopotential on this center.
   16          6
                                   No pseudopotential on this center.
   17          6
                                   No pseudopotential on this center.
   18          1
                                   No pseudopotential on this center.
   19          1
                                   No pseudopotential on this center.
   20          8
                                   No pseudopotential on this center.
   21          1
                                   No pseudopotential on this center.
   22          1
                                   No pseudopotential on this center.
 ======================================================================================================
 There are   368 symmetry adapted cartesian basis functions of A   symmetry.
 There are   354 symmetry adapted basis functions of A   symmetry.
   354 basis functions,   569 primitive gaussians,   368 cartesian basis functions
    58 alpha electrons       58 beta electrons
       nuclear repulsion energy      1018.2099192077 Hartrees.
 NAtoms=   22 NActive=   22 NUniq=   22 SFac= 1.00D+00 NAtFMM=   60 NAOKFM=F Big=F
 Integral buffers will be    131072 words long.
 Raffenetti 2 integral format.
 Two-electron integral symmetry is turned on.
 One-electron integrals computed using PRISM.
   1 Symmetry operations used in ECPInt.
 ECPInt:  NShTT=    9045 NPrTT=   30634 LenC2=    8297 LenP2D=   20177.
 LDataN:  DoStor=T MaxTD1= 7 Len=  274
 NBasis=   354 RedAO= T EigKep=  3.81D-06  NBF=   354
 NBsUse=   354 1.00D-06 EigRej= -1.00D+00 NBFU=   354
 Defaulting to unpruned grid for atomic number  77.
 ExpMin= 1.50D-02 ExpMax= 7.75D+04 ExpMxC= 2.65D+03 IAcc=3 IRadAn=         5 AccDes= 0.00D+00
 Harris functional with IExCor= 1009 and IRadAn=       5 diagonalized for initial guess.
 HarFok:  IExCor= 1009 AccDes= 0.00D+00 IRadAn=         5 IDoV= 1 UseB2=F ITyADJ=14
 ICtDFT=  3500011 ScaDFX=  1.000000  1.000000  1.000000  1.000000
 Defaulting to unpruned grid for atomic number  77.
 FoFCou: FMM=F IPFlag=           0 FMFlag=      100000 FMFlg1=           0
         NFxFlg=           0 DoJE=T BraDBF=F KetDBF=T FulRan=T
         wScrn=  0.000000 ICntrl=       500 IOpCl=  0 I1Cent=   200000004 NGrid=           0
         NMat0=    1 NMatS0=      1 NMatT0=    0 NMatD0=    1 NMtDS0=    0 NMtDT0=    0
 Petite list used in FoFCou.
 Requested convergence on RMS density matrix=1.00D-08 within 128 cycles.
 Requested convergence on MAX density matrix=1.00D-06.
 Requested convergence on             energy=1.00D-06.
 No special actions if energy rises.
 Defaulting to unpruned grid for atomic number  77.
 Defaulting to unpruned grid for atomic number  77.
 Defaulting to unpruned grid for atomic number  77.
 Defaulting to unpruned grid for atomic number  77.
 Defaulting to unpruned grid for atomic number  77.
 Defaulting to unpruned grid for atomic number  77.
 Defaulting to unpruned grid for atomic number  77.
 Defaulting to unpruned grid for atomic number  77.
 Defaulting to unpruned grid for atomic number  77.
 Defaulting to unpruned grid for atomic number  77.
 Defaulting to unpruned grid for atomic number  77.
 Defaulting to unpruned grid for atomic number  77.
 Defaulting to unpruned grid for atomic number  77.
 Defaulting to unpruned grid for atomic number  77.
 Defaulting to unpruned grid for atomic number  77.
 Defaulting to unpruned grid for atomic number  77.
 Defaulting to unpruned grid for atomic number  77.
 Defaulting to unpruned grid for atomic number  77.
 Defaulting to unpruned grid for atomic number  77.
 Defaulting to unpruned grid for atomic number  77.
 Defaulting to unpruned grid for atomic number  77.
 Defaulting to unpruned grid for atomic number  77.
 Defaulting to unpruned grid for atomic number  77.
 Defaulting to unpruned grid for atomic number  77.
 Defaulting to unpruned grid for atomic number  77.
 Defaulting to unpruned grid for atomic number  77.
 Defaulting to unpruned grid for atomic number  77.
 Defaulting to unpruned grid for atomic number  77.
 Defaulting to unpruned grid for atomic number  77.
 Defaulting to unpruned grid for atomic number  77.
 Defaulting to unpruned grid for atomic number  77.
 Defaulting to unpruned grid for atomic number  77.
 Defaulting to unpruned grid for atomic number  77.
 Defaulting to unpruned grid for atomic number  77.
 Defaulting to unpruned grid for atomic number  77.
 Defaulting to unpruned grid for atomic number  77.
 Defaulting to unpruned grid for atomic number  77.
 Defaulting to unpruned grid for atomic number  77.
 Defaulting to unpruned grid for atomic number  77.
 Defaulting to unpruned grid for atomic number  77.
 Defaulting to unpruned grid for atomic number  77.
 Defaulting to unpruned grid for atomic number  77.
 Defaulting to unpruned grid for atomic number  77.
 Defaulting to unpruned grid for atomic number  77.
 Defaulting to unpruned grid for atomic number  77.
 Defaulting to unpruned grid for atomic number  77.
 Defaulting to unpruned grid for atomic number  77.
 Defaulting to unpruned grid for atomic number  77.
 EnCoef did   100 forward-backward iterations
 EnCoef did     8 forward-backward iterations
 EnCoef did     3 forward-backward iterations
 SCF Done:  E(RPBE-PBE) =  -1226.26031676     A.U. after   19 cycles
            NFock= 19  Conv=0.27D-08     -V/T= 2.0612

 **********************************************************************

            Population analysis using the SCF Density.

 **********************************************************************

 Orbital symmetries:
       Occupied  (A) (A) (A) (A) (A) (A) (A) (A) (A) (A) (A) (A)
                 (A) (A) (A) (A) (A) (A) (A) (A) (A) (A) (A) (A)
                 (A) (A) (A) (A) (A) (A) (A) (A) (A) (A) (A) (A)
                 (A) (A) (A) (A) (A) (A) (A) (A) (A) (A) (A) (A)
                 (A) (A) (A) (A) (A) (A) (A) (A) (A) (A)
       Virtual   (A) (A) (A) (A) (A) (A) (A) (A) (A) (A) (A) (A)
                 (A) (A) (A) (A) (A) (A) (A) (A) (A) (A) (A) (A)
                 (A) (A) (A) (A) (A) (A) (A) (A) (A) (A) (A) (A)
                 (A) (A) (A) (A) (A) (A) (A) (A) (A) (A) (A) (A)
                 (A) (A) (A) (A) (A) (A) (A) (A) (A) (A) (A) (A)
                 (A) (A) (A) (A) (A) (A) (A) (A) (A) (A) (A) (A)
                 (A) (A) (A) (A) (A) (A) (A) (A) (A) (A) (A) (A)
                 (A) (A) (A) (A) (A) (A) (A) (A) (A) (A) (A) (A)
                 (A) (A) (A) (A) (A) (A) (A) (A) (A) (A) (A) (A)
                 (A) (A) (A) (A) (A) (A) (A) (A) (A) (A) (A) (A)
                 (A) (A) (A) (A) (A) (A) (A) (A) (A) (A) (A) (A)
                 (A) (A) (A) (A) (A) (A) (A) (A) (A) (A) (A) (A)
                 (A) (A) (A) (A) (A) (A) (A) (A) (A) (A) (A) (A)
                 (A) (A) (A) (A) (A) (A) (A) (A) (A) (A) (A) (A)
                 (A) (A) (A) (A) (A) (A) (A) (A) (A) (A) (A) (A)
                 (A) (A) (A) (A) (A) (A) (A) (A) (A) (A) (A) (A)
                 (A) (A) (A) (A) (A) (A) (A) (A) (A) (A) (A) (A)
                 (A) (A) (A) (A) (A) (A) (A) (A) (A) (A) (A) (A)
                 (A) (A) (A) (A) (A) (A) (A) (A) (A) (A) (A) (A)
                 (A) (A) (A) (A) (A) (A) (A) (A) (A) (A) (A) (A)
                 (A) (A) (A) (A) (A) (A) (A) (A) (A) (A) (A) (A)
                 (A) (A) (A) (A) (A) (A) (A) (A) (A) (A) (A) (A)
                 (A) (A) (A) (A) (A) (A) (A) (A) (A) (A) (A) (A)
                 (A) (A) (A) (A) (A) (A) (A) (A) (A) (A) (A) (A)
                 (A) (A) (A) (A) (A) (A) (A) (A)
 The electronic state is 1-A.
 Alpha  occ. eigenvalues --  -76.36222 -76.36199 -18.81138 -18.66870 -14.02560
 Alpha  occ. eigenvalues --  -10.01319  -9.92979  -9.92960  -9.90030  -9.86679
 Alpha  occ. eigenvalues --   -9.86666  -6.37586  -6.37561  -4.59222  -4.59196
 Alpha  occ. eigenvalues --   -4.59165  -4.59139  -4.58906  -4.58882  -3.58208
 Alpha  occ. eigenvalues --   -1.97804  -1.97138  -1.92620  -0.98899  -0.97217
 Alpha  occ. eigenvalues --   -0.86267  -0.69871  -0.69180  -0.65991  -0.64716
 Alpha  occ. eigenvalues --   -0.58233  -0.54948  -0.53644  -0.46305  -0.45899
 Alpha  occ. eigenvalues --   -0.43326  -0.43206  -0.42610  -0.41344  -0.40723
 Alpha  occ. eigenvalues --   -0.40412  -0.38882  -0.38750  -0.38201  -0.36988
 Alpha  occ. eigenvalues --   -0.36320  -0.34813  -0.34230  -0.34052  -0.32096
 Alpha  occ. eigenvalues --   -0.29896  -0.28390  -0.25142  -0.25004  -0.23945
 Alpha  occ. eigenvalues --   -0.21194  -0.18208  -0.16896
 Alpha virt. eigenvalues --   -0.10176  -0.08347  -0.08088  -0.05185  -0.04573
 Alpha virt. eigenvalues --   -0.04130  -0.03664  -0.02963  -0.02352  -0.01812
 Alpha virt. eigenvalues --   -0.01502  -0.00223   0.00604   0.01196   0.01736
 Alpha virt. eigenvalues --    0.02107   0.02220   0.02932   0.03349   0.04365
 Alpha virt. eigenvalues --    0.05038   0.05632   0.06152   0.06736   0.07922
 Alpha virt. eigenvalues --    0.07955   0.08033   0.08332   0.08396   0.08556
 Alpha virt. eigenvalues --    0.09765   0.09836   0.10309   0.11440   0.12304
 Alpha virt. eigenvalues --    0.12531   0.12692   0.12940   0.13083   0.13291
 Alpha virt. eigenvalues --    0.13874   0.13989   0.14494   0.15935   0.17623
 Alpha virt. eigenvalues --    0.17710   0.17803   0.17921   0.17946   0.18383
 Alpha virt. eigenvalues --    0.20122   0.20232   0.21215   0.21322   0.21657
 Alpha virt. eigenvalues --    0.23348   0.23778   0.23785   0.23895   0.24418
 Alpha virt. eigenvalues --    0.24479   0.25421   0.25701   0.25942   0.26910
 Alpha virt. eigenvalues --    0.27127   0.27718   0.28268   0.29129   0.29278
 Alpha virt. eigenvalues --    0.29997   0.31284   0.31362   0.32219   0.33018
 Alpha virt. eigenvalues --    0.33171   0.34167   0.34577   0.35221   0.35552
 Alpha virt. eigenvalues --    0.35788   0.35986   0.37715   0.38071   0.39252
 Alpha virt. eigenvalues --    0.39418   0.40171   0.42154   0.43565   0.45337
 Alpha virt. eigenvalues --    0.48347   0.48694   0.49538   0.50058   0.50158
 Alpha virt. eigenvalues --    0.51669   0.53374   0.53819   0.54816   0.55042
 Alpha virt. eigenvalues --    0.55242   0.57868   0.58413   0.58779   0.60181
 Alpha virt. eigenvalues --    0.60878   0.61167   0.61567   0.62233   0.62656
 Alpha virt. eigenvalues --    0.64524   0.66160   0.67522   0.68516   0.68586
 Alpha virt. eigenvalues --    0.71098   0.72649   0.73424   0.75202   0.75862
 Alpha virt. eigenvalues --    0.76247   0.79998   0.80193   0.81098   0.81862
 Alpha virt. eigenvalues --    0.83179   0.83966   0.85470   0.85905   0.88404
 Alpha virt. eigenvalues --    0.88648   0.89782   0.92071   0.92147   0.93815
 Alpha virt. eigenvalues --    0.97102   0.98277   0.98510   1.01052   1.01402
 Alpha virt. eigenvalues --    1.01911   1.06513   1.08228   1.09634   1.10216
 Alpha virt. eigenvalues --    1.10487   1.11576   1.14688   1.14944   1.15006
 Alpha virt. eigenvalues --    1.16784   1.19040   1.19324   1.20355   1.21943
 Alpha virt. eigenvalues --    1.22490   1.23196   1.25935   1.26063   1.27225
 Alpha virt. eigenvalues --    1.29399   1.29843   1.31612   1.35080   1.39614
 Alpha virt. eigenvalues --    1.40432   1.41953   1.42745   1.42979   1.44724
 Alpha virt. eigenvalues --    1.44968   1.47203   1.47789   1.48413   1.52486
 Alpha virt. eigenvalues --    1.52808   1.53299   1.55513   1.55553   1.57348
 Alpha virt. eigenvalues --    1.58860   1.60744   1.61471   1.61732   1.63158
 Alpha virt. eigenvalues --    1.64692   1.66750   1.68768   1.71498   1.71978
 Alpha virt. eigenvalues --    1.76010   1.77673   1.80556   1.80591   1.81256
 Alpha virt. eigenvalues --    1.84476   1.87466   1.90274   1.91816   1.92876
 Alpha virt. eigenvalues --    1.96461   2.00009   2.00538   2.02198   2.04970
 Alpha virt. eigenvalues --    2.05461   2.05767   2.06644   2.11715   2.15905
 Alpha virt. eigenvalues --    2.17710   2.24266   2.25669   2.28354   2.33458
 Alpha virt. eigenvalues --    2.37189   2.38458   2.39221   2.47738   2.48613
 Alpha virt. eigenvalues --    2.48887   2.51448   2.56490   2.56825   2.57405
 Alpha virt. eigenvalues --    2.60157   2.64907   2.66326   2.66830   2.68711
 Alpha virt. eigenvalues --    2.68837   2.69717   2.70365   2.70900   2.71880
 Alpha virt. eigenvalues --    2.74268   2.79609   2.79810   2.80218   2.82880
 Alpha virt. eigenvalues --    2.84250   2.87896   2.93053   2.94465   2.95438
 Alpha virt. eigenvalues --    2.97149   3.06337   3.14559   3.14778   3.15958
 Alpha virt. eigenvalues --    3.26236   3.36415   3.44154   3.44642   3.47413
 Alpha virt. eigenvalues --    3.52376   3.70256   3.74305   3.76472   3.80755
 Alpha virt. eigenvalues --    3.87743   3.92372   3.98964   4.04906   4.32559
 Alpha virt. eigenvalues --    4.41166   4.87757   4.92104   5.01265   5.08407
 Alpha virt. eigenvalues --    5.23998   5.42873   5.80437   6.93762   6.96956
 Alpha virt. eigenvalues --   13.62244  13.65913  13.75192  13.75811  13.79473
 Alpha virt. eigenvalues --   13.84494  23.37925  23.50684  23.65254  23.83362
 Alpha virt. eigenvalues --   23.83811  24.02916  35.24219  47.15818  47.45062
 Alpha virt. eigenvalues --   47.72800  49.52154  49.85349 139.54290 162.51367
 Alpha virt. eigenvalues --  162.55457
          Condensed to atoms (all electrons):
               1          2          3          4          5          6
     1  Ir  17.044405  -0.393906   0.091909  -0.909072   0.096128  -0.031197
     2  N   -0.393906   7.717042  -0.065924   0.278970  -0.065992   0.009314
     3  P    0.091909  -0.065924  15.147081  -0.309441  -0.211400   0.325028
     4  C   -0.909072   0.278970  -0.309441   7.514061  -0.310804   0.002855
     5  P    0.096128  -0.065992  -0.211400  -0.310804  15.122126   0.003571
     6  H   -0.031197   0.009314   0.325028   0.002855   0.003571   0.666629
     7  H    0.006003  -0.004828   0.321549  -0.039960   0.006375  -0.015314
     8  H   -0.032640   0.008083   0.328110   0.002837   0.003056  -0.037743
     9  H   -0.032466   0.007888   0.003428   0.002441   0.327206  -0.000002
    10  H    0.007508  -0.004372   0.006338  -0.038683   0.318105  -0.000001
    11  H   -0.032853   0.009735   0.003319   0.003331   0.327904  -0.000021
    12  O   -0.083066  -0.006938  -0.003477   0.506237  -0.002956   0.000026
    13  C   -0.190568   0.069188   0.554396   0.044171  -0.266118  -0.064384
    14  C    0.329605  -0.275533  -0.857999  -0.104025   0.320954   0.044062
    15  C   -0.070944  -0.079501  -0.083824   0.011318  -0.085202   0.011440
    16  C    0.332510  -0.268618   0.315667  -0.103533  -0.820212  -0.007162
    17  C   -0.195361   0.059858  -0.266867   0.043507   0.532854   0.001466
    18  H   -0.000019  -0.159478  -0.009779  -0.008936   0.007818   0.001214
    19  H    0.002857   0.029838  -0.003459   0.000089  -0.000382   0.000024
    20  O   -0.004939  -0.028295   0.001572   0.000209   0.001596  -0.000000
    21  H    0.002921   0.030057  -0.000359   0.000091  -0.003713   0.000000
    22  H    0.001335  -0.162712   0.008240  -0.008964  -0.011473  -0.000001
               7          8          9         10         11         12
     1  Ir   0.006003  -0.032640  -0.032466   0.007508  -0.032853  -0.083066
     2  N   -0.004828   0.008083   0.007888  -0.004372   0.009735  -0.006938
     3  P    0.321549   0.328110   0.003428   0.006338   0.003319  -0.003477
     4  C   -0.039960   0.002837   0.002441  -0.038683   0.003331   0.506237
     5  P    0.006375   0.003056   0.327206   0.318105   0.327904  -0.002956
     6  H   -0.015314  -0.037743  -0.000002  -0.000001  -0.000021   0.000026
     7  H    0.610911  -0.015174  -0.000001  -0.000009  -0.000001   0.004329
     8  H   -0.015174   0.665398  -0.000022  -0.000001  -0.000002   0.000012
     9  H   -0.000001  -0.000022   0.666544  -0.015495  -0.037735   0.000019
    10  H   -0.000009  -0.000001  -0.015495   0.612491  -0.015609   0.004000
    11  H   -0.000001  -0.000002  -0.037735  -0.015609   0.665596   0.000011
    12  O    0.004329   0.000012   0.000019   0.004000   0.000011   7.801716
    13  C    0.014333  -0.062303   0.000611   0.000661   0.000918   0.001924
    14  C    0.010902   0.043913  -0.006210  -0.001088  -0.006743   0.000627
    15  C   -0.000244   0.009938   0.011414  -0.000188   0.010486  -0.000008
    16  C   -0.001007  -0.005250   0.047715   0.011040   0.040216   0.000586
    17  C    0.000908  -0.000192  -0.067448   0.013834  -0.060582   0.001849
    18  H    0.002768   0.000238  -0.000001  -0.000012  -0.000002   0.000058
    19  H   -0.000006   0.000029   0.000000   0.000000   0.000000   0.000000
    20  O   -0.000000  -0.000002  -0.000000  -0.000000  -0.000003  -0.000000
    21  H    0.000000   0.000000   0.000015  -0.000006   0.000037   0.000000
    22  H   -0.000012  -0.000002   0.001151   0.002654   0.001128   0.000055
              13         14         15         16         17         18
     1  Ir  -0.190568   0.329605  -0.070944   0.332510  -0.195361  -0.000019
     2  N    0.069188  -0.275533  -0.079501  -0.268618   0.059858  -0.159478
     3  P    0.554396  -0.857999  -0.083824   0.315667  -0.266867  -0.009779
     4  C    0.044171  -0.104025   0.011318  -0.103533   0.043507  -0.008936
     5  P   -0.266118   0.320954  -0.085202  -0.820212   0.532854   0.007818
     6  H   -0.064384   0.044062   0.011440  -0.007162   0.001466   0.001214
     7  H    0.014333   0.010902  -0.000244  -0.001007   0.000908   0.002768
     8  H   -0.062303   0.043913   0.009938  -0.005250  -0.000192   0.000238
     9  H    0.000611  -0.006210   0.011414   0.047715  -0.067448  -0.000001
    10  H    0.000661  -0.001088  -0.000188   0.011040   0.013834  -0.000012
    11  H    0.000918  -0.006743   0.010486   0.040216  -0.060582  -0.000002
    12  O    0.001924   0.000627  -0.000008   0.000586   0.001849   0.000058
    13  C   16.393215  -6.488952  -0.965126   0.497689  -3.401836   0.234492
    14  C   -6.488952  13.379729   0.463706  -2.031564   0.591309   0.184910
    15  C   -0.965126   0.463706   7.337278   0.441145  -0.983703   0.022463
    16  C    0.497689  -2.031564   0.441145  13.240341  -6.275846  -0.032987
    17  C   -3.401836   0.591309  -0.983703  -6.275846  16.146596   0.007367
    18  H    0.234492   0.184910   0.022463  -0.032987   0.007367   0.678416
    19  H   -0.008691   0.358941   0.013094  -0.010441  -0.010513  -0.008798
    20  O    0.159055  -0.385118   0.411616  -0.387104   0.158169  -0.002905
    21  H   -0.009022  -0.011582   0.013353   0.362048  -0.012346   0.000127
    22  H    0.007761  -0.033973   0.022872   0.194009   0.227085  -0.000131
              19         20         21         22
     1  Ir   0.002857  -0.004939   0.002921   0.001335
     2  N    0.029838  -0.028295   0.030057  -0.162712
     3  P   -0.003459   0.001572  -0.000359   0.008240
     4  C    0.000089   0.000209   0.000091  -0.008964
     5  P   -0.000382   0.001596  -0.003713  -0.011473
     6  H    0.000024  -0.000000   0.000000  -0.000001
     7  H   -0.000006  -0.000000   0.000000  -0.000012
     8  H    0.000029  -0.000002   0.000000  -0.000002
     9  H    0.000000  -0.000000   0.000015   0.001151
    10  H    0.000000  -0.000000  -0.000006   0.002654
    11  H    0.000000  -0.000003   0.000037   0.001128
    12  O    0.000000  -0.000000   0.000000   0.000055
    13  C   -0.008691   0.159055  -0.009022   0.007761
    14  C    0.358941  -0.385118  -0.011582  -0.033973
    15  C    0.013094   0.411616   0.013353   0.022872
    16  C   -0.010441  -0.387104   0.362048   0.194009
    17  C   -0.010513   0.158169  -0.012346   0.227085
    18  H   -0.008798  -0.002905   0.000127  -0.000131
    19  H    0.524816  -0.017686  -0.000202   0.000130
    20  O   -0.017686   8.463899  -0.017714  -0.002953
    21  H   -0.000202  -0.017714   0.524812  -0.008817
    22  H    0.000130  -0.002953  -0.008817   0.682803
 Mulliken charges:
               1
     1  Ir   1.061851
     2  N    0.296124
     3  P   -0.294108
     4  C   -0.576700
     5  P   -0.289439
     6  H    0.090196
     7  H    0.098478
     8  H    0.091717
     9  H    0.090950
    10  H    0.098834
    11  H    0.090871
    12  O   -0.225001
    13  C   -0.521415
    14  C    0.474128
    15  C   -0.511383
    16  C    0.460755
    17  C   -0.510109
    18  H    0.083177
    19  H    0.130358
    20  O   -0.349394
    21  H    0.130297
    22  H    0.079813
 Sum of Mulliken charges =  -0.00000
 Mulliken charges with hydrogens summed into heavy atoms:
               1
     1  Ir   1.061851
     2  N    0.296124
     3  P   -0.013717
     4  C   -0.576700
     5  P   -0.008785
    12  O   -0.225001
    13  C   -0.438238
    14  C    0.604486
    15  C   -0.511383
    16  C    0.591053
    17  C   -0.430296
    20  O   -0.349394
 Electronic spatial extent (au):  <R**2>=           3868.6969
 Charge=             -0.0000 electrons
 Dipole moment (field-independent basis, Debye):
    X=             -5.0851    Y=              0.0194    Z=              0.0193  Tot=              5.0852
 Quadrupole moment (field-independent basis, Debye-Ang):
   XX=           -152.7700   YY=            -78.9011   ZZ=           -107.3060
   XY=             -0.1178   XZ=             -0.0051   YZ=             -0.0004
 Traceless Quadrupole moment (field-independent basis, Debye-Ang):
   XX=            -39.7777   YY=             34.0913   ZZ=              5.6864
   XY=             -0.1178   XZ=             -0.0051   YZ=             -0.0004
 Octapole moment (field-independent basis, Debye-Ang**2):
  XXX=           -267.3130  YYY=              0.2181  ZZZ=              0.1290  XYY=            -44.1397
  XXY=             -0.0339  XXZ=              0.1285  XZZ=            -39.1236  YZZ=             -0.0273
  YYZ=              0.1398  XYZ=             -0.2737
 Hexadecapole moment (field-independent basis, Debye-Ang**3):
 XXXX=          -5202.7231 YYYY=          -1231.0665 ZZZZ=           -159.4376 XXXY=             -1.1222
 XXXZ=             -0.8575 YYYX=             -1.2003 YYYZ=             -0.2204 ZZZX=              0.1082
 ZZZY=              0.3253 XXYY=           -776.6559 XXZZ=           -655.4787 YYZZ=           -250.2056
 XXYZ=             -0.7783 YYXZ=              0.1371 ZZXY=              0.0013
 N-N= 1.018209919208D+03 E-N=-4.903082071750D+03  KE= 1.155563021195D+03
 Running external command "gaunbo7 R"
         input file       "/local/mvanvleet/pbs.15360.josephine/Gau-120571.EIn"
         output file      "/local/mvanvleet/pbs.15360.josephine/Gau-120571.EOu"
         message file     "/local/mvanvleet/pbs.15360.josephine/Gau-120571.EMs"
         fchk file        "/local/mvanvleet/pbs.15360.josephine/Gau-120571.EFC"
         mat. el file     "/local/mvanvleet/pbs.15360.josephine/Gau-120571.EUF"

 Writing WrtUnf unformatted file "/local/mvanvleet/pbs.15360.josephine/Gau-120571.EUF"
 Gaussian matrix elements                                         Version   2 NLab=11 Len12L=8 Len4L=8
 Write SHELL TO ATOM MAP                   from file      0 offset           0 length                 134 to matrix element file.
 Write SHELL TYPES                         from file      0 offset           0 length                 134 to matrix element file.
 Write NUMBER OF PRIMITIVES PER SHELL      from file      0 offset           0 length                 134 to matrix element file.
 Write PRIMITIVE EXPONENTS                 from file      0 offset           0 length                 246 to matrix element file.
 Write CONTRACTION COEFFICIENTS            from file      0 offset           0 length                 246 to matrix element file.
 Write P(S=P) CONTRACTION COEFFICIENTS     from file      0 offset           0 length                 246 to matrix element file.
 Write COORDINATES OF EACH SHELL           from file      0 offset           0 length                 402 to matrix element file.
 Write BONDS PER ATOM                      from file      0 offset           0 length                  22 to matrix element file.
 Write BONDED ATOMS                        from file      0 offset           0 length                  44 to matrix element file.
 Write BOND TYPES                          from file      0 offset           0 length                  44 to matrix element file.
 Write ONIOM CHARGE/MULT                   from file      0 offset           0 length                  32 to matrix element file.
 Write ONIOM ATOM LAYERS                   from file      0 offset           0 length                  22 to matrix element file.
 Write ONIOM ATOM MODIFIERS                from file      0 offset           0 length                  22 to matrix element file.
 Write ONIOM ATOM TYPES                    from file      0 offset           0 length                  22 to matrix element file.
 Write ONIOM LINK ATOMS                    from file      0 offset           0 length                  22 to matrix element file.
 Write ONIOM LINK CHARGES                  from file      0 offset           0 length                  22 to matrix element file.
 Write ONIOM LINK DISTANCES                from file      0 offset           0 length                  88 to matrix element file.
 Write SYMINF INTS                         from file      0 offset           0 length                  26 to matrix element file.
 Write ROTTR TO SO                         from file      0 offset           0 length                  12 to matrix element file.
 Write GAUSSIAN SCALARS                    from file    501 offset           0 to matrix element file.
 Write OPTIMIZATION FLAGS                  from file      0 offset           0 length                  22 to matrix element file.
 Write INTEGER ISO                         from file      0 offset           0 length                  22 to matrix element file.
 Write INTEGER SPIN                        from file      0 offset           0 length                  22 to matrix element file.
 Write REAL ZEFFECTIVE                     from file      0 offset           0 length                  22 to matrix element file.
 Write REAL QUADRUPOLEMOMENT               from file      0 offset           0 length                  22 to matrix element file.
 Write REAL GFACTOR                        from file      0 offset           0 length                  22 to matrix element file.
 Write REAL ZNUCLEAR                       from file      0 offset           0 length                  22 to matrix element file.
 Write MULLIKEN CHARGES                    from file      0 offset           0 length                  22 to matrix element file.
 Write NUCLEAR GRADIENT                    from file  10584 offset           0 length                  66 to matrix element file.
 Array NUCLEAR FORCE CONSTANTS              on  file  10585 does not exist.
 Write ELECTRIC DIPOLE MOMENT              from file      0 offset           0 length                   3 to matrix element file.
 Write NON-ADIABATIC COUPLING              from file  10810 offset           0 length                  66 to matrix element file.
 Write FINITE EM FIELD                     from file  10521 offset           0 length                  35 to matrix element file.
 Write OVERLAP                             from file  10514 offset           0 length               62835 to matrix element file.
 Write CORE HAMILTONIAN ALPHA              from file  10515 offset           0 length               62835 to matrix element file.
 Write CORE HAMILTONIAN BETA               from file  10515 offset       62835 length               62835 to matrix element file.
 Write KINETIC ENERGY                      from file  10516 offset           0 length               62835 to matrix element file.
 Write ORTHOGONAL BASIS                    from file  10685 offset           0 length              125316 to matrix element file.
 Write DIPOLE INTEGRALS                    from file  10518 offset           0 length              188505 to matrix element file.
 Array DIP VEL INTEGRALS                    on  file  10572 does not exist.
 Array R X DEL INTEGRALS                    on  file  10572 does not exist.
 Write ALPHA ORBITAL ENERGIES              from file      0 offset           0 length                 354 to matrix element file.
 Write ALPHA MO COEFFICIENTS               from file  10524 offset           0 length              125316 to matrix element file.
 Write ALPHA DENSITY MATRIX                from file      0 offset           0 length               62835 to matrix element file.
 Write ALPHA FOCK MATRIX                   from file  10536 offset           0 length               62835 to matrix element file.
 Write ENERGY-WEIGHTED DENSITY             from file  10571 offset           0 length               62835 to matrix element file.
 Write ALPHA SCF DENSITY MATRIX            from file      0 offset           0 length               62835 to matrix element file.
 No 2e integrals to process.
 Perform NBO analysis...executing G16NBO...

 *********************************** NBO 7.0 ***********************************
             N A T U R A L   A T O M I C   O R B I T A L   A N D
          N A T U R A L   B O N D   O R B I T A L   A N A L Y S I S
 *************************** Mary Van Vleet (I102706) **************************
  (c) Copyright 1996-2021 Board of Regents of the University of Wisconsin System
      on behalf of the Theoretical Chemistry Institute.  All rights reserved.

          Cite this program [NBO 7.0.10 (8-Feb-2021)] as:

          NBO 7.0.  E. D. Glendening, J. K. Badenhoop, A. E. Reed,
          J. E. Carpenter, J. A. Bohmann, C. M. Morales, P. Karafiloglou,
          C. R. Landis, and F. Weinhold, Theoretical Chemistry Institute,
          University of Wisconsin, Madison, WI (2018)

 Filename set to /local/mvanvleet/pbs.15360.josephine/Gau-120571

 Job title: trans-(H)Ir(PH3)2(CO)


 NATURAL POPULATIONS:  Natural atomic orbital occupancies

  NAO Atom No lang   Type(AO)    Occupancy      Energy
 -------------------------------------------------------
   1   Ir  1  s      Cor( 5s)     1.99998      -3.58167
   2   Ir  1  s      Val( 6s)     0.66697       1.36313
   3   Ir  1  s      Ryd( 9s)     0.00297      21.00901
   4   Ir  1  s      Ryd( 7s)     0.00044       2.16630
   5   Ir  1  s      Ryd(10s)     0.00009      37.72865
   6   Ir  1  s      Ryd( 8s)     0.00004       2.92840
   7   Ir  1  px     Cor( 5p)     1.99985      -1.97700
   8   Ir  1  px     Ryd( 6p)     0.00092       3.90420
   9   Ir  1  px     Ryd( 7p)     0.00110       4.66848
  10   Ir  1  px     Ryd( 8p)     0.00039       6.55254
  11   Ir  1  px     Ryd( 9p)     0.00004      34.08293
  12   Ir  1  py     Cor( 5p)     1.99991      -1.97079
  13   Ir  1  py     Ryd( 6p)     0.00056       2.08328
  14   Ir  1  py     Ryd( 7p)     0.00396       3.09321
  15   Ir  1  py     Ryd( 8p)     0.00051       8.93682
  16   Ir  1  py     Ryd( 9p)     0.00001      26.66607
  17   Ir  1  pz     Cor( 5p)     1.99995      -1.92610
  18   Ir  1  pz     Ryd( 6p)     0.01081       0.27610
  19   Ir  1  pz     Ryd( 7p)     0.00038       1.95107
  20   Ir  1  pz     Ryd( 8p)     0.00005       1.38611
  21   Ir  1  pz     Ryd( 9p)     0.00001      44.15497
  22   Ir  1  dxy    Val( 5d)     1.75445      -0.27354
  23   Ir  1  dxy    Ryd( 7d)     0.00455       0.74450
  24   Ir  1  dxy    Ryd( 6d)     0.00062       0.45296
  25   Ir  1  dxz    Val( 5d)     1.64684      -0.22806
  26   Ir  1  dxz    Ryd( 7d)     0.00404       0.54200
  27   Ir  1  dxz    Ryd( 6d)     0.00016       0.32391
  28   Ir  1  dyz    Val( 5d)     1.88630      -0.24107
  29   Ir  1  dyz    Ryd( 7d)     0.00253       0.52386
  30   Ir  1  dyz    Ryd( 6d)     0.00033       0.31902
  31   Ir  1  dx2y2  Val( 5d)     1.26887      -0.24276
  32   Ir  1  dx2y2  Ryd( 7d)     0.00335       3.94343
  33   Ir  1  dx2y2  Ryd( 6d)     0.00079       1.63351
  34   Ir  1  dz2    Val( 5d)     1.89807      -0.22818
  35   Ir  1  dz2    Ryd( 7d)     0.00103       4.36615
  36   Ir  1  dz2    Ryd( 6d)     0.00209       0.63975

  37    N  2  s      Cor( 1s)     1.99999     -14.02551
  38    N  2  s      Val( 2s)     1.31613      -0.41934
  39    N  2  s      Ryd( 4s)     0.00411       4.89219
  40    N  2  s      Ryd( 3s)     0.00023       4.38459
  41    N  2  s      Ryd( 5s)     0.00000      33.68226
  42    N  2  px     Val( 2p)     1.50812      -0.21523
  43    N  2  px     Ryd( 5p)     0.01035      13.73181
  44    N  2  px     Ryd( 3p)     0.00076       8.73703
  45    N  2  px     Ryd( 4p)     0.00001       4.11134
  46    N  2  py     Val( 2p)     1.26407      -0.18816
  47    N  2  py     Ryd( 5p)     0.00368       1.11782
  48    N  2  py     Ryd( 3p)     0.00060       0.60762
  49    N  2  py     Ryd( 4p)     0.00004       4.43176
  50    N  2  pz     Val( 2p)     1.49220      -0.21785
  51    N  2  pz     Ryd( 5p)     0.00802       0.58096
  52    N  2  pz     Ryd( 3p)     0.00033       0.54974
  53    N  2  pz     Ryd( 4p)     0.00002       3.77032
  54    N  2  dxy    Ryd( 3d)     0.00134       2.68125
  55    N  2  dxz    Ryd( 3d)     0.00053       2.01558
  56    N  2  dyz    Ryd( 3d)     0.00044       2.13469
  57    N  2  dx2y2  Ryd( 3d)     0.00040       2.62324
  58    N  2  dz2    Ryd( 3d)     0.00064       2.46764

  59    P  3  s      Cor( 1s)     2.00000     -76.01413
  60    P  3  s      Cor( 2s)     1.99997      -6.72320
  61    P  3  s      Val( 3s)     1.44633      -0.41152
  62    P  3  s      Ryd( 4s)     0.00436       2.06529
  63    P  3  s      Ryd( 5s)     0.00060       5.78917
  64    P  3  s      Ryd( 6s)     0.00000      13.12452
  65    P  3  s      Ryd( 7s)     0.00000     155.67439
  66    P  3  px     Cor( 2p)     2.00000      -4.59194
  67    P  3  px     Val( 3p)     1.02546      -0.18388
  68    P  3  px     Ryd( 4p)     0.00186       0.78716
  69    P  3  px     Ryd( 6p)     0.00020       0.94187
  70    P  3  px     Ryd( 5p)     0.00012       1.26887
  71    P  3  px     Ryd( 7p)     0.00000      13.48059
  72    P  3  py     Cor( 2p)     2.00000      -4.58884
  73    P  3  py     Val( 3p)     1.26952      -0.10566
  74    P  3  py     Ryd( 4p)     0.00504       1.76653
  75    P  3  py     Ryd( 6p)     0.00045       2.31330
  76    P  3  py     Ryd( 5p)     0.00009       1.09006
  77    P  3  py     Ryd( 7p)     0.00000      13.43303
  78    P  3  pz     Cor( 2p)     2.00000      -4.59138
  79    P  3  pz     Val( 3p)     1.01965      -0.19064
  80    P  3  pz     Ryd( 4p)     0.00378       0.44777
  81    P  3  pz     Ryd( 6p)     0.00024       0.57886
  82    P  3  pz     Ryd( 5p)     0.00004       1.00402
  83    P  3  pz     Ryd( 7p)     0.00000      13.56123
  84    P  3  dxy    Ryd( 3d)     0.00830       0.94407
  85    P  3  dxz    Ryd( 3d)     0.00290       0.78475
  86    P  3  dyz    Ryd( 3d)     0.00976       0.86417
  87    P  3  dx2y2  Ryd( 3d)     0.00346       0.92494
  88    P  3  dz2    Ryd( 3d)     0.00357       0.87440

  89    C  4  s      Cor( 1s)     1.99999     -10.01304
  90    C  4  s      Val( 2s)     1.22840      -0.29529
  91    C  4  s      Ryd( 3s)     0.02278       7.24357
  92    C  4  s      Ryd( 4s)     0.00033       8.16223
  93    C  4  s      Ryd( 5s)     0.00006       9.45437
  94    C  4  px     Val( 2p)     0.82433      -0.02145
  95    C  4  px     Ryd( 4p)     0.01779       7.41291
  96    C  4  px     Ryd( 3p)     0.00050       5.22324
  97    C  4  px     Ryd( 5p)     0.00003       3.80848
  98    C  4  py     Val( 2p)     0.66231      -0.16442
  99    C  4  py     Ryd( 4p)     0.00112       0.61830
 100    C  4  py     Ryd( 3p)     0.00026       0.92668
 101    C  4  py     Ryd( 5p)     0.00005       2.45766
 102    C  4  pz     Val( 2p)     0.77029      -0.16164
 103    C  4  pz     Ryd( 4p)     0.00289       0.56213
 104    C  4  pz     Ryd( 3p)     0.00014       0.73712
 105    C  4  pz     Ryd( 5p)     0.00003       2.50911
 106    C  4  dxy    Ryd( 3d)     0.00328       1.62640
 107    C  4  dxz    Ryd( 3d)     0.00413       1.54416
 108    C  4  dyz    Ryd( 3d)     0.00010       1.23856
 109    C  4  dx2y2  Ryd( 3d)     0.00101       2.19687
 110    C  4  dz2    Ryd( 3d)     0.00061       1.55396

 111    P  5  s      Cor( 1s)     2.00000     -76.01408
 112    P  5  s      Cor( 2s)     1.99997      -6.72374
 113    P  5  s      Val( 3s)     1.44782      -0.41229
 114    P  5  s      Ryd( 4s)     0.00437       2.05290
 115    P  5  s      Ryd( 5s)     0.00060       5.78644
 116    P  5  s      Ryd( 6s)     0.00000      13.16609
 117    P  5  s      Ryd( 7s)     0.00000     155.62726
 118    P  5  px     Cor( 2p)     2.00000      -4.59220
 119    P  5  px     Val( 3p)     1.02433      -0.18430
 120    P  5  px     Ryd( 4p)     0.00187       0.78945
 121    P  5  px     Ryd( 6p)     0.00020       0.93543
 122    P  5  px     Ryd( 5p)     0.00013       1.27188
 123    P  5  px     Ryd( 7p)     0.00000      13.48463
 124    P  5  py     Cor( 2p)     2.00000      -4.58908
 125    P  5  py     Val( 3p)     1.27151      -0.10748
 126    P  5  py     Ryd( 4p)     0.00505       1.77041
 127    P  5  py     Ryd( 6p)     0.00045       2.31954
 128    P  5  py     Ryd( 5p)     0.00009       1.09677
 129    P  5  py     Ryd( 7p)     0.00000      13.43782
 130    P  5  pz     Cor( 2p)     2.00000      -4.59165
 131    P  5  pz     Val( 3p)     1.01959      -0.19117
 132    P  5  pz     Ryd( 4p)     0.00376       0.44519
 133    P  5  pz     Ryd( 6p)     0.00024       0.57160
 134    P  5  pz     Ryd( 5p)     0.00004       1.00916
 135    P  5  pz     Ryd( 7p)     0.00000      13.56122
 136    P  5  dxy    Ryd( 3d)     0.00838       0.94782
 137    P  5  dxz    Ryd( 3d)     0.00303       0.79222
 138    P  5  dyz    Ryd( 3d)     0.00952       0.85839
 139    P  5  dx2y2  Ryd( 3d)     0.00324       0.91860
 140    P  5  dz2    Ryd( 3d)     0.00353       0.86753

 141    H  6  s      Val( 1s)     0.93817      -0.15261
 142    H  6  s      Ryd( 2s)     0.00177       0.52011
 143    H  6  s      Ryd( 3s)     0.00007       2.22740
 144    H  6  px     Ryd( 2p)     0.00062       1.48563
 145    H  6  py     Ryd( 2p)     0.00067       1.52442
 146    H  6  pz     Ryd( 2p)     0.00144       1.71034

 147    H  7  s      Val( 1s)     0.93683      -0.14486
 148    H  7  s      Ryd( 2s)     0.00108       0.55965
 149    H  7  s      Ryd( 3s)     0.00008       2.16942
 150    H  7  px     Ryd( 2p)     0.00163       1.85594
 151    H  7  py     Ryd( 2p)     0.00057       1.51066
 152    H  7  pz     Ryd( 2p)     0.00014       1.34745

 153    H  8  s      Val( 1s)     0.93782      -0.15231
 154    H  8  s      Ryd( 2s)     0.00179       0.52390
 155    H  8  s      Ryd( 3s)     0.00007       2.22697
 156    H  8  px     Ryd( 2p)     0.00063       1.48637
 157    H  8  py     Ryd( 2p)     0.00066       1.52252
 158    H  8  pz     Ryd( 2p)     0.00144       1.71171

 159    H  9  s      Val( 1s)     0.93805      -0.15291
 160    H  9  s      Ryd( 2s)     0.00178       0.52231
 161    H  9  s      Ryd( 3s)     0.00007       2.23015
 162    H  9  px     Ryd( 2p)     0.00066       1.49066
 163    H  9  py     Ryd( 2p)     0.00065       1.52008
 164    H  9  pz     Ryd( 2p)     0.00142       1.70732

 165    H 10  s      Val( 1s)     0.93622      -0.14528
 166    H 10  s      Ryd( 2s)     0.00107       0.55966
 167    H 10  s      Ryd( 3s)     0.00008       2.16855
 168    H 10  px     Ryd( 2p)     0.00160       1.84556
 169    H 10  py     Ryd( 2p)     0.00063       1.51946
 170    H 10  pz     Ryd( 2p)     0.00015       1.34579

 171    H 11  s      Val( 1s)     0.93796      -0.15297
 172    H 11  s      Ryd( 2s)     0.00176       0.51959
 173    H 11  s      Ryd( 3s)     0.00007       2.22958
 174    H 11  px     Ryd( 2p)     0.00065       1.48880
 175    H 11  py     Ryd( 2p)     0.00064       1.51885
 176    H 11  pz     Ryd( 2p)     0.00144       1.71205

 177    O 12  s      Cor( 1s)     1.99999     -18.81069
 178    O 12  s      Val( 2s)     1.76038      -0.69396
 179    O 12  s      Ryd( 4s)     0.00537       7.80976
 180    O 12  s      Ryd( 3s)     0.00004       2.15962
 181    O 12  s      Ryd( 5s)     0.00000      48.78761
 182    O 12  px     Val( 2p)     1.55519      -0.30032
 183    O 12  px     Ryd( 3p)     0.00044       1.38516
 184    O 12  px     Ryd( 4p)     0.00021       1.50576
 185    O 12  px     Ryd( 5p)     0.00005       4.93204
 186    O 12  py     Val( 2p)     1.54660      -0.28087
 187    O 12  py     Ryd( 3p)     0.00072       0.43671
 188    O 12  py     Ryd( 4p)     0.00003       1.25388
 189    O 12  py     Ryd( 5p)     0.00001       4.53529
 190    O 12  pz     Val( 2p)     1.61290      -0.27762
 191    O 12  pz     Ryd( 3p)     0.00201       0.43019
 192    O 12  pz     Ryd( 4p)     0.00002       1.26271
 193    O 12  pz     Ryd( 5p)     0.00001       4.50095
 194    O 12  dxy    Ryd( 3d)     0.00165       2.82830
 195    O 12  dxz    Ryd( 3d)     0.00166       2.82652
 196    O 12  dyz    Ryd( 3d)     0.00000       2.68290
 197    O 12  dx2y2  Ryd( 3d)     0.00198       3.11682
 198    O 12  dz2    Ryd( 3d)     0.00068       2.82995

 199    C 13  s      Cor( 1s)     1.99998      -9.92964
 200    C 13  s      Val( 2s)     0.93316      -0.11743
 201    C 13  s      Ryd( 3s)     0.00261       1.13888
 202    C 13  s      Ryd( 4s)     0.00027       4.22235
 203    C 13  s      Ryd( 5s)     0.00001      22.85904
 204    C 13  px     Val( 2p)     1.05027      -0.01684
 205    C 13  px     Ryd( 3p)     0.00610       1.33031
 206    C 13  px     Ryd( 4p)     0.00040       1.79079
 207    C 13  px     Ryd( 5p)     0.00030       3.43967
 208    C 13  py     Val( 2p)     0.97619      -0.03106
 209    C 13  py     Ryd( 3p)     0.00596       1.38776
 210    C 13  py     Ryd( 4p)     0.00028       1.14664
 211    C 13  py     Ryd( 5p)     0.00010       3.18905
 212    C 13  pz     Val( 2p)     1.00747      -0.13554
 213    C 13  pz     Ryd( 3p)     0.00265       0.49058
 214    C 13  pz     Ryd( 4p)     0.00053       0.32955
 215    C 13  pz     Ryd( 5p)     0.00002       2.66510
 216    C 13  dxy    Ryd( 3d)     0.00137       2.22607
 217    C 13  dxz    Ryd( 3d)     0.00079       1.52693
 218    C 13  dyz    Ryd( 3d)     0.00060       1.47176
 219    C 13  dx2y2  Ryd( 3d)     0.00096       2.26383
 220    C 13  dz2    Ryd( 3d)     0.00074       1.88594

 221    C 14  s      Cor( 1s)     1.99998      -9.86662
 222    C 14  s      Val( 2s)     0.99932      -0.08224
 223    C 14  s      Ryd( 3s)     0.00271       1.00072
 224    C 14  s      Ryd( 4s)     0.00017       8.99256
 225    C 14  s      Ryd( 5s)     0.00003      11.92147
 226    C 14  px     Val( 2p)     1.07486      -0.00681
 227    C 14  px     Ryd( 3p)     0.00672       0.85023
 228    C 14  px     Ryd( 4p)     0.00028       1.94347
 229    C 14  px     Ryd( 5p)     0.00007       3.05468
 230    C 14  py     Val( 2p)     1.14915      -0.01474
 231    C 14  py     Ryd( 3p)     0.00386       0.97275
 232    C 14  py     Ryd( 4p)     0.00029       1.70615
 233    C 14  py     Ryd( 5p)     0.00004       3.04739
 234    C 14  pz     Val( 2p)     1.04414      -0.10709
 235    C 14  pz     Ryd( 3p)     0.00200       0.45418
 236    C 14  pz     Ryd( 4p)     0.00017       0.65740
 237    C 14  pz     Ryd( 5p)     0.00001       2.35538
 238    C 14  dxy    Ryd( 3d)     0.00090       2.33398
 239    C 14  dxz    Ryd( 3d)     0.00045       1.58180
 240    C 14  dyz    Ryd( 3d)     0.00027       1.56409
 241    C 14  dx2y2  Ryd( 3d)     0.00103       2.30640
 242    C 14  dz2    Ryd( 3d)     0.00068       1.99307

 243    C 15  s      Cor( 1s)     1.99998      -9.90010
 244    C 15  s      Val( 2s)     0.76096       0.11130
 245    C 15  s      Ryd( 3s)     0.00539       0.92217
 246    C 15  s      Ryd( 5s)     0.00008      13.80562
 247    C 15  s      Ryd( 4s)     0.00003       3.36616
 248    C 15  px     Val( 2p)     0.88535       0.10190
 249    C 15  px     Ryd( 3p)     0.01957       1.40054
 250    C 15  px     Ryd( 4p)     0.00007       1.78269
 251    C 15  px     Ryd( 5p)     0.00020       2.98637
 252    C 15  py     Val( 2p)     1.09225      -0.00052
 253    C 15  py     Ryd( 3p)     0.00328       1.64951
 254    C 15  py     Ryd( 4p)     0.00039       1.37320
 255    C 15  py     Ryd( 5p)     0.00020       2.33738
 256    C 15  pz     Val( 2p)     0.86661      -0.08220
 257    C 15  pz     Ryd( 3p)     0.00021       0.81158
 258    C 15  pz     Ryd( 4p)     0.00021       0.73289
 259    C 15  pz     Ryd( 5p)     0.00003       1.95841
 260    C 15  dxy    Ryd( 3d)     0.00421       2.57306
 261    C 15  dxz    Ryd( 3d)     0.00395       1.72165
 262    C 15  dyz    Ryd( 3d)     0.00041       1.58807
 263    C 15  dx2y2  Ryd( 3d)     0.00092       2.66885
 264    C 15  dz2    Ryd( 3d)     0.00045       2.14429

 265    C 16  s      Cor( 1s)     1.99998      -9.86648
 266    C 16  s      Val( 2s)     0.99967      -0.08262
 267    C 16  s      Ryd( 3s)     0.00269       1.00039
 268    C 16  s      Ryd( 4s)     0.00017       9.20535
 269    C 16  s      Ryd( 5s)     0.00003      11.66412
 270    C 16  px     Val( 2p)     1.07382      -0.00656
 271    C 16  px     Ryd( 3p)     0.00672       0.84965
 272    C 16  px     Ryd( 4p)     0.00028       1.94439
 273    C 16  px     Ryd( 5p)     0.00007       3.05499
 274    C 16  py     Val( 2p)     1.14909      -0.01453
 275    C 16  py     Ryd( 3p)     0.00386       0.97201
 276    C 16  py     Ryd( 4p)     0.00029       1.70169
 277    C 16  py     Ryd( 5p)     0.00004       3.05025
 278    C 16  pz     Val( 2p)     1.04535      -0.10695
 279    C 16  pz     Ryd( 3p)     0.00202       0.45391
 280    C 16  pz     Ryd( 4p)     0.00017       0.65650
 281    C 16  pz     Ryd( 5p)     0.00001       2.35782
 282    C 16  dxy    Ryd( 3d)     0.00090       2.33461
 283    C 16  dxz    Ryd( 3d)     0.00045       1.58311
 284    C 16  dyz    Ryd( 3d)     0.00027       1.56546
 285    C 16  dx2y2  Ryd( 3d)     0.00103       2.30684
 286    C 16  dz2    Ryd( 3d)     0.00068       1.99170

 287    C 17  s      Cor( 1s)     1.99998      -9.92945
 288    C 17  s      Val( 2s)     0.93296      -0.11699
 289    C 17  s      Ryd( 3s)     0.00262       1.13425
 290    C 17  s      Ryd( 4s)     0.00027       4.25119
 291    C 17  s      Ryd( 5s)     0.00001      22.84936
 292    C 17  px     Val( 2p)     1.05061      -0.01674
 293    C 17  px     Ryd( 3p)     0.00611       1.33396
 294    C 17  px     Ryd( 4p)     0.00040       1.79997
 295    C 17  px     Ryd( 5p)     0.00030       3.43706
 296    C 17  py     Val( 2p)     0.97698      -0.03080
 297    C 17  py     Ryd( 3p)     0.00597       1.38835
 298    C 17  py     Ryd( 4p)     0.00028       1.14645
 299    C 17  py     Ryd( 5p)     0.00010       3.18548
 300    C 17  pz     Val( 2p)     1.00652      -0.13536
 301    C 17  pz     Ryd( 3p)     0.00268       0.49149
 302    C 17  pz     Ryd( 4p)     0.00053       0.33100
 303    C 17  pz     Ryd( 5p)     0.00002       2.66432
 304    C 17  dxy    Ryd( 3d)     0.00137       2.22801
 305    C 17  dxz    Ryd( 3d)     0.00079       1.52690
 306    C 17  dyz    Ryd( 3d)     0.00061       1.47252
 307    C 17  dx2y2  Ryd( 3d)     0.00096       2.26226
 308    C 17  dz2    Ryd( 3d)     0.00074       1.88429

 309    H 18  s      Val( 1s)     0.81698       0.01593
 310    H 18  s      Ryd( 2s)     0.00194       0.75573
 311    H 18  s      Ryd( 3s)     0.00020       2.31662
 312    H 18  px     Ryd( 2p)     0.00020       2.06646
 313    H 18  py     Ryd( 2p)     0.00045       2.51063
 314    H 18  pz     Ryd( 2p)     0.00039       1.53980

 315    H 19  s      Val( 1s)     0.77183       0.06268
 316    H 19  s      Ryd( 2s)     0.00141       0.54607
 317    H 19  s      Ryd( 3s)     0.00019       2.29630
 318    H 19  px     Ryd( 2p)     0.00020       2.11619
 319    H 19  py     Ryd( 2p)     0.00032       2.41067
 320    H 19  pz     Ryd( 2p)     0.00021       1.57519

 321    O 20  s      Cor( 1s)     1.99999     -18.66718
 322    O 20  s      Val( 2s)     1.60712      -0.47223
 323    O 20  s      Ryd( 4s)     0.00096       2.55414
 324    O 20  s      Ryd( 3s)     0.00002       1.71049
 325    O 20  s      Ryd( 5s)     0.00000      47.01104
 326    O 20  px     Val( 2p)     1.65017      -0.21572
 327    O 20  px     Ryd( 3p)     0.00120       0.83902
 328    O 20  px     Ryd( 4p)     0.00052       1.25698
 329    O 20  px     Ryd( 5p)     0.00002       5.44181
 330    O 20  py     Val( 2p)     1.84968      -0.17095
 331    O 20  py     Ryd( 3p)     0.00915       0.65662
 332    O 20  py     Ryd( 4p)     0.00003       1.21433
 333    O 20  py     Ryd( 5p)     0.00000       5.00152
 334    O 20  pz     Val( 2p)     1.40892      -0.18990
 335    O 20  pz     Ryd( 3p)     0.00295       0.50627
 336    O 20  pz     Ryd( 4p)     0.00003       1.09664
 337    O 20  pz     Ryd( 5p)     0.00000       4.78858
 338    O 20  dxy    Ryd( 3d)     0.00246       3.27155
 339    O 20  dxz    Ryd( 3d)     0.00251       3.12739
 340    O 20  dyz    Ryd( 3d)     0.00002       2.79411
 341    O 20  dx2y2  Ryd( 3d)     0.00403       3.43957
 342    O 20  dz2    Ryd( 3d)     0.00126       3.02510

 343    H 21  s      Val( 1s)     0.77210       0.06295
 344    H 21  s      Ryd( 2s)     0.00141       0.54649
 345    H 21  s      Ryd( 3s)     0.00019       2.29644
 346    H 21  px     Ryd( 2p)     0.00020       2.11508
 347    H 21  py     Ryd( 2p)     0.00032       2.41059
 348    H 21  pz     Ryd( 2p)     0.00021       1.57527

 349    H 22  s      Val( 1s)     0.81685       0.01582
 350    H 22  s      Ryd( 2s)     0.00193       0.74710
 351    H 22  s      Ryd( 3s)     0.00019       2.32045
 352    H 22  px     Ryd( 2p)     0.00020       2.06806
 353    H 22  py     Ryd( 2p)     0.00045       2.51172
 354    H 22  pz     Ryd( 2p)     0.00039       1.54046

 [60 electrons found in the effective core potential]


 Summary of Natural Population Analysis:

                                     Natural Population
             Natural    ---------------------------------------------
  Atom No    Charge        Core      Valence    Rydberg      Total
 --------------------------------------------------------------------
   Ir  1   -0.16297     67.99969     9.12149    0.04179    77.16297
    N  2   -0.61203      1.99999     5.58052    0.03151     7.61203
    P  3    0.19430      9.99996     4.76096    0.04478    14.80570
    C  4    0.45960      1.99999     3.48534    0.05508     5.54040
    P  5    0.19227      9.99996     4.76325    0.04451    14.80773
    H  6    0.05724      0.00000     0.93817    0.00459     0.94276
    H  7    0.05967      0.00000     0.93683    0.00350     0.94033
    H  8    0.05759      0.00000     0.93782    0.00459     0.94241
    H  9    0.05736      0.00000     0.93805    0.00459     0.94264
    H 10    0.06025      0.00000     0.93622    0.00353     0.93975
    H 11    0.05746      0.00000     0.93796    0.00457     0.94254
    O 12   -0.48994      1.99999     6.47508    0.01486     8.48994
    C 13    0.00924      1.99998     3.96708    0.02369     5.99076
    C 14   -0.28712      1.99998     4.26746    0.01968     6.28712
    C 15    0.35527      1.99998     3.60517    0.03958     5.64473
    C 16   -0.28759      1.99998     4.26793    0.01968     6.28759
    C 17    0.00919      1.99998     3.96706    0.02376     5.99081
    H 18    0.17984      0.00000     0.81698    0.00318     0.82016
    H 19    0.22583      0.00000     0.77183    0.00234     0.77417
    O 20   -0.54103      1.99999     6.51588    0.02516     8.54103
    H 21    0.22557      0.00000     0.77210    0.00233     0.77443
    H 22    0.17998      0.00000     0.81685    0.00317     0.82002
 ====================================================================
 * Total *  0.00000    105.99947    69.58005    0.42048   176.00000

                                 Natural Population
 ---------------------------------------------------------
   Effective Core            60.00000
   Core                      45.99947 ( 99.9989% of   46)
   Valence                   69.58005 ( 99.4001% of   70)
   Natural Minimal Basis    175.57952 ( 99.7611% of  176)
   Natural Rydberg Basis      0.42048 (  0.2389% of  176)
[...]
                                                     135(r),284(v),170(r),89(r)
                                                     314(g),91(r),82(v),154(r)
                                                     233(r),294(v),155(r),260(r)
                                                     174(r),136(r),71(r),69(r)
                                                     132(r),222(r),180(r),171(r)
                                                     206(r),133(r),139(r),177(r)
                                                     129(r),142(r),131(r),225(r)
                                                     191(r),196(r),186(r),93(r)
                                                     213(r),203(r),201(r),211(r)
                                                     202(r),212(r),161(r),188(r)
                                                     198(r),167(r)
 ------ non-Lewis ----------------------------------
   61. BD*( 1) N  2- C 13       0.02539     0.39869
   62. BD*( 1) N  2- C 17       0.02539     0.39869
   72. BD*( 1) C 13- C 14       0.01814     0.57223
   73. BD*( 2) C 13- C 14       0.22886     0.00100
   74. BD*( 1) C 13- H 18       0.02410     0.35653
   75. BD*( 1) C 14- C 15       0.06200     0.44360
   76. BD*( 1) C 14- H 19       0.01288     0.38584
   77. BD*( 1) C 15- C 16       0.06200     0.44362
   78. BD*( 1) C 15- O 20       0.01134     0.54407
   79. BD*( 2) C 15- O 20       0.36263     0.01435
   80. BD*( 1) C 16- C 17       0.01815     0.57221
   81. BD*( 2) C 16- C 17       0.22887     0.00100
   82. BD*( 1) C 16- H 21       0.01288     0.38583
   83. BD*( 1) C 17- H 22       0.02411     0.35657
  110. RY ( 1) N  2             0.00875    16.49480
  111. RY ( 2) N  2             0.00797     0.54206
  112. RY ( 3) N  2             0.00320     1.30172
  113. RY ( 4) N  2             0.00172     1.91137
  114. RY ( 5) N  2             0.00057     0.83315
  115. RY ( 6) N  2             0.00038     2.13384
  116. RY ( 7) N  2             0.00028     1.69936
  117. RY ( 8) N  2             0.00026    11.40552
  118. RY ( 9) N  2             0.00017     2.30297
  119. RY (10) N  2             0.00016     2.28238
  120. RY (11) N  2             0.00009     0.96384
  121. RY (12) N  2             0.00005     3.09643
  122. RY (13) N  2             0.00001     3.29454
  123. RY (14) N  2             0.00001     9.45615
  124. RY (15) N  2             0.00000     4.45482
  125. RY (16) N  2             0.00000    26.66291
  126. RY (17) N  2             0.00000     3.76473
  233. RY ( 1) C 13             0.00634     1.69664
  234. RY ( 2) C 13             0.00380     1.10149
  235. RY ( 3) C 13             0.00342     0.77225
  236. RY ( 4) C 13             0.00097     1.44536
  237. RY ( 5) C 13             0.00038     2.16515
  238. RY ( 6) C 13             0.00032     1.26229
  239. RY ( 7) C 13             0.00020     2.43626
  240. RY ( 8) C 13             0.00015     1.24268
  241. RY ( 9) C 13             0.00012     3.82001
  242. RY (10) C 13             0.00008     2.70682
  243. RY (11) C 13             0.00008     0.57279
  244. RY (12) C 13             0.00003     4.62644
  245. RY (13) C 13             0.00002     1.24450
  246. RY (14) C 13             0.00002     2.90906
  247. RY (15) C 13             0.00001     4.12725
  248. RY (16) C 13             0.00000    18.71877
  249. RY (17) C 13             0.00000     2.65016
  250. RY ( 1) C 14             0.00473     1.08484
  251. RY ( 2) C 14             0.00179     0.71903
  252. RY ( 3) C 14             0.00136     1.20856
  253. RY ( 4) C 14             0.00122     0.40672
  254. RY ( 5) C 14             0.00041     2.56320
  255. RY ( 6) C 14             0.00033     1.55241
  256. RY ( 7) C 14             0.00016     1.01390
  257. RY ( 8) C 14             0.00016     1.94541
  258. RY ( 9) C 14             0.00009     3.90645
  259. RY (10) C 14             0.00004     4.44883
  260. RY (11) C 14             0.00003     4.20929
  261. RY (12) C 14             0.00002     5.58325
  262. RY (13) C 14             0.00002     5.12952
  263. RY (14) C 14             0.00001     6.54633
  264. RY (15) C 14             0.00000     2.49442
  265. RY (16) C 14             0.00000     2.18047
  266. RY (17) C 14             0.00000     1.41506
  267. RY ( 1) C 15             0.01308     0.95927
  268. RY ( 2) C 15             0.00651     1.50329
  269. RY ( 3) C 15             0.00461     1.48156
  270. RY ( 4) C 15             0.00204     2.12415
  271. RY ( 5) C 15             0.00163     1.78692
  272. RY ( 6) C 15             0.00031     1.54639
  273. RY ( 7) C 15             0.00020     4.89682
  274. RY ( 8) C 15             0.00007     2.44006
  275. RY ( 9) C 15             0.00006     0.60737
  276. RY (10) C 15             0.00005     9.92810
  277. RY (11) C 15             0.00003     1.09946
  278. RY (12) C 15             0.00002     2.57497
  279. RY (13) C 15             0.00001     0.34594
  280. RY (14) C 15             0.00001     3.52593
  281. RY (15) C 15             0.00000     3.11480
  282. RY (16) C 15             0.00000     2.68793
  283. RY (17) C 15             0.00000     2.23094
  284. RY ( 1) C 16             0.00473     1.08464
  285. RY ( 2) C 16             0.00179     0.71895
  286. RY ( 3) C 16             0.00136     1.20869
  287. RY ( 4) C 16             0.00122     0.40676
  288. RY ( 5) C 16             0.00041     2.56323
  289. RY ( 6) C 16             0.00033     1.55242
  290. RY ( 7) C 16             0.00016     1.01316
  291. RY ( 8) C 16             0.00016     1.94565
  292. RY ( 9) C 16             0.00009     3.90630
  293. RY (10) C 16             0.00004     4.43079
  294. RY (11) C 16             0.00003     4.22206
  295. RY (12) C 16             0.00002     5.59446
  296. RY (13) C 16             0.00002     5.12455
  297. RY (14) C 16             0.00001     6.54852
  298. RY (15) C 16             0.00000     2.49488
  299. RY (16) C 16             0.00000     2.18255
  300. RY (17) C 16             0.00000     1.41297
  301. RY ( 1) C 17             0.00634     1.69620
  302. RY ( 2) C 17             0.00380     1.10160
  303. RY ( 3) C 17             0.00342     0.77225
  304. RY ( 4) C 17             0.00097     1.44533
  305. RY ( 5) C 17             0.00038     2.16498
  306. RY ( 6) C 17             0.00032     1.26230
  307. RY ( 7) C 17             0.00020     2.43507
  308. RY ( 8) C 17             0.00015     1.24420
  309. RY ( 9) C 17             0.00012     3.81670
  310. RY (10) C 17             0.00008     2.70743
  311. RY (11) C 17             0.00008     0.57269
  312. RY (12) C 17             0.00003     4.62685
  313. RY (13) C 17             0.00002     1.24435
  314. RY (14) C 17             0.00002     2.90925
  315. RY (15) C 17             0.00001     4.11723
  316. RY (16) C 17             0.00000    18.72941
  317. RY (17) C 17             0.00000     2.65020
  318. RY ( 1) H 18             0.00203     0.79687
  319. RY ( 2) H 18             0.00035     1.54730
  320. RY ( 3) H 18             0.00021     2.40859
  321. RY ( 4) H 18             0.00019     2.08853
  322. RY ( 5) H 18             0.00002     2.44300
  323. RY ( 1) H 19             0.00152     0.54348
  324. RY ( 2) H 19             0.00032     2.58016
  325. RY ( 3) H 19             0.00021     1.57403
  326. RY ( 4) H 19             0.00005     1.94940
  327. RY ( 5) H 19             0.00003     2.25815
  328. RY ( 1) O 20             0.00443     0.52802
  329. RY ( 2) O 20             0.00164     0.54167
  330. RY ( 3) O 20             0.00054     0.45875
  331. RY ( 4) O 20             0.00003     1.63962
  332. RY ( 5) O 20             0.00001     2.93114
  333. RY ( 6) O 20             0.00001     1.08495
  334. RY ( 7) O 20             0.00001     2.80523
  335. RY ( 8) O 20             0.00000     4.82327
  336. RY ( 9) O 20             0.00000     3.10950
  337. RY (10) O 20             0.00000     5.48959
  338. RY (11) O 20             0.00000     1.61834
  339. RY (12) O 20             0.00000     3.06345
  340. RY (13) O 20             0.00000     4.72480
  341. RY (14) O 20             0.00000     4.60513
  342. RY (15) O 20             0.00000     7.26303
  343. RY (16) O 20             0.00000    39.73918
  344. RY (17) O 20             0.00000     3.06643
  345. RY ( 1) H 21             0.00152     0.54348
  346. RY ( 2) H 21             0.00032     2.58017
  347. RY ( 3) H 21             0.00021     1.57402
  348. RY ( 4) H 21             0.00005     1.94942
  349. RY ( 5) H 21             0.00003     2.25812
  350. RY ( 1) H 22             0.00203     0.79685
  351. RY ( 2) H 22             0.00035     1.54730
  352. RY ( 3) H 22             0.00021     2.40895
  353. RY ( 4) H 22             0.00019     2.08812
  354. RY ( 5) H 22             0.00002     2.44297
          -------------------------------
                 Total Lewis   48.36984  ( 97.5042%)
           Valence non-Lewis    1.11674  (  2.2511%)
           Rydberg non-Lewis    0.12137  (  0.2447%)
          -------------------------------
               Total unit  2   49.60795  (100.0000%)
              Charge unit  2   -0.60795

 Molecular unit  3  (H3P)
 ------ Lewis --------------------------------------
    6. CR ( 1) P  3             2.00000   -76.01849
    7. CR ( 2) P  3             1.99997    -6.72581
    8. CR ( 3) P  3             2.00000    -4.59541
    9. CR ( 4) P  3             2.00000    -4.59224
   10. CR ( 5) P  3             2.00000    -4.59493
   30. LP ( 1) P  3             1.45740    -0.17455  60(r),110(r),149(r),117(r)
                                                     105(r),216(r),219(r),106(r)
                                                     88(r),103(r),59(r),96(r)
                                                     165(r),127(g),100(r),97(r)
                                                     160(r),135(g),163(r),173(r)
                                                     301(r),233(r),102(r),113(r)
                                                     121(r),89(r),314(r),246(r)
                                                     91(r),154(r),63(g),65(g)
                                                     318(r),132(g),174(r),136(g)
                                                     350(r),170(r),64(g),155(r)
                                                     312(r),244(r),236(r),222(r)
                                                     304(r),139(g),177(r),260(r)
                                                     294(r),129(g),167(r),242(r)
                                                     206(r),310(r),133(g),67(r)
                                                     211(r),201(r),171(r),258(r)
                                                     305(r),292(r),271(r),180(r)
                                                     225(r),322(r),354(r),237(r)
                                                     142(g),169(r),131(g),188(v)
                                                     198(v),191(v),273(r),261(r)
                                                     295(r),278(r),234(r),281(r)
                                                     302(r),257(r),123(r),93(r)
                                                     291(r),196(v),186(v),80(r)
                                                     213(r),203(r),69(r),71(r)
                                                     138(g),161(r),308(r),220(r)
                                                     118(r),276(r),175(r),247(r)
                                                     240(r),288(r),315(r),254(r)
                                                     283(r),194(v),241(r),309(r)
                                                     72(r),70(r),209(r),176(r)
                                                     74(r),197(v),187(v),137(g)
                                                     104(r),202(r),212(r),226(r)
                                                     108(r),251(r),267(r),330(r)
                                                     62(r),83(r),98(r),298(r)
                                                     264(r),297(r),252(r),321(r)
                                                     86(r),285(r),68(r),148(r)
                                                     348(r),326(r),263(r),286(r)
                                                     353(r),107(r),214(r),204(r)
                                                     248(r),345(r),339(r),316(r)
                                                     323(r),352(r),77(r),327(r)
                                                     101(r),157(r),349(r),75(r)
                                                     346(r),284(r),125(r),116(r)
                                                     324(r),122(r),320(r),250(r)
                                                     95(r),151(r),307(r)
   38. BD ( 1) P  3- H  6       1.98688    -0.47420  65(g),64(g),60(r),74(r)
                                                     87(r),90(r),107(r),98(r)
                                                     318(r),95(r),59(r),86(r)
                                                     85(r),72(r),157(r),175(r)
                                                     320(r),158(r),321(r),234(r)
   39. BD ( 1) P  3- H  7       1.98929    -0.47069  63(g),65(g),60(r),67(r)
                                                     86(r),88(r),74(r),233(r)
                                                     90(r),149(r),105(r),216(r)
                                                     98(r),107(r),95(r),91(r)
                                                     318(r),110(r),163(r),108(r)
                                                     219(r),72(r),103(r),117(r)
   40. BD ( 1) P  3- H  8       1.98683    -0.47420  63(g),64(g),60(r),74(r)
                                                     87(r),90(r),107(r),98(r)
                                                     318(r),95(r),59(r),86(r)
                                                     72(r),85(r),157(r),175(r)
                                                     320(r),158(r),321(r),234(r)
 ------ non-Lewis ----------------------------------
   63. BD*( 1) P  3- H  6       0.06362     0.08406
   64. BD*( 1) P  3- H  7       0.05169     0.09587
   65. BD*( 1) P  3- H  8       0.06356     0.08406
  127. RY ( 1) P  3             0.00770     2.62820
  128. RY ( 2) P  3             0.00655     0.88258
  129. RY ( 3) P  3             0.00482     1.00093
  130. RY ( 4) P  3             0.00254     0.35719
  131. RY ( 5) P  3             0.00161     0.80356
  132. RY ( 6) P  3             0.00082     0.98536
  133. RY ( 7) P  3             0.00023     3.77959
  134. RY ( 8) P  3             0.00020     0.80535
  135. RY ( 9) P  3             0.00014     2.77673
  136. RY (10) P  3             0.00005     0.76452
  137. RY (11) P  3             0.00002     2.12096
  138. RY (12) P  3             0.00001     1.79833
  139. RY (13) P  3             0.00001     1.14636
  140. RY (14) P  3             0.00001     1.02980
  141. RY (15) P  3             0.00000     1.13131
  142. RY (16) P  3             0.00001     1.23655
  143. RY (17) P  3             0.00000    10.71891
  144. RY (18) P  3             0.00000   154.13208
  145. RY (19) P  3             0.00000    12.98982
  146. RY (20) P  3             0.00000    13.18559
  147. RY (21) P  3             0.00000    16.49886
  186. RY ( 1) H  6             0.00186     0.55411
  187. RY ( 2) H  6             0.00022     1.44966
  188. RY ( 3) H  6             0.00013     1.68675
  189. RY ( 4) H  6             0.00009     1.90822
  190. RY ( 5) H  6             0.00004     1.79600
  191. RY ( 1) H  7             0.00118     0.55889
  192. RY ( 2) H  7             0.00014     2.06840
  193. RY ( 3) H  7             0.00013     1.34276
  194. RY ( 4) H  7             0.00009     1.45486
  195. RY ( 5) H  7             0.00005     1.92220
  196. RY ( 1) H  8             0.00186     0.55349
  197. RY ( 2) H  8             0.00022     1.44861
  198. RY ( 3) H  8             0.00013     1.68847
  199. RY ( 4) H  8             0.00009     1.90846
  200. RY ( 5) H  8             0.00004     1.79608
          -------------------------------
                 Total Lewis   17.42036  ( 98.8097%)
           Valence non-Lewis    0.17888  (  1.0146%)
           Rydberg non-Lewis    0.03098  (  0.1757%)
          -------------------------------
               Total unit  3   17.63022  (100.0000%)
              Charge unit  3    0.36978

 $CHOOSE
   LONE 1 4 2 2 3 1 12 1 20 2 END
   BOND S 1 4 S 1 5 S 2 13 S 2 17 S 3 6 S 3 7 S 3 8 T 4 12 S 5 9 S 5 10 S 5 11
        D 13 14 S 13 18 S 14 15 S 14 19 S 15 16 D 15 20 D 16 17 S 16 21 S 17 22
        END
 $END

 NBO analysis completed in 15.17 CPU seconds (16 wall seconds)
 Maximum scratch memory used by NBO was 1564817 words (11.94 MB)
 Maximum scratch memory used by G16NBO was 199037 words (1.52 MB)

 Opening RunExU unformatted file "/local/mvanvleet/pbs.15360.josephine/Gau-120571.EUF"
 Read unf file /local/mvanvleet/pbs.15360.josephine/Gau-120571.EUF:
 Label Gaussian matrix elements                                         IVers= 2 NLab= 2 Version=ES64L-G16RevC.01
 Title trans-(H)Ir(PH3)2(CO)                                           
 NAtoms=    22 NBasis=   354 NBsUse=   354 ICharg=     0 Multip=     1 NE=   116 Len12L=8 Len4L=8 IOpCl= 0 ICGU=111
 GAUSSIAN SCALARS                    NI= 1 NR= 1 NTot=       1 LenBuf=    2 NRI=1 N=    1000
 NPA CHARGES                         NI= 0 NR= 1 NTot=      22 LenBuf= 4000 NRI=1 N=      22
 Recovered energy= -1226.34991053     dipole=     -3.358131889147     -0.000402570470      0.000038816443
 Unable to Open any file for archive entry.
 1\1\GINC-NODE003\POpt\RPBEPBE\GenECP\C6H10Ir1N1O2P2\MVANVLEET\05-Jun-2
 024\1\\# PBEPBE GenECP POpt Pop=NBO7\\trans-(H)Ir(PH3)2(CO)\\0,1\Ir\N,
 1,B1\P,1,B2,2,A1\C,1,B3,3,A2,2,D1,0\P,1,B4,2,A3,3,D2,0\H,3,B5,1,A4,2,D
 3,0\H,3,B6,1,A5,2,D4,0\H,3,B7,1,A6,2,D5,0\H,5,B8,1,A7,2,D6,0\H,5,B9,1,
 A8,2,D7,0\H,5,B10,1,A9,2,D8,0\O,1,B11,3,A10,8,D9,0\C,3,B14,1,A13,2,D12
 ,0\C,13,B15,2,A14,1,D13,0\C,14,B16,13,A15,2,D14,0\C,15,B17,14,A16,13,D
 15,0\C,2,B18,1,A17,3,D16,0\H,13,B19,2,A18,1,D17,0\H,14,B20,13,A19,2,D1
 8,0\O,15,B21,14,A20,13,D19,0\H,16,B22,15,A21,14,D20,0\H,17,B23,2,A22,1
 ,D21,0\\B1=2.1466838\B2=2.31556594\B4=2.31535279\B5=1.4248208\B6=1.424
 11692\B7=1.42477558\B8=1.42480034\B9=1.42413325\B10=1.42480674\B11=3.0
 3448295\B14=3.13292921\B15=1.36862171\B16=1.45872747\B17=1.45870977\B1
 8=1.38242721\B19=1.090489\B20=1.09232547\B21=1.24684184\B22=1.09232929
 \B23=1.09045602\A4=119.17940489\A5=117.14949409\A6=119.16473696\A7=119
 .17728809\A8=117.14867121\A9=119.17413503\A10=89.99837027\A13=68.21917
 904\A14=125.69474103\A15=121.98327016\A16=111.58063236\A17=123.4577418
 1\A18=116.69842656\A19=119.52791002\A20=124.20666051\A21=118.49198617\
 A22=116.71111324\D3=61.19812955\D4=180.2234113\D5=299.20985574\D6=60.9
 4401599\D7=179.94634767\D8=298.95128838\D9=119.20920948\D14=360.011189
 42\D16=180.01248673\D17=359.9851083\D18=180.02146023\D19=180.00436897\
 D20=180.01585173\D21=-0.03722443\B3=1.868\A1=90.\A2=90.\A3=90.\D1=180.
 \D2=-180.\D13=180.\D15=360.\D12=0.\\Version=ES64L-G16RevC.01\State=1-A
 \HF=-1226.3499105\RMSD=4.094e-09\RMSF=1.823e-03\Dipole=0.0007513,0.000
 0758,-3.3581318\Quadrupole=28.0105404,5.9710989,-33.9816393,-0.0003113
 ,0.0043952,0.0025997\PG=C01 [X(C6H10Ir1N1O2P2)]\\@
 The archive entry for this job was punched.


 EVERYTHING'S GOT A MORAL, IF ONLY YOU CAN FIND IT.

                                    -- LEWIS CARROL, ALICE IN WONDERLAND
 Job cpu time:       0 days  3 hours 50 minutes 48.8 seconds.
 Elapsed time:       0 days  0 hours  5 minutes  1.8 seconds.
 File lengths (MBytes):  RWF=     80 Int=      0 D2E=      0 Chk=     10 Scr=      1
 Normal termination of Gaussian 16 at Wed Jun  5 13:41:14 2024.
