 Entering Gaussian System, Link 0=/cm/shared/apps//g16/g16
 Input=trans-pyridonate_Ir_PH3_2_CO.gjf
 Output=trans-pyridonate_Ir_PH3_2_CO.log
 Initial command:
 /cm/shared/apps//g16/l1.exe "/local/mvanvleet/pbs.15376.josephine/Gau-366888.inp" -scrdir="/local/mvanvleet/pbs.15376.josephine/"
 Entering Link 1 = /cm/shared/apps//g16/l1.exe PID=    366891.
  
 Copyright (c) 1988-2019, Gaussian, Inc.  All Rights Reserved.
  
 This is part of the Gaussian(R) 16 program.  It is based on
 the Gaussian(R) 09 system (copyright 2009, Gaussian, Inc.),
 the Gaussian(R) 03 system (copyright 2003, Gaussian, Inc.),
 the Gaussian(R) 98 system (copyright 1998, Gaussian, Inc.),
 the Gaussian(R) 94 system (copyright 1995, Gaussian, Inc.),
 the Gaussian 92(TM) system (copyright 1992, Gaussian, Inc.),
 the Gaussian 90(TM) system (copyright 1990, Gaussian, Inc.),
 the Gaussian 88(TM) system (copyright 1988, Gaussian, Inc.),
 the Gaussian 86(TM) system (copyright 1986, Carnegie Mellon
 University), and the Gaussian 82(TM) system (copyright 1983,
 Carnegie Mellon University). Gaussian is a federally registered
 trademark of Gaussian, Inc.
  
 This software contains proprietary and confidential information,
 including trade secrets, belonging to Gaussian, Inc.
  
 This software is provided under written license and may be
 used, copied, transmitted, or stored only in accord with that
 written license.
  
 The following legend is applicable only to US Government
 contracts under FAR:
  
                    RESTRICTED RIGHTS LEGEND
  
 Use, reproduction and disclosure by the US Government is
 subject to restrictions as set forth in subparagraphs (a)
 and (c) of the Commercial Computer Software - Restricted
 Rights clause in FAR 52.227-19.
  
 Gaussian, Inc.
 340 Quinnipiac St., Bldg. 40, Wallingford CT 06492
  
  
 ---------------------------------------------------------------
 Warning -- This program may not be used in any manner that
 competes with the business of Gaussian, Inc. or will provide
 assistance to any competitor of Gaussian, Inc.  The licensee
 of this program is prohibited from giving any competitor of
 Gaussian, Inc. access to this program.  By using this program,
 the user acknowledges that Gaussian, Inc. is engaged in the
 business of creating and licensing software in the field of
 computational chemistry and represents and warrants to the
 licensee that it is not a competitor of Gaussian, Inc. and that
 it will not use this program in any manner prohibited above.
 ---------------------------------------------------------------
  

 Cite this work as:
 Gaussian 16, Revision C.01,
 M. J. Frisch, G. W. Trucks, H. B. Schlegel, G. E. Scuseria, 
 M. A. Robb, J. R. Cheeseman, G. Scalmani, V. Barone, 
 G. A. Petersson, H. Nakatsuji, X. Li, M. Caricato, A. V. Marenich, 
 J. Bloino, B. G. Janesko, R. Gomperts, B. Mennucci, H. P. Hratchian, 
 J. V. Ortiz, A. F. Izmaylov, J. L. Sonnenberg, D. Williams-Young, 
 F. Ding, F. Lipparini, F. Egidi, J. Goings, B. Peng, A. Petrone, 
 T. Henderson, D. Ranasinghe, V. G. Zakrzewski, J. Gao, N. Rega, 
 G. Zheng, W. Liang, M. Hada, M. Ehara, K. Toyota, R. Fukuda, 
 J. Hasegawa, M. Ishida, T. Nakajima, Y. Honda, O. Kitao, H. Nakai, 
 T. Vreven, K. Throssell, J. A. Montgomery, Jr., J. E. Peralta, 
 F. Ogliaro, M. J. Bearpark, J. J. Heyd, E. N. Brothers, K. N. Kudin, 
 V. N. Staroverov, T. A. Keith, R. Kobayashi, J. Normand, 
 K. Raghavachari, A. P. Rendell, J. C. Burant, S. S. Iyengar, 
 J. Tomasi, M. Cossi, J. M. Millam, M. Klene, C. Adamo, R. Cammi, 
 J. W. Ochterski, R. L. Martin, K. Morokuma, O. Farkas, 
 J. B. Foresman, and D. J. Fox, Gaussian, Inc., Wallingford CT, 2019.
 
 ******************************************
 Gaussian 16:  ES64L-G16RevC.01  3-Jul-2019
                 6-Jun-2024 
 ******************************************
 %nprocshared=48
 Will use up to   48 processors via shared memory.
 %chk=trans-pyridonate_Ir_PH3_2_CO.chk
 %mem=16GB
 -----------------------------
 # PBEPBE GenECP POpt Pop=NBO7
 -----------------------------
 1/10=7,26=3,38=1/1,3;
 2/12=2,17=6,18=5,29=3,40=1/2;
 3/5=7,11=2,16=1,17=8,25=1,30=1,71=1,74=1009/1,2,3;
 4//1;
 5/5=2,38=5/2;
 6/7=2,8=2,9=2,10=2,28=1,40=1,113=1,114=1,124=3103/1,12;
 7/29=1/1,2,3,16;
 1/10=7,26=3/3(2);
 2/29=3/2;
 99//99;
 2/29=3/2;
 3/5=7,6=1,11=2,16=1,17=8,25=1,30=1,71=1,74=1009,82=7/1,2,3;
 4/5=5,16=3,69=1/1;
 5/5=2,38=5/2;
 7//1,2,3,16;
 1/26=3/3(-5);
 2/29=3/2;
 6/7=2,8=2,9=2,10=2,19=2,28=1,40=1,113=1,114=1,124=3103/1,12;
 99/9=1/99;
 ---------------------
 trans-(H)Ir(PH3)2(CO)
 ---------------------
 Symbolic Z-matrix:
 Charge =  1 Multiplicity = 1
 Ir                   1
 N                    1    B1
 P                    1    B2       2    A1
 C                    1    B3       3    A2       2    D1       0
 P                    1    B4       2    A3       3    D2       0
 H                    3    B5       1    A4       2    D3       0
 H                    3    B6       1    A5       2    D4       0
 H                    3    B7       1    A6       2    D5       0
 H                    5    B8       1    A7       2    D6       0
 H                    5    B9       1    A8       2    D7       0
 H                    5    B10      1    A9       2    D8       0
 O                    1    B11      3    A10      8    D9       0
 C                    3    B14      1    A13      2    D12      0
 C                    13   B15      2    A14      1    D13      0
 C                    14   B16      13   A15      2    D14      0
 C                    15   B17      14   A16      13   D15      0
 C                    2    B18      1    A17      3    D16      0
 H                    13   B19      2    A18      1    D17      0
 H                    14   B20      13   A19      2    D18      0
 H                    15   B21      14   A20      13   D19      0
 H                    16   B22      15   A21      14   D20      0
 H                    17   B23      2    A22      1    D21      0
       Variables:
  B1                    2.104                    
  B2                    2.264                    
  B4                    2.27                     
  B5                    1.431                    
  B6                    1.437                    
  B7                    1.431                    
  B8                    1.431                    
  B9                    1.435                    
  B10                   1.431                    
  B11                   3.145                    
  B14                   2.994                    
  B15                   1.395                    
  B16                   1.395                    
  B17                   1.395                    
  B18                   1.395                    
  B19                   1.087                    
  B20                   1.087                    
  B21                   1.087                    
  B22                   1.087                    
  B23                   1.087                    
  A4                  120.705                    
  A5                  118.798                    
  A6                  120.72                     
  A7                  120.114                    
  A8                  120.136                    
  A9                  120.119                    
  A10                  90.                       
  A13                  69.4                      
  A14                 119.984                    
  A15                 120.                       
  A16                 120.                       
  A17                 119.99                     
  A18                 120.009                    
  A19                 120.                       
  A20                 120.                       
  A21                 120.                       
  A22                 119.984                    
  D3                   60.7                      
  D4                  180.                       
  D5                  299.2                      
  D6                   60.                       
  D7                  179.9                      
  D8                  299.9                      
  D9                  119.2                      
  D14                 359.                       
  D16                 179.5                      
  D17                 359.1                      
  D18                 179.                       
  D19                 180.                       
  D20                 180.                       
  D21                   0.9                      
       Constants:
  B3                    1.868                    
  A1                   90.                       
  A2                   90.                       
  A3                   90.                       
  D1                  180.                       
  D2                 -180.                       
  D13                 180.                       
  D15                 360.                       
  D12                   0.                       
 

 GradGradGradGradGradGradGradGradGradGradGradGradGradGradGradGradGradGrad
 Berny optimization.
 Initialization pass.
                       ----------------------------
                       !    Initial Parameters    !
                       ! (Angstroms and Degrees)  !
 ----------------------                            ----------------------
 !      Name          Value   Derivative information (Atomic Units)     !
 ------------------------------------------------------------------------
 !       B1          2.104    estimate D2E/DX2                          !
 !       B2          2.264    estimate D2E/DX2                          !
 !       B4          2.27     estimate D2E/DX2                          !
 !       B5          1.431    estimate D2E/DX2                          !
 !       B6          1.437    estimate D2E/DX2                          !
 !       B7          1.431    estimate D2E/DX2                          !
 !       B8          1.431    estimate D2E/DX2                          !
 !       B9          1.435    estimate D2E/DX2                          !
 !       B10         1.431    estimate D2E/DX2                          !
 !       B11         3.145    estimate D2E/DX2                          !
 !       B14         2.994    estimate D2E/DX2                          !
 !       B15         1.395    estimate D2E/DX2                          !
 !       B16         1.395    estimate D2E/DX2                          !
 !       B17         1.395    estimate D2E/DX2                          !
 !       B18         1.395    estimate D2E/DX2                          !
 !       B19         1.087    estimate D2E/DX2                          !
 !       B20         1.087    estimate D2E/DX2                          !
 !       B21         1.087    estimate D2E/DX2                          !
 !       B22         1.087    estimate D2E/DX2                          !
 !       B23         1.087    estimate D2E/DX2                          !
 !       A4        120.705    estimate D2E/DX2                          !
 !       A5        118.798    estimate D2E/DX2                          !
 !       A6        120.72     estimate D2E/DX2                          !
 !       A7        120.114    estimate D2E/DX2                          !
 !       A8        120.136    estimate D2E/DX2                          !
 !       A9        120.119    estimate D2E/DX2                          !
 !       A10        90.0      estimate D2E/DX2                          !
 !       A13        69.4      estimate D2E/DX2                          !
 !       A14       119.984    estimate D2E/DX2                          !
 !       A15       120.0      estimate D2E/DX2                          !
 !       A16       120.0      estimate D2E/DX2                          !
 !       A17       119.99     estimate D2E/DX2                          !
 !       A18       120.009    estimate D2E/DX2                          !
 !       A19       120.0      estimate D2E/DX2                          !
 !       A20       120.0      estimate D2E/DX2                          !
 !       A21       120.0      estimate D2E/DX2                          !
 !       A22       119.984    estimate D2E/DX2                          !
 !       D3         60.7      estimate D2E/DX2                          !
 !       D4        180.0      estimate D2E/DX2                          !
 !       D5        299.2      estimate D2E/DX2                          !
 !       D6         60.0      estimate D2E/DX2                          !
 !       D7        179.9      estimate D2E/DX2                          !
 !       D8        299.9      estimate D2E/DX2                          !
 !       D9        119.2      estimate D2E/DX2                          !
 !       D14       359.0      estimate D2E/DX2                          !
 !       D16       179.5      estimate D2E/DX2                          !
 !       D17       359.1      estimate D2E/DX2                          !
 !       D18       179.0      estimate D2E/DX2                          !
 !       D19       180.0      estimate D2E/DX2                          !
 !       D20       180.0      estimate D2E/DX2                          !
 !       D21         0.9      estimate D2E/DX2                          !
 !       B3          1.868    Frozen                                    !
 !       A1         90.0      Frozen                                    !
 !       A2         90.0      Frozen                                    !
 !       A3         90.0      Frozen                                    !
 !       D1        180.0      Frozen                                    !
 !       D2       -180.0      Frozen                                    !
 !       D13       180.0      Frozen                                    !
 !       D15       360.0      Frozen                                    !
 !       D12         0.0      Frozen                                    !
 ------------------------------------------------------------------------
 Trust Radius=3.00D-01 FncErr=1.00D-07 GrdErr=1.00D-06 EigMax=2.50D+02 EigMin=1.00D-04
 Number of steps in this run=     70 maximum allowed number of steps=    120.
 GradGradGradGradGradGradGradGradGradGradGradGradGradGradGradGradGradGrad

 ---------------------------------------------------------------------------------------------------
                            Z-MATRIX (ANGSTROMS AND DEGREES)
   CD    Cent   Atom    N1       Length/X        N2       Alpha/Y        N3        Beta/Z          J
 ---------------------------------------------------------------------------------------------------
      1      1  Ir
      2      2  N        1   2.104000(     1)
      3      3  P        1   2.264000(     2)      2   90.000(    22)
      4      4  C        1   1.868000(     3)      3   90.000(    23)      2  180.000(    42)      0
      5      5  P        1   2.270000(     4)      2   90.000(    24)      3 -180.000(    43)      0
      6      6  H        3   1.431000(     5)      1  120.705(    25)      2   60.700(    44)      0
      7      7  H        3   1.437000(     6)      1  118.798(    26)      2  180.000(    45)      0
      8      8  H        3   1.431000(     7)      1  120.720(    27)      2  299.200(    46)      0
      9      9  H        5   1.431000(     8)      1  120.114(    28)      2   60.000(    47)      0
     10     10  H        5   1.435000(     9)      1  120.136(    29)      2  179.900(    48)      0
     11     11  H        5   1.431000(    10)      1  120.119(    30)      2  299.900(    49)      0
     12     12  O        1   3.145000(    11)      3   90.000(    31)      8  119.200(    50)      0
     13     13  C        3   2.994000(    12)      1   69.400(    32)      2    0.000(    51)      0
     14     14  C       13   1.395000(    13)      2  119.984(    33)      1  180.000(    52)      0
     15     15  C       14   1.395000(    14)     13  120.000(    34)      2  359.000(    53)      0
     16     16  C       15   1.395000(    15)     14  120.000(    35)     13  360.000(    54)      0
     17     17  C        2   1.395000(    16)      1  119.990(    36)      3  179.500(    55)      0
     18     18  H       13   1.087000(    17)      2  120.009(    37)      1  359.100(    56)      0
     19     19  H       14   1.087000(    18)     13  120.000(    38)      2  179.000(    57)      0
     20     20  H       15   1.087000(    19)     14  120.000(    39)     13  180.000(    58)      0
     21     21  H       16   1.087000(    20)     15  120.000(    40)     14  180.000(    59)      0
     22     22  H       17   1.087000(    21)      2  119.984(    41)      1    0.900(    60)      0
 ---------------------------------------------------------------------------------------------------
                         Z-Matrix orientation:                         
 ---------------------------------------------------------------------
 Center     Atomic      Atomic             Coordinates (Angstroms)
 Number     Number       Type             X           Y           Z
 ---------------------------------------------------------------------
      1         77           0        0.000000    0.000000    0.000000
      2          7           0        0.000000    0.000000    2.104000
      3         15           0        2.264000    0.000000    0.000000
      4          6           0        0.000000    0.000000   -1.868000
      5         15           0       -2.270000    0.000000    0.000000
      6          1           0        2.994694   -1.072981    0.602129
      7          1           0        2.956236   -0.000000   -1.259277
      8          1           0        2.995016    1.073863    0.600162
      9          1           0       -2.987964    1.072015    0.618928
     10          1           0       -2.990448    0.002166   -1.241038
     11          1           0       -2.988072   -1.073039    0.617025
     12          8           0        0.000000   -0.000000   -3.145000
     13          6           0        1.210586    0.000000    2.802562
     14          6           0        1.210516    0.000000    4.197562
     15          6           0        0.002560    0.021084    4.895002
     16          6           0       -1.205327    0.042169    4.197441
     17          6           0       -1.208181    0.010544    2.801289
     18          1           0        2.151858   -0.014785    2.259095
     19          1           0        2.151715   -0.016429    4.741109
     20          1           0        0.002506    0.021084    5.982002
     21          1           0       -2.146580    0.058598    4.740894
     22          1           0       -2.149339    0.003968    2.257463
 ---------------------------------------------------------------------
                    Distance matrix (angstroms):
                    1          2          3          4          5
     1  Ir   0.000000
     2  N    2.104000   0.000000
     3  P    2.264000   3.090714   0.000000
     4  C    1.868000   3.972000   2.935152   0.000000
     5  P    2.270000   3.095112   4.534000   2.939783   0.000000
     6  H    3.237598   3.517826   1.431000   4.027532   5.406556
     7  H    3.213271   4.477830   1.437000   3.018257   5.375809
     8  H    3.237823   3.519209   1.431000   4.026801   5.406827
     9  H    3.234226   3.504652   5.395870   4.032612   1.431000
    10  H    3.237740   4.486877   5.399019   3.055465   1.435000
    11  H    3.234302   3.505864   5.395961   4.031791   1.431000
    12  O    3.145000   5.249000   3.875141   1.277000   3.878650
    13  C    3.052847   1.397679   2.994000   4.824901   4.468650
    14  C    4.368624   2.418337   4.327743   6.185175   5.452845
    15  C    4.895048   2.791083   5.392179   6.763035   5.396852
    16  C    4.367277   2.416006   5.445780   6.184187   4.330568
    17  C    3.050743   1.395000   4.461320   4.823077   2.995796
    18  H    3.119972   2.157491   2.261925   4.654420   4.965537
    19  H    5.206560   3.403600   4.742467   6.950574   6.483051
    20  H    5.982040   3.878060   6.395244   7.850031   6.399146
    21  H    5.204548   3.400654   6.475549   6.949009   4.742863
    22  H    3.117020   2.154814   4.957188   4.651786   2.260688
                    6          7          8          9         10
     6  H    0.000000
     7  H    2.148860   0.000000
     8  H    2.146845   2.147603   0.000000
     9  H    6.355588   6.325377   5.983010   0.000000
    10  H    6.354143   5.946712   6.353293   2.145707   0.000000
    11  H    5.982785   6.325087   6.356636   2.145055   2.146735
    12  O    4.915329   3.506463   4.914218   4.923850   3.545117
    13  C    3.029231   4.421067   3.031162   4.852350   5.830900
    14  C    4.154723   5.729278   4.156791   5.619882   6.872152
    15  C    5.345896   6.826404   5.339362   5.322828   6.827111
    16  C    5.640036   6.862664   5.625628   4.128455   5.724100
    17  C    4.865644   5.816415   4.862353   3.009493   4.417800
    18  H    2.139086   3.609180   2.155952   5.503550   6.220493
    19  H    4.354087   6.054103   4.364326   6.677829   7.888490
    20  H    6.252456   7.820555   6.247213   6.229761   7.818595
    21  H    6.696458   7.876815   6.679255   4.327303   6.041425
    22  H    5.510084   6.199546   5.509602   2.128101   3.598190
                   11         12         13         14         15
    11  H    0.000000
    12  O    4.922684   0.000000
    13  C    4.853527   6.069515   0.000000
    14  C    5.621371   7.441678   1.395000   0.000000
    15  C    5.333111   8.040030   2.416211   1.395000   0.000000
    16  C    4.152259   7.440836   2.790000   2.416211   1.395000
    17  C    3.018804   6.067798   2.418791   2.792810   2.418603
    18  H    5.498653   5.816782   1.087000   2.154994   3.401290
    19  H    6.673973   8.174403   2.154985   1.087000   2.154985
    20  H    6.238881   9.127027   3.401285   2.154985   1.087000
    21  H    4.358327   8.173039   3.877000   3.401285   2.154985
    22  H    2.134116   5.814317   3.403858   3.879772   3.404053
                   16         17         18         19         20
    16  C    0.000000
    17  C    1.396513   0.000000
    18  H    3.876999   3.403598   0.000000
    19  H    3.401285   3.879760   2.482015   0.000000
    20  H    2.154985   3.403352   4.298958   2.482000   0.000000
    21  H    1.087000   2.155219   4.963999   4.298950   2.482000
    22  H    2.157808   1.087000   4.301239   4.966688   4.301502
                   21         22
    21  H    0.000000
    22  H    2.484034   0.000000
 Stoichiometry    C6H11IrNOP2(1+)
 Framework group  C1[X(C6H11IrNOP2)]
 Deg. of freedom    60
 Full point group                 C1      NOp   1
 Largest Abelian subgroup         C1      NOp   1
 Largest concise Abelian subgroup C1      NOp   1
                         Standard orientation:                         
 ---------------------------------------------------------------------
 Center     Atomic      Atomic             Coordinates (Angstroms)
 Number     Number       Type             X           Y           Z
 ---------------------------------------------------------------------
      1         77           0       -0.660607   -0.000673    0.000920
      2          7           0        1.443383    0.000706    0.007360
      3         15           0       -0.659108   -2.264667   -0.004228
      4          6           0       -2.528598   -0.001897   -0.004798
      5         15           0       -0.662110    2.269321    0.006081
      6          1           0       -0.059780   -2.997406    1.068927
      7          1           0       -1.917920   -2.957726   -0.009656
      8          1           0       -0.055179   -2.992844   -1.077908
      9          1           0       -0.040381    2.990128   -1.062400
     10          1           0       -1.903613    2.988958    0.001754
     11          1           0       -0.048847    2.985353    1.082634
     12          8           0       -3.805592   -0.002734   -0.008706
     13          6           0        2.142743   -1.209419    0.006745
     14          6           0        3.537736   -1.208435    0.011015
     15          6           0        4.234437    0.000023   -0.005188
     16          6           0        3.536145    1.207497   -0.025661
     17          6           0        2.139900    1.209365    0.001697
     18          1           0        1.599857   -2.151079    0.017727
     19          1           0        4.081854   -2.149313    0.026968
     20          1           0        5.321432    0.000790   -0.001861
     21          1           0        4.079022    2.149141   -0.038286
     22          1           0        1.595433    2.150149    0.008748
 ---------------------------------------------------------------------
 Rotational constants (GHZ):           1.0852602           0.4397424           0.3147563
 General basis read from cards:  (5D, 7F)
 ======================================================================================================
                                       Pseudopotential Parameters
 ======================================================================================================
  Center     Atomic      Valence      Angular      Power
  Number     Number     Electrons     Momentum     of R      Exponent        Coefficient   SO-Coeffient
 ======================================================================================================
    1         77           17
                                      H and up 
                                                     2        1.0000000        0.00000000    0.00000000
                                      S - H
                                                     2       13.6522030      732.26920000    0.00000000
                                                     2        6.8261010       26.48472100    0.00000000
                                      P - H
                                                     2       10.2798680      299.48947400    0.00000000
                                                     2        5.1399340       26.46623400    0.00000000
                                      D - H
                                                     2        7.3498590      124.45759500    0.00000000
                                                     2        3.6749290       14.03599500    0.00000000
                                      F - H
                                                     2        3.0340720       21.53103100    0.00000000
                                      G - H
                                                     2        4.8088570      -21.60759700    0.00000000
    2          7
                                   No pseudopotential on this center.
    3         15
                                   No pseudopotential on this center.
    4          6
                                   No pseudopotential on this center.
    5         15
                                   No pseudopotential on this center.
    6          1
                                   No pseudopotential on this center.
    7          1
                                   No pseudopotential on this center.
    8          1
                                   No pseudopotential on this center.
    9          1
                                   No pseudopotential on this center.
   10          1
                                   No pseudopotential on this center.
   11          1
                                   No pseudopotential on this center.
   12          8
                                   No pseudopotential on this center.
   13          6
                                   No pseudopotential on this center.
   14          6
                                   No pseudopotential on this center.
   15          6
                                   No pseudopotential on this center.
   16          6
                                   No pseudopotential on this center.
   17          6
                                   No pseudopotential on this center.
   18          1
                                   No pseudopotential on this center.
   19          1
                                   No pseudopotential on this center.
   20          1
                                   No pseudopotential on this center.
   21          1
                                   No pseudopotential on this center.
   22          1
                                   No pseudopotential on this center.
 ======================================================================================================
 There are   351 symmetry adapted cartesian basis functions of A   symmetry.
 There are   338 symmetry adapted basis functions of A   symmetry.
   338 basis functions,   541 primitive gaussians,   351 cartesian basis functions
    54 alpha electrons       54 beta electrons
       nuclear repulsion energy       915.3801512247 Hartrees.
 NAtoms=   22 NActive=   22 NUniq=   22 SFac= 1.00D+00 NAtFMM=   60 NAOKFM=F Big=F
 Integral buffers will be    131072 words long.
 Raffenetti 2 integral format.
 Two-electron integral symmetry is turned on.
 One-electron integrals computed using PRISM.
   1 Symmetry operations used in ECPInt.
 ECPInt:  NShTT=    8778 NPrTT=   28918 LenC2=    8120 LenP2D=   19494.
 LDataN:  DoStor=T MaxTD1= 7 Len=  274
 NBasis=   338 RedAO= T EigKep=  3.82D-06  NBF=   338
 NBsUse=   338 1.00D-06 EigRej= -1.00D+00 NBFU=   338
 Defaulting to unpruned grid for atomic number  77.
 ExpMin= 1.50D-02 ExpMax= 7.75D+04 ExpMxC= 2.65D+03 IAcc=3 IRadAn=         5 AccDes= 0.00D+00
 Harris functional with IExCor= 1009 and IRadAn=       5 diagonalized for initial guess.
 HarFok:  IExCor= 1009 AccDes= 0.00D+00 IRadAn=         5 IDoV= 1 UseB2=F ITyADJ=14
 ICtDFT=  3500011 ScaDFX=  1.000000  1.000000  1.000000  1.000000
 Defaulting to unpruned grid for atomic number  77.
 FoFCou: FMM=F IPFlag=           0 FMFlag=      100000 FMFlg1=           0
         NFxFlg=           0 DoJE=T BraDBF=F KetDBF=T FulRan=T
         wScrn=  0.000000 ICntrl=       500 IOpCl=  0 I1Cent=   200000004 NGrid=           0
         NMat0=    1 NMatS0=      1 NMatT0=    0 NMatD0=    1 NMtDS0=    0 NMtDT0=    0
 Petite list used in FoFCou.
 Requested convergence on RMS density matrix=1.00D-08 within 128 cycles.
 Requested convergence on MAX density matrix=1.00D-06.
 Requested convergence on             energy=1.00D-06.
 No special actions if energy rises.
 Defaulting to unpruned grid for atomic number  77.
 Defaulting to unpruned grid for atomic number  77.
 Defaulting to unpruned grid for atomic number  77.
 Defaulting to unpruned grid for atomic number  77.
 Defaulting to unpruned grid for atomic number  77.
 Defaulting to unpruned grid for atomic number  77.
 Defaulting to unpruned grid for atomic number  77.
 Defaulting to unpruned grid for atomic number  77.
 Defaulting to unpruned grid for atomic number  77.
 Defaulting to unpruned grid for atomic number  77.
 Defaulting to unpruned grid for atomic number  77.
 Defaulting to unpruned grid for atomic number  77.
 Defaulting to unpruned grid for atomic number  77.
 Defaulting to unpruned grid for atomic number  77.
 Defaulting to unpruned grid for atomic number  77.
 Defaulting to unpruned grid for atomic number  77.
 Defaulting to unpruned grid for atomic number  77.
 Defaulting to unpruned grid for atomic number  77.
 Defaulting to unpruned grid for atomic number  77.
 Defaulting to unpruned grid for atomic number  77.
 Defaulting to unpruned grid for atomic number  77.
 Defaulting to unpruned grid for atomic number  77.
 Defaulting to unpruned grid for atomic number  77.
 Defaulting to unpruned grid for atomic number  77.
 Defaulting to unpruned grid for atomic number  77.
 Defaulting to unpruned grid for atomic number  77.
 Defaulting to unpruned grid for atomic number  77.
 Defaulting to unpruned grid for atomic number  77.
 Defaulting to unpruned grid for atomic number  77.
 Defaulting to unpruned grid for atomic number  77.
 Defaulting to unpruned grid for atomic number  77.
 Defaulting to unpruned grid for atomic number  77.
 Defaulting to unpruned grid for atomic number  77.
 Defaulting to unpruned grid for atomic number  77.
 Defaulting to unpruned grid for atomic number  77.
 Defaulting to unpruned grid for atomic number  77.
 Defaulting to unpruned grid for atomic number  77.
 Defaulting to unpruned grid for atomic number  77.
 Defaulting to unpruned grid for atomic number  77.
 Defaulting to unpruned grid for atomic number  77.
 Defaulting to unpruned grid for atomic number  77.
 Defaulting to unpruned grid for atomic number  77.
 Defaulting to unpruned grid for atomic number  77.
 Defaulting to unpruned grid for atomic number  77.
 Defaulting to unpruned grid for atomic number  77.
 Defaulting to unpruned grid for atomic number  77.
 Defaulting to unpruned grid for atomic number  77.
 Defaulting to unpruned grid for atomic number  77.
 EnCoef did     1 forward-backward iterations
 EnCoef did     2 forward-backward iterations
 EnCoef did     8 forward-backward iterations
 SCF Done:  E(RPBE-PBE) =  -1151.53276767     A.U. after   18 cycles
            NFock= 18  Conv=0.10D-08     -V/T= 2.0663

 **********************************************************************

            Population analysis using the SCF Density.

 **********************************************************************

 Orbital symmetries:
       Occupied  (A) (A) (A) (A) (A) (A) (A) (A) (A) (A) (A) (A)
                 (A) (A) (A) (A) (A) (A) (A) (A) (A) (A) (A) (A)
                 (A) (A) (A) (A) (A) (A) (A) (A) (A) (A) (A) (A)
                 (A) (A) (A) (A) (A) (A) (A) (A) (A) (A) (A) (A)
                 (A) (A) (A) (A) (A) (A)
       Virtual   (A) (A) (A) (A) (A) (A) (A) (A) (A) (A) (A) (A)
                 (A) (A) (A) (A) (A) (A) (A) (A) (A) (A) (A) (A)
                 (A) (A) (A) (A) (A) (A) (A) (A) (A) (A) (A) (A)
                 (A) (A) (A) (A) (A) (A) (A) (A) (A) (A) (A) (A)
                 (A) (A) (A) (A) (A) (A) (A) (A) (A) (A) (A) (A)
                 (A) (A) (A) (A) (A) (A) (A) (A) (A) (A) (A) (A)
                 (A) (A) (A) (A) (A) (A) (A) (A) (A) (A) (A) (A)
                 (A) (A) (A) (A) (A) (A) (A) (A) (A) (A) (A) (A)
                 (A) (A) (A) (A) (A) (A) (A) (A) (A) (A) (A) (A)
                 (A) (A) (A) (A) (A) (A) (A) (A) (A) (A) (A) (A)
                 (A) (A) (A) (A) (A) (A) (A) (A) (A) (A) (A) (A)
                 (A) (A) (A) (A) (A) (A) (A) (A) (A) (A) (A) (A)
                 (A) (A) (A) (A) (A) (A) (A) (A) (A) (A) (A) (A)
                 (A) (A) (A) (A) (A) (A) (A) (A) (A) (A) (A) (A)
                 (A) (A) (A) (A) (A) (A) (A) (A) (A) (A) (A) (A)
                 (A) (A) (A) (A) (A) (A) (A) (A) (A) (A) (A) (A)
                 (A) (A) (A) (A) (A) (A) (A) (A) (A) (A) (A) (A)
                 (A) (A) (A) (A) (A) (A) (A) (A) (A) (A) (A) (A)
                 (A) (A) (A) (A) (A) (A) (A) (A) (A) (A) (A) (A)
                 (A) (A) (A) (A) (A) (A) (A) (A) (A) (A) (A) (A)
                 (A) (A) (A) (A) (A) (A) (A) (A) (A) (A) (A) (A)
                 (A) (A) (A) (A) (A) (A) (A) (A) (A) (A) (A) (A)
                 (A) (A) (A) (A) (A) (A) (A) (A) (A) (A) (A) (A)
                 (A) (A) (A) (A) (A) (A) (A) (A)
 The electronic state is 1-A.
 Alpha  occ. eigenvalues --  -76.47684 -76.47652 -18.93704 -14.20734 -10.14026
 Alpha  occ. eigenvalues --  -10.10113 -10.10110 -10.06321 -10.05922 -10.05916
 Alpha  occ. eigenvalues --   -6.49118  -6.49085  -4.70730  -4.70699  -4.70698
 Alpha  occ. eigenvalues --   -4.70664  -4.70443  -4.70412  -3.70461  -2.10288
 Alpha  occ. eigenvalues --   -2.09377  -2.04827  -1.09309  -1.03677  -0.89811
 Alpha  occ. eigenvalues --   -0.86862  -0.77822  -0.76849  -0.74297  -0.73751
 Alpha  occ. eigenvalues --   -0.66838  -0.64827  -0.60942  -0.58944  -0.57243
 Alpha  occ. eigenvalues --   -0.55890  -0.54534  -0.53705  -0.52875  -0.52544
 Alpha  occ. eigenvalues --   -0.52282  -0.51552  -0.49589  -0.49511  -0.48908
 Alpha  occ. eigenvalues --   -0.47777  -0.45283  -0.43963  -0.43815  -0.41033
 Alpha  occ. eigenvalues --   -0.40805  -0.37270  -0.36949  -0.33466
 Alpha virt. eigenvalues --   -0.25520  -0.21858  -0.21150  -0.20235  -0.20141
 Alpha virt. eigenvalues --   -0.15907  -0.15827  -0.14352  -0.14266  -0.12940
 Alpha virt. eigenvalues --   -0.12832  -0.11329  -0.10470  -0.10444  -0.09798
 Alpha virt. eigenvalues --   -0.09435  -0.08544  -0.08157  -0.07154  -0.06760
 Alpha virt. eigenvalues --   -0.06259  -0.05865  -0.05379  -0.04558  -0.04454
 Alpha virt. eigenvalues --   -0.03662  -0.03104  -0.02364  -0.01774  -0.01546
 Alpha virt. eigenvalues --   -0.01276  -0.01162   0.00423   0.00808   0.00967
 Alpha virt. eigenvalues --    0.01109   0.01338   0.01450   0.01815   0.02496
 Alpha virt. eigenvalues --    0.03073   0.03173   0.03871   0.04620   0.04912
 Alpha virt. eigenvalues --    0.05528   0.05802   0.06783   0.06866   0.07230
 Alpha virt. eigenvalues --    0.07674   0.08509   0.09426   0.09516   0.10549
 Alpha virt. eigenvalues --    0.11057   0.11204   0.11714   0.11741   0.12181
 Alpha virt. eigenvalues --    0.13031   0.13351   0.13920   0.14384   0.15182
 Alpha virt. eigenvalues --    0.15233   0.15299   0.15826   0.16343   0.17176
 Alpha virt. eigenvalues --    0.18792   0.19585   0.20258   0.20496   0.21312
 Alpha virt. eigenvalues --    0.23274   0.23900   0.24187   0.24748   0.25291
 Alpha virt. eigenvalues --    0.25303   0.26948   0.27670   0.28599   0.29244
 Alpha virt. eigenvalues --    0.31155   0.31924   0.32081   0.35480   0.35660
 Alpha virt. eigenvalues --    0.36729   0.36898   0.37651   0.38480   0.39498
 Alpha virt. eigenvalues --    0.39630   0.40554   0.40854   0.42223   0.43952
 Alpha virt. eigenvalues --    0.43989   0.46694   0.46899   0.47105   0.47427
 Alpha virt. eigenvalues --    0.48806   0.49509   0.50128   0.50322   0.51234
 Alpha virt. eigenvalues --    0.53143   0.56401   0.56817   0.56882   0.59195
 Alpha virt. eigenvalues --    0.60903   0.62232   0.63467   0.64905   0.65562
 Alpha virt. eigenvalues --    0.66199   0.68000   0.68373   0.69287   0.69794
 Alpha virt. eigenvalues --    0.71419   0.72113   0.72735   0.74468   0.77275
 Alpha virt. eigenvalues --    0.77533   0.78007   0.78699   0.79547   0.80755
 Alpha virt. eigenvalues --    0.84530   0.85522   0.88708   0.89418   0.94109
 Alpha virt. eigenvalues --    0.94535   0.95571   0.97097   0.97545   1.03037
 Alpha virt. eigenvalues --    1.03075   1.03790   1.04684   1.07658   1.07871
 Alpha virt. eigenvalues --    1.09695   1.10598   1.13336   1.14760   1.15581
 Alpha virt. eigenvalues --    1.16726   1.20014   1.22640   1.23215   1.25199
 Alpha virt. eigenvalues --    1.26056   1.27164   1.29683   1.30348   1.30788
 Alpha virt. eigenvalues --    1.33187   1.33475   1.34461   1.35402   1.36854
 Alpha virt. eigenvalues --    1.37190   1.40420   1.40885   1.42214   1.43414
 Alpha virt. eigenvalues --    1.44227   1.45263   1.49362   1.50050   1.50305
 Alpha virt. eigenvalues --    1.50570   1.50961   1.54604   1.55808   1.56338
 Alpha virt. eigenvalues --    1.56877   1.64506   1.65973   1.67047   1.67968
 Alpha virt. eigenvalues --    1.70257   1.70862   1.72919   1.73453   1.76706
 Alpha virt. eigenvalues --    1.79882   1.84026   1.85833   1.86385   1.91744
 Alpha virt. eigenvalues --    1.93638   1.94351   1.94782   1.94943   1.98213
 Alpha virt. eigenvalues --    2.01070   2.08424   2.10786   2.15222   2.19555
 Alpha virt. eigenvalues --    2.23536   2.24435   2.24562   2.25107   2.37128
 Alpha virt. eigenvalues --    2.37384   2.37404   2.41965   2.43749   2.44271
 Alpha virt. eigenvalues --    2.44938   2.47389   2.47808   2.50060   2.51856
 Alpha virt. eigenvalues --    2.53560   2.54609   2.55455   2.56320   2.58391
 Alpha virt. eigenvalues --    2.58819   2.59587   2.60231   2.64095   2.64663
 Alpha virt. eigenvalues --    2.65724   2.66962   2.72124   2.74274   2.76744
 Alpha virt. eigenvalues --    2.80550   2.94059   2.96991   3.02703   3.03628
 Alpha virt. eigenvalues --    3.12368   3.19403   3.30179   3.32028   3.35789
 Alpha virt. eigenvalues --    3.54504   3.62384   3.63234   3.75077   3.79063
 Alpha virt. eigenvalues --    3.83150   4.14959   4.22075   4.75723   4.80167
 Alpha virt. eigenvalues --    4.89945   5.30863   6.82190   6.85299  13.50726
 Alpha virt. eigenvalues --   13.54399  13.63331  13.64243  13.67665  13.72859
 Alpha virt. eigenvalues --   23.23877  23.26835  23.47370  23.57189  23.64523
 Alpha virt. eigenvalues --   23.72461  35.05989  47.03499  47.32805  47.60501
 Alpha virt. eigenvalues --   49.39637 139.41857 162.39866 162.43834
          Condensed to atoms (all electrons):
               1          2          3          4          5          6
     1  Ir  16.952398  -0.408001   0.138908  -0.832448   0.140117  -0.034767
     2  N   -0.408001   7.537928  -0.086434   0.262646  -0.085731   0.005214
     3  P    0.138908  -0.086434  15.074470  -0.317368  -0.173781   0.330038
     4  C   -0.832448   0.262646  -0.317368   7.354283  -0.316363   0.002585
     5  P    0.140117  -0.085731  -0.173781  -0.316363  15.045340   0.003091
     6  H   -0.034767   0.005214   0.330038   0.002585   0.003091   0.639587
     7  H    0.002522  -0.002255   0.334798  -0.031579   0.004946  -0.009699
     8  H   -0.035781   0.003890   0.332309   0.002301   0.002770  -0.036422
     9  H   -0.035938   0.003768   0.002930   0.001972   0.333697  -0.000001
    10  H    0.003867  -0.001823   0.004928  -0.030482   0.331859  -0.000002
    11  H   -0.036069   0.005362   0.003068   0.002978   0.330477  -0.000023
    12  O   -0.071330  -0.006399  -0.003244   0.519828  -0.002759  -0.000026
    13  C   -0.090545   0.146439   0.489811   0.038096  -0.260304  -0.063642
    14  C    0.238239  -0.197268  -0.878874  -0.090338   0.338933   0.049573
    15  C   -0.107841  -0.192897  -0.053793   0.013943  -0.056456   0.009918
    16  C    0.239809  -0.193267   0.333522  -0.090630  -0.833527  -0.007515
    17  C   -0.094358   0.142041  -0.259858   0.037370   0.463975  -0.000334
    18  H    0.000113  -0.137991   0.000408  -0.008847   0.006084   0.007396
    19  H    0.002191   0.021181  -0.001993   0.000087  -0.000119  -0.000026
    20  H    0.000134   0.002633  -0.000076   0.000028  -0.000068  -0.000000
    21  H    0.002239   0.021369  -0.000098   0.000089  -0.002253   0.000001
    22  H    0.000888  -0.140841   0.006455  -0.008903   0.000704  -0.000014
               7          8          9         10         11         12
     1  Ir   0.002522  -0.035781  -0.035938   0.003867  -0.036069  -0.071330
     2  N   -0.002255   0.003890   0.003768  -0.001823   0.005362  -0.006399
     3  P    0.334798   0.332309   0.002930   0.004928   0.003068  -0.003244
     4  C   -0.031579   0.002301   0.001972  -0.030482   0.002978   0.519828
     5  P    0.004946   0.002770   0.333697   0.331859   0.330477  -0.002759
     6  H   -0.009699  -0.036422  -0.000001  -0.000002  -0.000023  -0.000026
     7  H    0.547353  -0.009486  -0.000002  -0.000001  -0.000002   0.003979
     8  H   -0.009486   0.637456  -0.000024  -0.000002  -0.000001  -0.000039
     9  H   -0.000002  -0.000024   0.640372  -0.009715  -0.036547  -0.000031
    10  H   -0.000001  -0.000002  -0.009715   0.547718  -0.010014   0.003673
    11  H   -0.000002  -0.000001  -0.036547  -0.010014   0.638599  -0.000042
    12  O    0.003979  -0.000039  -0.000031   0.003673  -0.000042   7.704675
    13  C    0.012730  -0.061519  -0.000988   0.000703  -0.000581   0.001949
    14  C    0.008682   0.050834  -0.006897  -0.000572  -0.007332   0.000682
    15  C   -0.000091   0.008833   0.010102  -0.000013   0.009108  -0.000119
    16  C   -0.000470  -0.006268   0.050175   0.008803   0.050336   0.000642
    17  C    0.000932  -0.001441  -0.064994   0.012511  -0.061973   0.001869
    18  H    0.001231   0.005526  -0.000014  -0.000006  -0.000014   0.000051
    19  H   -0.000004  -0.000021   0.000001   0.000000   0.000001   0.000000
    20  H   -0.000000  -0.000000   0.000000  -0.000000  -0.000000  -0.000000
    21  H    0.000000   0.000001  -0.000035  -0.000004  -0.000014   0.000000
    22  H   -0.000005  -0.000014   0.007071   0.001104   0.006992   0.000048
              13         14         15         16         17         18
     1  Ir  -0.090545   0.238239  -0.107841   0.239809  -0.094358   0.000113
     2  N    0.146439  -0.197268  -0.192897  -0.193267   0.142041  -0.137991
     3  P    0.489811  -0.878874  -0.053793   0.333522  -0.259858   0.000408
     4  C    0.038096  -0.090338   0.013943  -0.090630   0.037370  -0.008847
     5  P   -0.260304   0.338933  -0.056456  -0.833527   0.463975   0.006084
     6  H   -0.063642   0.049573   0.009918  -0.007515  -0.000334   0.007396
     7  H    0.012730   0.008682  -0.000091  -0.000470   0.000932   0.001231
     8  H   -0.061519   0.050834   0.008833  -0.006268  -0.001441   0.005526
     9  H   -0.000988  -0.006897   0.010102   0.050175  -0.064994  -0.000014
    10  H    0.000703  -0.000572  -0.000013   0.008803   0.012511  -0.000006
    11  H   -0.000581  -0.007332   0.009108   0.050336  -0.061973  -0.000014
    12  O    0.001949   0.000682  -0.000119   0.000642   0.001869   0.000051
    13  C   15.927517  -6.667870  -0.616180   1.077304  -3.698920   0.282165
    14  C   -6.667870  11.579872   0.548032  -1.022377   1.157781   0.098216
    15  C   -0.616180   0.548032   6.636999   0.543165  -0.649978   0.027543
    16  C    1.077304  -1.022377   0.543165  11.341745  -6.385400  -0.003576
    17  C   -3.698920   1.157781  -0.649978  -6.385400  15.631734   0.007701
    18  H    0.282165   0.098216   0.027543  -0.003576   0.007701   0.589885
    19  H    0.014275   0.371718  -0.034487  -0.022611   0.005554  -0.007273
    20  H    0.019520  -0.049727   0.413895  -0.050673   0.019470  -0.000473
    21  H    0.006922  -0.023781  -0.034730   0.375665   0.010438   0.000109
    22  H    0.008422  -0.004746   0.027799   0.104628   0.276248   0.000281
              19         20         21         22
     1  Ir   0.002191   0.000134   0.002239   0.000888
     2  N    0.021181   0.002633   0.021369  -0.140841
     3  P   -0.001993  -0.000076  -0.000098   0.006455
     4  C    0.000087   0.000028   0.000089  -0.008903
     5  P   -0.000119  -0.000068  -0.002253   0.000704
     6  H   -0.000026  -0.000000   0.000001  -0.000014
     7  H   -0.000004  -0.000000   0.000000  -0.000005
     8  H   -0.000021  -0.000000   0.000001  -0.000014
     9  H    0.000001   0.000000  -0.000035   0.007071
    10  H    0.000000  -0.000000  -0.000004   0.001104
    11  H    0.000001  -0.000000  -0.000014   0.006992
    12  O    0.000000  -0.000000   0.000000   0.000048
    13  C    0.014275   0.019520   0.006922   0.008422
    14  C    0.371718  -0.049727  -0.023781  -0.004746
    15  C   -0.034487   0.413895  -0.034730   0.027799
    16  C   -0.022611  -0.050673   0.375665   0.104628
    17  C    0.005554   0.019470   0.010438   0.276248
    18  H   -0.007273  -0.000473   0.000109   0.000281
    19  H    0.478782  -0.007315  -0.000162   0.000110
    20  H   -0.007315   0.472984  -0.007324  -0.000472
    21  H   -0.000162  -0.007324   0.478719  -0.007300
    22  H    0.000110  -0.000472  -0.007300   0.593585
 Mulliken charges:
               1
     1  Ir   1.025653
     2  N    0.300438
     3  P   -0.276127
     4  C   -0.509246
     5  P   -0.270633
     6  H    0.105066
     7  H    0.136420
     8  H    0.107098
     9  H    0.105096
    10  H    0.137468
    11  H    0.105690
    12  O   -0.153408
    13  C   -0.565304
    14  C    0.507222
    15  C   -0.502754
    16  C    0.490519
    17  C   -0.550369
    18  H    0.131484
    19  H    0.180111
    20  H    0.187466
    21  H    0.180150
    22  H    0.127960
 Sum of Mulliken charges =   1.00000
 Mulliken charges with hydrogens summed into heavy atoms:
               1
     1  Ir   1.025653
     2  N    0.300438
     3  P    0.072456
     4  C   -0.509246
     5  P    0.077622
    12  O   -0.153408
    13  C   -0.433820
    14  C    0.687333
    15  C   -0.315288
    16  C    0.670669
    17  C   -0.422410
 Electronic spatial extent (au):  <R**2>=           3173.6308
 Charge=              1.0000 electrons
 Dipole moment (field-independent basis, Debye):
    X=              7.0666    Y=              0.0265    Z=              0.0138  Tot=              7.0667
 Quadrupole moment (field-independent basis, Debye-Ang):
   XX=            -65.4612   YY=            -60.3506   ZZ=            -99.0202
   XY=             -0.0939   XZ=             -0.0019   YZ=             -0.0445
 Traceless Quadrupole moment (field-independent basis, Debye-Ang):
   XX=              9.4828   YY=             14.5934   ZZ=            -24.0762
   XY=             -0.0939   XZ=             -0.0019   YZ=             -0.0445
 Octapole moment (field-independent basis, Debye-Ang**2):
  XXX=             86.9118  YYY=              0.2912  ZZZ=              0.1363  XYY=            -23.7121
  XXY=             -0.0074  XXZ=              0.0495  XZZ=            -36.4005  YZZ=             -0.0293
  YYZ=              0.1320  XYZ=             -0.5163
 Hexadecapole moment (field-independent basis, Debye-Ang**3):
 XXXX=          -2236.7593 YYYY=          -1095.0905 ZZZZ=           -142.6554 XXXY=             -0.7310
 XXXZ=             -0.4057 YYYX=             -1.2882 YYYZ=             -0.2337 ZZZX=              0.1781
 ZZZY=              0.2365 XXYY=           -563.9133 XXZZ=           -527.2389 YYZZ=           -232.2906
 XXYZ=             -1.8381 YYXZ=              0.1090 ZZXY=              0.0258
 N-N= 9.153801512247D+02 E-N=-4.503536332338D+03  KE= 1.079938142147D+03
 Running external command "gaunbo7 R"
         input file       "/local/mvanvleet/pbs.15376.josephine/Gau-366891.EIn"
         output file      "/local/mvanvleet/pbs.15376.josephine/Gau-366891.EOu"
         message file     "/local/mvanvleet/pbs.15376.josephine/Gau-366891.EMs"
         fchk file        "/local/mvanvleet/pbs.15376.josephine/Gau-366891.EFC"
         mat. el file     "/local/mvanvleet/pbs.15376.josephine/Gau-366891.EUF"

 Writing WrtUnf unformatted file "/local/mvanvleet/pbs.15376.josephine/Gau-366891.EUF"
 Gaussian matrix elements                                         Version   2 NLab=11 Len12L=8 Len4L=8
 Write SHELL TO ATOM MAP                   from file      0 offset           0 length                 132 to matrix element file.
 Write SHELL TYPES                         from file      0 offset           0 length                 132 to matrix element file.
 Write NUMBER OF PRIMITIVES PER SHELL      from file      0 offset           0 length                 132 to matrix element file.
 Write PRIMITIVE EXPONENTS                 from file      0 offset           0 length                 239 to matrix element file.
 Write CONTRACTION COEFFICIENTS            from file      0 offset           0 length                 239 to matrix element file.
 Write P(S=P) CONTRACTION COEFFICIENTS     from file      0 offset           0 length                 239 to matrix element file.
 Write COORDINATES OF EACH SHELL           from file      0 offset           0 length                 396 to matrix element file.
 Write BONDS PER ATOM                      from file      0 offset           0 length                  22 to matrix element file.
 Write BONDED ATOMS                        from file      0 offset           0 length                  44 to matrix element file.
 Write BOND TYPES                          from file      0 offset           0 length                  44 to matrix element file.
 Write ONIOM CHARGE/MULT                   from file      0 offset           0 length                  32 to matrix element file.
 Write ONIOM ATOM LAYERS                   from file      0 offset           0 length                  22 to matrix element file.
 Write ONIOM ATOM MODIFIERS                from file      0 offset           0 length                  22 to matrix element file.
 Write ONIOM ATOM TYPES                    from file      0 offset           0 length                  22 to matrix element file.
 Write ONIOM LINK ATOMS                    from file      0 offset           0 length                  22 to matrix element file.
 Write ONIOM LINK CHARGES                  from file      0 offset           0 length                  22 to matrix element file.
 Write ONIOM LINK DISTANCES                from file      0 offset           0 length                  88 to matrix element file.
 Write SYMINF INTS                         from file      0 offset           0 length                  26 to matrix element file.
 Write ROTTR TO SO                         from file      0 offset           0 length                  12 to matrix element file.
 Write GAUSSIAN SCALARS                    from file    501 offset           0 to matrix element file.
 Write OPTIMIZATION FLAGS                  from file      0 offset           0 length                  22 to matrix element file.
 Write INTEGER ISO                         from file      0 offset           0 length                  22 to matrix element file.
 Write INTEGER SPIN                        from file      0 offset           0 length                  22 to matrix element file.
 Write REAL ZEFFECTIVE                     from file      0 offset           0 length                  22 to matrix element file.
 Write REAL QUADRUPOLEMOMENT               from file      0 offset           0 length                  22 to matrix element file.
 Write REAL GFACTOR                        from file      0 offset           0 length                  22 to matrix element file.
 Write REAL ZNUCLEAR                       from file      0 offset           0 length                  22 to matrix element file.
 Write MULLIKEN CHARGES                    from file      0 offset           0 length                  22 to matrix element file.
 Write NUCLEAR GRADIENT                    from file  10584 offset           0 length                  66 to matrix element file.
 Array NUCLEAR FORCE CONSTANTS              on  file  10585 does not exist.
 Write ELECTRIC DIPOLE MOMENT              from file      0 offset           0 length                   3 to matrix element file.
 Write NON-ADIABATIC COUPLING              from file  10810 offset           0 length                  66 to matrix element file.
 Write FINITE EM FIELD                     from file  10521 offset           0 length                  35 to matrix element file.
 Write OVERLAP                             from file  10514 offset           0 length               57291 to matrix element file.
 Write CORE HAMILTONIAN ALPHA              from file  10515 offset           0 length               57291 to matrix element file.
 Write CORE HAMILTONIAN BETA               from file  10515 offset       57291 length               57291 to matrix element file.
 Write KINETIC ENERGY                      from file  10516 offset           0 length               57291 to matrix element file.
 Write ORTHOGONAL BASIS                    from file  10685 offset           0 length              114244 to matrix element file.
 Write DIPOLE INTEGRALS                    from file  10518 offset           0 length              171873 to matrix element file.
 Array DIP VEL INTEGRALS                    on  file  10572 does not exist.
 Array R X DEL INTEGRALS                    on  file  10572 does not exist.
 Write ALPHA ORBITAL ENERGIES              from file      0 offset           0 length                 338 to matrix element file.
 Write ALPHA MO COEFFICIENTS               from file  10524 offset           0 length              114244 to matrix element file.
 Write ALPHA DENSITY MATRIX                from file      0 offset           0 length               57291 to matrix element file.
 Write ALPHA FOCK MATRIX                   from file  10536 offset           0 length               57291 to matrix element file.
 Write ENERGY-WEIGHTED DENSITY             from file  10571 offset           0 length               57291 to matrix element file.
 Write ALPHA SCF DENSITY MATRIX            from file      0 offset           0 length               57291 to matrix element file.
 No 2e integrals to process.
 Perform NBO analysis...executing G16NBO...

 *********************************** NBO 7.0 ***********************************
             N A T U R A L   A T O M I C   O R B I T A L   A N D
          N A T U R A L   B O N D   O R B I T A L   A N A L Y S I S
 *************************** Mary Van Vleet (I102706) **************************
  (c) Copyright 1996-2021 Board of Regents of the University of Wisconsin System
      on behalf of the Theoretical Chemistry Institute.  All rights reserved.

          Cite this program [NBO 7.0.10 (8-Feb-2021)] as:

          NBO 7.0.  E. D. Glendening, J. K. Badenhoop, A. E. Reed,
          J. E. Carpenter, J. A. Bohmann, C. M. Morales, P. Karafiloglou,
          C. R. Landis, and F. Weinhold, Theoretical Chemistry Institute,
          University of Wisconsin, Madison, WI (2018)

 Filename set to /local/mvanvleet/pbs.15376.josephine/Gau-366891

 Job title: trans-(H)Ir(PH3)2(CO)


 NATURAL POPULATIONS:  Natural atomic orbital occupancies

  NAO Atom No lang   Type(AO)    Occupancy      Energy
 -------------------------------------------------------
   1   Ir  1  s      Cor( 5s)     1.99998      -3.70417
   2   Ir  1  s      Val( 6s)     0.67640       1.12714
   3   Ir  1  s      Ryd( 9s)     0.00244      18.97327
   4   Ir  1  s      Ryd( 7s)     0.00037       2.02857
   5   Ir  1  s      Ryd(10s)     0.00007      39.59317
   6   Ir  1  s      Ryd( 8s)     0.00004       4.68446
   7   Ir  1  px     Cor( 5p)     1.99984      -2.10184
   8   Ir  1  px     Ryd( 7p)     0.00100       2.61775
   9   Ir  1  px     Ryd( 6p)     0.00054       1.51311
  10   Ir  1  px     Ryd( 8p)     0.00038       7.13700
  11   Ir  1  px     Ryd( 9p)     0.00004      36.87715
  12   Ir  1  py     Cor( 5p)     1.99991      -2.09321
  13   Ir  1  py     Ryd( 7p)     0.00438       2.59127
  14   Ir  1  py     Ryd( 6p)     0.00044       1.07800
  15   Ir  1  py     Ryd( 8p)     0.00039       9.27343
  16   Ir  1  py     Ryd( 9p)     0.00001      28.29646
  17   Ir  1  pz     Cor( 5p)     1.99994      -2.04818
  18   Ir  1  pz     Ryd( 7p)     0.00030       1.79171
  19   Ir  1  pz     Ryd( 6p)     0.00181       0.16107
  20   Ir  1  pz     Ryd( 8p)     0.00012       1.48479
  21   Ir  1  pz     Ryd( 9p)     0.00001      43.96166
  22   Ir  1  dxy    Val( 5d)     1.76614      -0.39954
  23   Ir  1  dxy    Ryd( 7d)     0.00469       0.62462
  24   Ir  1  dxy    Ryd( 6d)     0.00048       0.35099
  25   Ir  1  dxz    Val( 5d)     1.67331      -0.35459
  26   Ir  1  dxz    Ryd( 7d)     0.00393       0.42849
  27   Ir  1  dxz    Ryd( 6d)     0.00020       0.19660
  28   Ir  1  dyz    Val( 5d)     1.89274      -0.36375
  29   Ir  1  dyz    Ryd( 7d)     0.00201       0.41010
  30   Ir  1  dyz    Ryd( 6d)     0.00025       0.21529
  31   Ir  1  dx2y2  Val( 5d)     1.25701      -0.36938
  32   Ir  1  dx2y2  Ryd( 7d)     0.00335       3.87201
  33   Ir  1  dx2y2  Ryd( 6d)     0.00071       1.50109
  34   Ir  1  dz2    Val( 5d)     1.89960      -0.35174
  35   Ir  1  dz2    Ryd( 7d)     0.00116       4.14646
  36   Ir  1  dz2    Ryd( 6d)     0.00176       0.45567

  37    N  2  s      Cor( 1s)     1.99999     -14.20725
  38    N  2  s      Val( 2s)     1.34170      -0.59638
  39    N  2  s      Ryd( 4s)     0.00460       5.15968
  40    N  2  s      Ryd( 3s)     0.00026       4.01903
  41    N  2  s      Ryd( 5s)     0.00000      33.11875
  42    N  2  px     Val( 2p)     1.54165      -0.37420
  43    N  2  px     Ryd( 5p)     0.01171      11.97736
  44    N  2  px     Ryd( 3p)     0.00071       9.48402
  45    N  2  px     Ryd( 4p)     0.00001       3.94397
  46    N  2  py     Val( 2p)     1.26072      -0.35599
  47    N  2  py     Ryd( 5p)     0.00325       0.93008
  48    N  2  py     Ryd( 3p)     0.00044       0.50257
  49    N  2  py     Ryd( 4p)     0.00005       4.22879
  50    N  2  pz     Val( 2p)     1.33077      -0.39111
  51    N  2  pz     Ryd( 5p)     0.00468       0.43210
  52    N  2  pz     Ryd( 3p)     0.00017       0.40487
  53    N  2  pz     Ryd( 4p)     0.00002       3.58751
  54    N  2  dxy    Ryd( 3d)     0.00137       2.50839
  55    N  2  dxz    Ryd( 3d)     0.00067       1.84550
  56    N  2  dyz    Ryd( 3d)     0.00045       1.96586
  57    N  2  dx2y2  Ryd( 3d)     0.00040       2.44662
  58    N  2  dz2    Ryd( 3d)     0.00060       2.28529

  59    P  3  s      Cor( 1s)     2.00000     -76.12837
  60    P  3  s      Cor( 2s)     1.99997      -6.83875
  61    P  3  s      Val( 3s)     1.44847      -0.52997
  62    P  3  s      Ryd( 4s)     0.00459       1.88415
  63    P  3  s      Ryd( 5s)     0.00057       5.40048
  64    P  3  s      Ryd( 6s)     0.00000      14.04190
  65    P  3  s      Ryd( 7s)     0.00000     154.14164
  66    P  3  px     Cor( 2p)     2.00000      -4.70694
  67    P  3  px     Val( 3p)     1.05363      -0.30431
  68    P  3  px     Ryd( 4p)     0.00148       0.70076
  69    P  3  px     Ryd( 6p)     0.00020       0.80791
  70    P  3  px     Ryd( 5p)     0.00012       1.12012
  71    P  3  px     Ryd( 7p)     0.00000      13.34458
  72    P  3  py     Cor( 2p)     2.00000      -4.70415
  73    P  3  py     Val( 3p)     1.26449      -0.22737
  74    P  3  py     Ryd( 4p)     0.00467       1.66497
  75    P  3  py     Ryd( 6p)     0.00042       2.32307
  76    P  3  py     Ryd( 5p)     0.00009       0.93369
  77    P  3  py     Ryd( 7p)     0.00000      13.28933
  78    P  3  pz     Cor( 2p)     2.00000      -4.70664
  79    P  3  pz     Val( 3p)     1.02056      -0.30676
  80    P  3  pz     Ryd( 4p)     0.00182       0.35205
  81    P  3  pz     Ryd( 6p)     0.00015       0.54233
  82    P  3  pz     Ryd( 5p)     0.00003       0.83857
  83    P  3  pz     Ryd( 7p)     0.00000      13.44011
  84    P  3  dxy    Ryd( 3d)     0.00805       0.83022
  85    P  3  dxz    Ryd( 3d)     0.00320       0.66543
  86    P  3  dyz    Ryd( 3d)     0.00922       0.74640
  87    P  3  dx2y2  Ryd( 3d)     0.00327       0.80689
  88    P  3  dz2    Ryd( 3d)     0.00341       0.75578

  89    C  4  s      Cor( 1s)     1.99999     -10.14012
  90    C  4  s      Val( 2s)     1.21207      -0.42550
  91    C  4  s      Ryd( 3s)     0.01824       6.95215
  92    C  4  s      Ryd( 4s)     0.00024       8.80539
  93    C  4  s      Ryd( 5s)     0.00007       9.08258
  94    C  4  px     Val( 2p)     0.82776      -0.14234
  95    C  4  px     Ryd( 4p)     0.01734       6.78815
  96    C  4  px     Ryd( 3p)     0.00045       5.08495
  97    C  4  px     Ryd( 5p)     0.00002       3.54092
  98    C  4  py     Val( 2p)     0.66780      -0.28560
  99    C  4  py     Ryd( 4p)     0.00121       0.51523
 100    C  4  py     Ryd( 3p)     0.00024       0.88197
 101    C  4  py     Ryd( 5p)     0.00003       2.35925
 102    C  4  pz     Val( 2p)     0.71789      -0.28348
 103    C  4  pz     Ryd( 4p)     0.00054       0.45367
 104    C  4  pz     Ryd( 3p)     0.00014       0.59514
 105    C  4  pz     Ryd( 5p)     0.00001       2.39187
 106    C  4  dxy    Ryd( 3d)     0.00338       1.50495
 107    C  4  dxz    Ryd( 3d)     0.00403       1.41868
 108    C  4  dyz    Ryd( 3d)     0.00009       1.11589
 109    C  4  dx2y2  Ryd( 3d)     0.00100       2.09746
 110    C  4  dz2    Ryd( 3d)     0.00060       1.43369

 111    P  5  s      Cor( 1s)     2.00000     -76.12838
 112    P  5  s      Cor( 2s)     1.99997      -6.83938
 113    P  5  s      Val( 3s)     1.44980      -0.53077
 114    P  5  s      Ryd( 4s)     0.00460       1.87425
 115    P  5  s      Ryd( 5s)     0.00057       5.39910
 116    P  5  s      Ryd( 6s)     0.00000      14.13253
 117    P  5  s      Ryd( 7s)     0.00000     154.04074
 118    P  5  px     Cor( 2p)     2.00000      -4.70726
 119    P  5  px     Val( 3p)     1.05207      -0.30466
 120    P  5  px     Ryd( 4p)     0.00149       0.70198
 121    P  5  px     Ryd( 6p)     0.00019       0.80327
 122    P  5  px     Ryd( 5p)     0.00012       1.12355
 123    P  5  px     Ryd( 7p)     0.00000      13.34938
 124    P  5  py     Cor( 2p)     2.00000      -4.70445
 125    P  5  py     Val( 3p)     1.26655      -0.22918
 126    P  5  py     Ryd( 4p)     0.00469       1.66926
 127    P  5  py     Ryd( 6p)     0.00042       2.32569
 128    P  5  py     Ryd( 5p)     0.00009       0.94033
 129    P  5  py     Ryd( 7p)     0.00000      13.29512
 130    P  5  pz     Cor( 2p)     2.00000      -4.70697
 131    P  5  pz     Val( 3p)     1.01987      -0.30724
 132    P  5  pz     Ryd( 4p)     0.00183       0.34896
 133    P  5  pz     Ryd( 6p)     0.00014       0.53527
 134    P  5  pz     Ryd( 5p)     0.00003       0.84465
 135    P  5  pz     Ryd( 7p)     0.00000      13.44026
 136    P  5  dxy    Ryd( 3d)     0.00814       0.83384
 137    P  5  dxz    Ryd( 3d)     0.00333       0.67291
 138    P  5  dyz    Ryd( 3d)     0.00898       0.74070
 139    P  5  dx2y2  Ryd( 3d)     0.00307       0.80058
 140    P  5  dz2    Ryd( 3d)     0.00336       0.74896

 141    H  6  s      Val( 1s)     0.92275      -0.26480
 142    H  6  s      Ryd( 2s)     0.00123       0.40584
 143    H  6  s      Ryd( 3s)     0.00007       2.13938
 144    H  6  px     Ryd( 2p)     0.00048       1.37275
 145    H  6  py     Ryd( 2p)     0.00073       1.40583
 146    H  6  pz     Ryd( 2p)     0.00144       1.59719

 147    H  7  s      Val( 1s)     0.90146      -0.24898
 148    H  7  s      Ryd( 2s)     0.00066       0.49523
 149    H  7  s      Ryd( 3s)     0.00008       2.01603
 150    H  7  px     Ryd( 2p)     0.00156       1.75113
 151    H  7  py     Ryd( 2p)     0.00055       1.40171
 152    H  7  pz     Ryd( 2p)     0.00012       1.23846

 153    H  8  s      Val( 1s)     0.92232      -0.26448
 154    H  8  s      Ryd( 2s)     0.00123       0.40963
 155    H  8  s      Ryd( 3s)     0.00007       2.13943
 156    H  8  px     Ryd( 2p)     0.00049       1.37332
 157    H  8  py     Ryd( 2p)     0.00072       1.40394
 158    H  8  pz     Ryd( 2p)     0.00144       1.59864

 159    H  9  s      Val( 1s)     0.92330      -0.26538
 160    H  9  s      Ryd( 2s)     0.00123       0.40782
 161    H  9  s      Ryd( 3s)     0.00007       2.14235
 162    H  9  px     Ryd( 2p)     0.00052       1.37730
 163    H  9  py     Ryd( 2p)     0.00071       1.40135
 164    H  9  pz     Ryd( 2p)     0.00143       1.59403

 165    H 10  s      Val( 1s)     0.90075      -0.24925
 166    H 10  s      Ryd( 2s)     0.00065       0.49635
 167    H 10  s      Ryd( 3s)     0.00008       2.01429
 168    H 10  px     Ryd( 2p)     0.00154       1.74055
 169    H 10  py     Ryd( 2p)     0.00061       1.41069
 170    H 10  pz     Ryd( 2p)     0.00012       1.23697

 171    H 11  s      Val( 1s)     0.92299      -0.26530
 172    H 11  s      Ryd( 2s)     0.00122       0.40535
 173    H 11  s      Ryd( 3s)     0.00007       2.14185
 174    H 11  px     Ryd( 2p)     0.00051       1.37569
 175    H 11  py     Ryd( 2p)     0.00071       1.40018
 176    H 11  pz     Ryd( 2p)     0.00145       1.59880

 177    O 12  s      Cor( 1s)     1.99999     -18.93625
 178    O 12  s      Val( 2s)     1.76637      -0.81557
 179    O 12  s      Ryd( 4s)     0.00467       8.22945
 180    O 12  s      Ryd( 3s)     0.00003       2.12022
 181    O 12  s      Ryd( 5s)     0.00000      48.69920
 182    O 12  px     Val( 2p)     1.54135      -0.41600
 183    O 12  px     Ryd( 3p)     0.00039       1.03639
 184    O 12  px     Ryd( 4p)     0.00022       1.47099
 185    O 12  px     Ryd( 5p)     0.00005       4.70447
 186    O 12  py     Val( 2p)     1.53312      -0.39801
 187    O 12  py     Ryd( 3p)     0.00060       0.32795
 188    O 12  py     Ryd( 4p)     0.00003       1.26378
 189    O 12  py     Ryd( 5p)     0.00001       4.31014
 190    O 12  pz     Val( 2p)     1.56539      -0.39597
 191    O 12  pz     Ryd( 3p)     0.00088       0.31901
 192    O 12  pz     Ryd( 4p)     0.00003       1.27393
 193    O 12  pz     Ryd( 5p)     0.00000       4.27197
 194    O 12  dxy    Ryd( 3d)     0.00172       2.70787
 195    O 12  dxz    Ryd( 3d)     0.00172       2.70456
 196    O 12  dyz    Ryd( 3d)     0.00000       2.56316
 197    O 12  dx2y2  Ryd( 3d)     0.00199       2.99723
 198    O 12  dz2    Ryd( 3d)     0.00068       2.70959

 199    C 13  s      Cor( 1s)     1.99998     -10.10099
 200    C 13  s      Val( 2s)     0.94265      -0.29140
 201    C 13  s      Ryd( 3s)     0.00262       1.07387
 202    C 13  s      Ryd( 4s)     0.00020       3.92446
 203    C 13  s      Ryd( 5s)     0.00004      17.91850
 204    C 13  px     Val( 2p)     1.04230      -0.18275
 205    C 13  px     Ryd( 3p)     0.00618       1.22867
 206    C 13  px     Ryd( 4p)     0.00030       1.28973
 207    C 13  px     Ryd( 5p)     0.00026       2.89021
 208    C 13  py     Val( 2p)     0.99130      -0.20126
 209    C 13  py     Ryd( 3p)     0.00598       1.16247
 210    C 13  py     Ryd( 4p)     0.00027       1.32821
 211    C 13  py     Ryd( 5p)     0.00010       2.70452
 212    C 13  pz     Val( 2p)     0.93395      -0.30200
 213    C 13  pz     Ryd( 3p)     0.00110       0.35684
 214    C 13  pz     Ryd( 4p)     0.00030       0.36365
 215    C 13  pz     Ryd( 5p)     0.00001       2.30956
 216    C 13  dxy    Ryd( 3d)     0.00139       2.04779
 217    C 13  dxz    Ryd( 3d)     0.00055       1.35512
 218    C 13  dyz    Ryd( 3d)     0.00062       1.29583
 219    C 13  dx2y2  Ryd( 3d)     0.00112       2.07431
 220    C 13  dz2    Ryd( 3d)     0.00073       1.69521

 221    C 14  s      Cor( 1s)     1.99998     -10.05901
 222    C 14  s      Val( 2s)     0.98134      -0.26423
 223    C 14  s      Ryd( 3s)     0.00113       0.74827
 224    C 14  s      Ryd( 4s)     0.00004       3.74131
 225    C 14  s      Ryd( 5s)     0.00001      21.59904
 226    C 14  px     Val( 2p)     1.08892      -0.18764
 227    C 14  px     Ryd( 3p)     0.00364       0.67950
 228    C 14  px     Ryd( 4p)     0.00018       1.47983
 229    C 14  px     Ryd( 5p)     0.00011       3.11826
 230    C 14  py     Val( 2p)     1.16718      -0.20304
 231    C 14  py     Ryd( 3p)     0.00492       0.82011
 232    C 14  py     Ryd( 4p)     0.00017       0.86413
 233    C 14  py     Ryd( 5p)     0.00011       2.97694
 234    C 14  pz     Val( 2p)     0.95686      -0.28193
 235    C 14  pz     Ryd( 3p)     0.00030       0.36725
 236    C 14  pz     Ryd( 4p)     0.00015       0.27429
 237    C 14  pz     Ryd( 5p)     0.00000       2.39843
 238    C 14  dxy    Ryd( 3d)     0.00088       2.00919
 239    C 14  dxz    Ryd( 3d)     0.00038       1.39125
 240    C 14  dyz    Ryd( 3d)     0.00040       1.34812
 241    C 14  dx2y2  Ryd( 3d)     0.00092       2.01434
 242    C 14  dz2    Ryd( 3d)     0.00068       1.72558

 243    C 15  s      Cor( 1s)     1.99998     -10.06303
 244    C 15  s      Val( 2s)     0.98061      -0.26265
 245    C 15  s      Ryd( 3s)     0.00117       1.19518
 246    C 15  s      Ryd( 4s)     0.00004       1.57640
 247    C 15  s      Ryd( 5s)     0.00001      19.87931
 248    C 15  px     Val( 2p)     1.19051      -0.20600
 249    C 15  px     Ryd( 4p)     0.00661       0.97078
 250    C 15  px     Ryd( 3p)     0.00014       0.41426
 251    C 15  px     Ryd( 5p)     0.00009       3.19646
 252    C 15  py     Val( 2p)     1.04555      -0.17152
 253    C 15  py     Ryd( 4p)     0.00298       0.62869
 254    C 15  py     Ryd( 3p)     0.00022       1.25252
 255    C 15  py     Ryd( 5p)     0.00017       3.15854
 256    C 15  pz     Val( 2p)     0.89787      -0.28112
 257    C 15  pz     Ryd( 4p)     0.00036       0.38149
 258    C 15  pz     Ryd( 3p)     0.00012       0.14357
 259    C 15  pz     Ryd( 5p)     0.00001       2.48350
 260    C 15  dxy    Ryd( 3d)     0.00076       1.97844
 261    C 15  dxz    Ryd( 3d)     0.00043       1.33344
 262    C 15  dyz    Ryd( 3d)     0.00036       1.41796
 263    C 15  dx2y2  Ryd( 3d)     0.00108       2.04543
 264    C 15  dz2    Ryd( 3d)     0.00064       1.71207

 265    C 16  s      Cor( 1s)     1.99998     -10.05907
 266    C 16  s      Val( 2s)     0.98172      -0.26477
 267    C 16  s      Ryd( 3s)     0.00112       0.75594
 268    C 16  s      Ryd( 4s)     0.00004       3.71485
 269    C 16  s      Ryd( 5s)     0.00001      21.44110
 270    C 16  px     Val( 2p)     1.08798      -0.18753
 271    C 16  px     Ryd( 3p)     0.00363       0.67766
 272    C 16  px     Ryd( 4p)     0.00018       1.47226
 273    C 16  px     Ryd( 5p)     0.00011       3.11776
 274    C 16  py     Val( 2p)     1.16714      -0.20295
 275    C 16  py     Ryd( 3p)     0.00492       0.81875
 276    C 16  py     Ryd( 4p)     0.00017       0.86379
 277    C 16  py     Ryd( 5p)     0.00011       2.97790
 278    C 16  pz     Val( 2p)     0.95713      -0.28194
 279    C 16  pz     Ryd( 3p)     0.00031       0.36672
 280    C 16  pz     Ryd( 4p)     0.00015       0.27638
 281    C 16  pz     Ryd( 5p)     0.00000       2.39810
 282    C 16  dxy    Ryd( 3d)     0.00088       2.00920
 283    C 16  dxz    Ryd( 3d)     0.00037       1.39231
 284    C 16  dyz    Ryd( 3d)     0.00039       1.34917
 285    C 16  dx2y2  Ryd( 3d)     0.00092       2.01434
 286    C 16  dz2    Ryd( 3d)     0.00068       1.72441

 287    C 17  s      Cor( 1s)     1.99998     -10.10095
 288    C 17  s      Val( 2s)     0.94255      -0.29114
 289    C 17  s      Ryd( 3s)     0.00263       1.06245
 290    C 17  s      Ryd( 4s)     0.00020       3.89161
 291    C 17  s      Ryd( 5s)     0.00004      18.10935
 292    C 17  px     Val( 2p)     1.04255      -0.18276
 293    C 17  px     Ryd( 3p)     0.00618       1.23206
 294    C 17  px     Ryd( 4p)     0.00030       1.30258
 295    C 17  px     Ryd( 5p)     0.00025       2.88699
 296    C 17  py     Val( 2p)     0.99214      -0.20111
 297    C 17  py     Ryd( 3p)     0.00599       1.16284
 298    C 17  py     Ryd( 4p)     0.00027       1.33212
 299    C 17  py     Ryd( 5p)     0.00010       2.69711
 300    C 17  pz     Val( 2p)     0.93265      -0.30195
 301    C 17  pz     Ryd( 3p)     0.00111       0.35778
 302    C 17  pz     Ryd( 4p)     0.00029       0.36837
 303    C 17  pz     Ryd( 5p)     0.00001       2.30470
 304    C 17  dxy    Ryd( 3d)     0.00139       2.04974
 305    C 17  dxz    Ryd( 3d)     0.00055       1.35491
 306    C 17  dyz    Ryd( 3d)     0.00063       1.29638
 307    C 17  dx2y2  Ryd( 3d)     0.00112       2.07285
 308    C 17  dz2    Ryd( 3d)     0.00073       1.69352

 309    H 18  s      Val( 1s)     0.78635      -0.12960
 310    H 18  s      Ryd( 2s)     0.00101       0.63644
 311    H 18  s      Ryd( 3s)     0.00019       2.17709
 312    H 18  px     Ryd( 2p)     0.00019       1.91734
 313    H 18  py     Ryd( 2p)     0.00041       2.35175
 314    H 18  pz     Ryd( 2p)     0.00034       1.39308

 315    H 19  s      Val( 1s)     0.74651      -0.09149
 316    H 19  s      Ryd( 2s)     0.00060       0.52454
 317    H 19  s      Ryd( 3s)     0.00014       2.06068
 318    H 19  px     Ryd( 2p)     0.00017       1.93355
 319    H 19  py     Ryd( 2p)     0.00031       2.24182
 320    H 19  pz     Ryd( 2p)     0.00016       1.41192

 321    H 20  s      Val( 1s)     0.75066      -0.08676
 322    H 20  s      Ryd( 2s)     0.00068       0.51019
 323    H 20  s      Ryd( 3s)     0.00015       2.11471
 324    H 20  px     Ryd( 2p)     0.00040       2.39115
 325    H 20  py     Ryd( 2p)     0.00007       1.76259
 326    H 20  pz     Ryd( 2p)     0.00012       1.41124

 327    H 21  s      Val( 1s)     0.74679      -0.09138
 328    H 21  s      Ryd( 2s)     0.00060       0.52489
 329    H 21  s      Ryd( 3s)     0.00014       2.06036
 330    H 21  px     Ryd( 2p)     0.00017       1.93219
 331    H 21  py     Ryd( 2p)     0.00031       2.24176
 332    H 21  pz     Ryd( 2p)     0.00016       1.41188

 333    H 22  s      Val( 1s)     0.78620      -0.12978
 334    H 22  s      Ryd( 2s)     0.00101       0.62635
 335    H 22  s      Ryd( 3s)     0.00019       2.18118
 336    H 22  px     Ryd( 2p)     0.00019       1.91878
 337    H 22  py     Ryd( 2p)     0.00041       2.35287
 338    H 22  pz     Ryd( 2p)     0.00034       1.39371

 [60 electrons found in the effective core potential]


 Summary of Natural Population Analysis:

                                     Natural Population
             Natural    ---------------------------------------------
  Atom No    Charge        Core      Valence    Rydberg      Total
 --------------------------------------------------------------------
   Ir  1   -0.19575     67.99967     9.16520    0.03087    77.19575
    N  2   -0.50424      1.99999     5.47485    0.02940     7.50424
    P  3    0.17159      9.99996     4.78715    0.04130    14.82841
    C  4    0.52687      1.99999     3.42552    0.04762     5.47313
    P  5    0.17067      9.99996     4.78830    0.04107    14.82933
    H  6    0.07329      0.00000     0.92275    0.00396     0.92671
    H  7    0.09558      0.00000     0.90146    0.00297     0.90442
    H  8    0.07373      0.00000     0.92232    0.00396     0.92627
    H  9    0.07275      0.00000     0.92330    0.00396     0.92725
    H 10    0.09625      0.00000     0.90075    0.00300     0.90375
    H 11    0.07305      0.00000     0.92299    0.00395     0.92695
    O 12   -0.41925      1.99999     6.40623    0.01303     8.41925
    C 13    0.06806      1.99998     3.91019    0.02177     5.93194
    C 14   -0.20829      1.99998     4.19430    0.01401     6.20829
    C 15   -0.12970      1.99998     4.11453    0.01519     6.12970
    C 16   -0.20795      1.99998     4.19397    0.01400     6.20795
    C 17    0.06832      1.99998     3.90989    0.02181     5.93168
    H 18    0.21151      0.00000     0.78635    0.00214     0.78849
    H 19    0.25210      0.00000     0.74651    0.00138     0.74790
    H 20    0.24792      0.00000     0.75066    0.00142     0.75208
    H 21    0.25183      0.00000     0.74679    0.00138     0.74817
    H 22    0.21167      0.00000     0.78620    0.00214     0.78833
 ====================================================================
 * Total *  1.00000    103.99948    63.68018    0.32034   168.00000

                                 Natural Population
 ---------------------------------------------------------
   Effective Core            60.00000
   Core                      43.99948 ( 99.9988% of   44)
   Valence                   63.68018 ( 99.5003% of   64)
   Natural Minimal Basis    167.67966 ( 99.8093% of  168)
   Natural Rydberg Basis      0.32034 (  0.1907% of  168)
 ---------------------------------------------------------

    Atom No         Natural Electron Configuration
 ----------------------------------------------------------------------------
     Ir  1      [core]6s( 0.68)5d( 8.49)7p( 0.01)
      N  2      [core]2s( 1.34)2p( 4.13)5p( 0.02)
      P  3      [core]3s( 1.45)3p( 3.34)3d( 0.03)4p( 0.01)
      C  4      [core]2s( 1.21)2p( 2.21)3s( 0.02)3d( 0.01)4p( 0.02)
      P  5      [core]3s( 1.45)3p( 3.34)3d( 0.03)4p( 0.01)
      H  6            1s( 0.92)
      H  7            1s( 0.90)
      H  8            1s( 0.92)
      H  9            1s( 0.92)
      H 10            1s( 0.90)
      H 11            1s( 0.92)
      O 12      [core]2s( 1.77)2p( 4.64)3d( 0.01)
      C 13      [core]2s( 0.94)2p( 2.97)3p( 0.01)
      C 14      [core]2s( 0.98)2p( 3.21)3p( 0.01)
      C 15      [core]2s( 0.98)2p( 3.13)4p( 0.01)
      C 16      [core]2s( 0.98)2p( 3.21)3p( 0.01)
      C 17      [core]2s( 0.94)2p( 2.97)3p( 0.01)
      H 18            1s( 0.79)
      H 19            1s( 0.75)
      H 20            1s( 0.75)
      H 21            1s( 0.75)
      H 22            1s( 0.79)


 NATURAL BOND ORBITAL ANALYSIS:

                            Occupancies       Lewis Structure    Low   High
[...]
                                                     100(r),112(v),55(r),212(r)
                                                     161(r),83(r),215(r),123(r)
                                                     56(r),92(r),155(r),67(r)
                                                     104(r),93(r),308(g),240(r)
                                                     280(v),109(v),101(r),297(g)
                                                     166(r),89(r),168(r),130(r)
                                                     78(v),334(g),150(r),237(r)
                                                     229(r),151(r),218(r),144(r)
                                                     159(r),97(r),128(r),174(r)
                                                     136(r),68(r),66(r),170(r)
                                                     164(r),126(r),202(r),132(r)
                                                     125(r),88(r),129(r),187(r)
                                                     135(r),95(r),167(r),192(r)
                                                     182(r),99(r),153(r),209(r)
                                                     199(r),172(r),223(r),173(r)
                                                     133(r),198(r),208(r),216(r)
                                                     197(r),207(r),184(r),194(r)
                                                     85(r)
 ------ non-Lewis ----------------------------------
   57. BD*( 1) N  2- C 13       0.02215     0.26356
   58. BD*( 2) N  2- C 13       0.47080    -0.20833
   59. BD*( 1) N  2- C 17       0.02216     0.26342
   69. BD*( 1) C 13- C 14       0.02030     0.35890
   70. BD*( 1) C 13- H 18       0.02155     0.20958
   71. BD*( 1) C 14- C 15       0.01420     0.35441
   72. BD*( 2) C 14- C 15       0.27720    -0.15815
   73. BD*( 1) C 14- H 19       0.01319     0.22645
   74. BD*( 1) C 15- C 16       0.01420     0.35436
   75. BD*( 1) C 15- H 20       0.01436     0.23100
   76. BD*( 1) C 16- C 17       0.02029     0.35893
   77. BD*( 2) C 16- C 17       0.26882    -0.16627
   78. BD*( 1) C 16- H 21       0.01319     0.22645
   79. BD*( 1) C 17- H 22       0.02154     0.20958
  106. RY ( 1) N  2             0.00947    13.23541
  107. RY ( 2) N  2             0.00298     1.14384
  108. RY ( 3) N  2             0.00273     0.43796
  109. RY ( 4) N  2             0.00175     1.39626
  110. RY ( 5) N  2             0.00045     1.98081
  111. RY ( 6) N  2             0.00040     0.92403
  112. RY ( 7) N  2             0.00024    13.08336
  113. RY ( 8) N  2             0.00018     2.26559
  114. RY ( 9) N  2             0.00017     1.42919
  115. RY (10) N  2             0.00016     1.93234
  116. RY (11) N  2             0.00005     2.16002
  117. RY (12) N  2             0.00004     0.89568
  118. RY (13) N  2             0.00002     4.25153
  119. RY (14) N  2             0.00000     4.33242
  120. RY (15) N  2             0.00001     8.34124
  121. RY (16) N  2             0.00000    25.56879
  122. RY (17) N  2             0.00000     3.57552
  229. RY ( 1) C 13             0.00658     1.58393
  230. RY ( 2) C 13             0.00365     0.90256
  231. RY ( 3) C 13             0.00265     0.72158
  232. RY ( 4) C 13             0.00078     1.43527
  233. RY ( 5) C 13             0.00042     1.04202
  234. RY ( 6) C 13             0.00036     1.80697
  235. RY ( 7) C 13             0.00022     2.95342
  236. RY ( 8) C 13             0.00018     0.78379
  237. RY ( 9) C 13             0.00012     1.11856
  238. RY (10) C 13             0.00009     1.99707
  239. RY (11) C 13             0.00009     0.32744
  240. RY (12) C 13             0.00006     2.95877
  241. RY (13) C 13             0.00001     4.64123
  242. RY (14) C 13             0.00001     4.89325
  243. RY (15) C 13             0.00001     1.32672
  244. RY (16) C 13             0.00000     2.32071
  245. RY (17) C 13             0.00000    15.97715
  246. RY ( 1) C 14             0.00459     0.94888
  247. RY ( 2) C 14             0.00119     1.30352
  248. RY ( 3) C 14             0.00046     0.54980
  249. RY ( 4) C 14             0.00037     1.16879
  250. RY ( 5) C 14             0.00034     0.91019
  251. RY ( 6) C 14             0.00016     2.13335
  252. RY ( 7) C 14             0.00009     1.49875
  253. RY ( 8) C 14             0.00007     2.78354
  254. RY ( 9) C 14             0.00003     1.52149
  255. RY (10) C 14             0.00002     1.31993
  256. RY (11) C 14             0.00001     2.00813
  257. RY (12) C 14             0.00001     1.40491
  258. RY (13) C 14             0.00001     2.45671
  259. RY (14) C 14             0.00000    11.21751
  260. RY (15) C 14             0.00000     1.25746
  261. RY (16) C 14             0.00000    12.71097
  262. RY (17) C 14             0.00000     1.43026
  263. RY ( 1) C 15             0.00508     1.00480
  264. RY ( 2) C 15             0.00162     1.23996
  265. RY ( 3) C 15             0.00043     1.36825
  266. RY ( 4) C 15             0.00035     0.41378
  267. RY ( 5) C 15             0.00032     1.61899
  268. RY ( 6) C 15             0.00015     3.29469
  269. RY ( 7) C 15             0.00015     1.28868
  270. RY ( 8) C 15             0.00004     2.46278
  271. RY ( 9) C 15             0.00003     2.26048
  272. RY (10) C 15             0.00002     1.31099
  273. RY (11) C 15             0.00001     0.57181
  274. RY (12) C 15             0.00001     4.36093
  275. RY (13) C 15             0.00001     0.88594
  276. RY (14) C 15             0.00000     2.39921
  277. RY (15) C 15             0.00000     2.54619
  278. RY (16) C 15             0.00000     7.64678
  279. RY (17) C 15             0.00000     7.99434
  280. RY ( 1) C 16             0.00459     0.94880
  281. RY ( 2) C 16             0.00119     1.30358
  282. RY ( 3) C 16             0.00045     0.32049
  283. RY ( 4) C 16             0.00038     1.39723
  284. RY ( 5) C 16             0.00034     0.91018
  285. RY ( 6) C 16             0.00016     2.13351
  286. RY ( 7) C 16             0.00009     1.49859
  287. RY ( 8) C 16             0.00007     2.78428
  288. RY ( 9) C 16             0.00003     1.52186
  289. RY (10) C 16             0.00002     1.32227
  290. RY (11) C 16             0.00001     2.00750
  291. RY (12) C 16             0.00001     1.40629
  292. RY (13) C 16             0.00001     2.45838
  293. RY (14) C 16             0.00000    11.24112
  294. RY (15) C 16             0.00000     1.25486
  295. RY (16) C 16             0.00000    12.68530
  296. RY (17) C 16             0.00000     1.43249
  297. RY ( 1) C 17             0.00658     1.58365
  298. RY ( 2) C 17             0.00365     0.90254
  299. RY ( 3) C 17             0.00196     0.70990
  300. RY ( 4) C 17             0.00078     1.43497
  301. RY ( 5) C 17             0.00044     1.06486
  302. RY ( 6) C 17             0.00036     1.80734
  303. RY ( 7) C 17             0.00022     2.95369
  304. RY ( 8) C 17             0.00018     0.78350
  305. RY ( 9) C 17             0.00012     1.11878
  306. RY (10) C 17             0.00009     1.99589
  307. RY (11) C 17             0.00009     0.32078
  308. RY (12) C 17             0.00006     2.95805
  309. RY (13) C 17             0.00001     4.62928
  310. RY (14) C 17             0.00001     4.91007
  311. RY (15) C 17             0.00001     1.32669
  312. RY (16) C 17             0.00000     2.32105
  313. RY (17) C 17             0.00000    15.96932
  314. RY ( 1) H 18             0.00109     0.64108
  315. RY ( 2) H 18             0.00028     1.40531
  316. RY ( 3) H 18             0.00020     2.39677
  317. RY ( 4) H 18             0.00017     1.83450
  318. RY ( 5) H 18             0.00002     2.27745
  319. RY ( 1) H 19             0.00072     0.87413
  320. RY ( 2) H 19             0.00019     1.97803
  321. RY ( 3) H 19             0.00016     1.41728
  322. RY ( 4) H 19             0.00007     1.77910
  323. RY ( 5) H 19             0.00002     2.14601
  324. RY ( 1) H 20             0.00079     0.81949
  325. RY ( 2) H 20             0.00020     2.06771
  326. RY ( 3) H 20             0.00012     1.41694
  327. RY ( 4) H 20             0.00008     1.75898
  328. RY ( 5) H 20             0.00001     2.13849
  329. RY ( 1) H 21             0.00072     0.87399
  330. RY ( 2) H 21             0.00019     1.97821
  331. RY ( 3) H 21             0.00016     1.41727
  332. RY ( 4) H 21             0.00007     1.77913
  333. RY ( 5) H 21             0.00002     2.14593
  334. RY ( 1) H 22             0.00109     0.64109
  335. RY ( 2) H 22             0.00028     1.40531
  336. RY ( 3) H 22             0.00020     2.39678
  337. RY ( 4) H 22             0.00017     1.83435
  338. RY ( 5) H 22             0.00002     2.27750
          -------------------------------
                 Total Lewis   40.47934  ( 96.9061%)
           Valence non-Lewis    1.21395  (  2.9062%)
           Rydberg non-Lewis    0.07842  (  0.1877%)
          -------------------------------
               Total unit  2   41.77171  (100.0000%)
              Charge unit  2    0.22829

 Molecular unit  3  (H3P)
 ------ Lewis --------------------------------------
   12. CR ( 1) P  5             2.00000   -76.12727
   13. CR ( 2) P  5             1.99997    -6.83477
   14. CR ( 3) P  5             2.00000    -4.70430
   15. CR ( 4) P  5             2.00000    -4.70143
   16. CR ( 5) P  5             2.00000    -4.70408
   28. LP ( 1) P  5             1.44733    -0.29332  55(r),106(r),112(r),145(r)
                                                     100(r),212(r),83(r),215(r)
                                                     56(r),123(r),92(r),161(g)
                                                     155(r),104(r),93(r),229(r)
                                                     297(r),101(r),308(r),89(r)
                                                     240(r),168(g),150(r),130(r)
                                                     66(g),68(g),159(r),166(g)
                                                     109(r),237(r),218(r),305(r)
                                                     128(r),97(r),144(r),151(r)
                                                     334(r),67(g),255(r),289(r)
                                                     164(g),132(r),314(r),126(r)
                                                     170(g),136(r),174(g),163(g)
                                                     88(r),187(r),235(r),306(r)
                                                     303(r),125(r),63(r),238(r)
                                                     287(r),118(r),253(r),116(r)
                                                     267(r),338(r),192(r),182(r)
                                                     318(r),173(g),209(v),199(v)
                                                     95(r),135(r),300(r),232(r)
                                                     153(r),202(v),172(g),268(r)
                                                     263(r),285(r),251(r),133(r)
                                                     309(r),241(r),236(r),194(r)
                                                     184(r),286(r),129(r),223(r)
                                                     304(r),258(r),252(r),197(v)
                                                     207(v),292(r),167(g),171(g)
                                                     69(r),99(r),60(r),62(r)
                                                     274(r),216(r),120(r),324(r)
                                                     134(r),205(v),210(v),200(v)
                                                     158(r),310(r),242(r),271(r)
                                                     61(r),230(r),298(r),185(r)
                                                     195(r),190(r),198(v),208(v)
                                                     79(r),280(r),80(r),246(r)
                                                     183(r),193(r),76(r),276(r)
                                                     85(r),279(r),328(r),87(r)
                                                     316(r),245(r),113(r),70(r)
                                                     313(r),94(r),57(r),336(r)
                                                     278(r),71(r),102(r),65(r)
                                                     234(r),250(r),74(r),224(r)
                                                     332(r),322(r),220(r),319(r)
                                                     337(r),284(r),329(r),302(r)
                                                     333(r),90(r),323(r),140(r)
                                                     295(r),191(r),261(r),186(r)
                                                     121(r),91(r),196(r),259(r)
                                                     147(r),307(r)
   41. BD ( 1) P  5- H  9       1.98692    -0.58432  68(g),67(g),55(r),79(r)
                                                     87(r),102(r),94(r),82(r)
                                                     56(r),91(r),81(r),336(r)
                                                     334(r),85(r),154(r),133(r)
                                                     86(r),153(r),80(r),76(r)
                                                     151(r)
   42. BD ( 1) P  5- H 10       1.99017    -0.57941  68(g),66(g),55(r),63(r)
                                                     79(r),87(r),81(r),94(r)
                                                     102(r),83(r),104(r),91(r)
                                                     334(r),89(r),101(r),297(r)
                                                     80(r),129(r),76(r)
   43. BD ( 1) P  5- H 11       1.98695    -0.58428  66(g),67(g),55(r),79(r)
                                                     87(r),102(r),94(r),82(r)
                                                     56(r),91(r),81(r),336(r)
                                                     334(r),85(r),154(r),86(r)
                                                     133(r),153(r),80(r),76(r)
                                                     151(r)
 ------ non-Lewis ----------------------------------
   66. BD*( 1) P  5- H  9       0.05724    -0.02616
   67. BD*( 1) P  5- H 10       0.04210    -0.00946
   68. BD*( 1) P  5- H 11       0.05723    -0.02612
  161. RY ( 1) P  5             0.00715     2.48826
  162. RY ( 2) P  5             0.00579     0.75980
  163. RY ( 3) P  5             0.00436     0.86210
  164. RY ( 4) P  5             0.00099     0.80124
  165. RY ( 5) P  5             0.00072     0.26413
  166. RY ( 6) P  5             0.00063     0.96484
  167. RY ( 7) P  5             0.00024     2.32461
  168. RY ( 8) P  5             0.00016     3.74233
  169. RY ( 9) P  5             0.00009     0.70440
  170. RY (10) P  5             0.00004     0.56444
  171. RY (11) P  5             0.00002     1.69597
  172. RY (12) P  5             0.00001     1.69783
  173. RY (13) P  5             0.00001     1.22161
  174. RY (14) P  5             0.00000     1.48312
  175. RY (15) P  5             0.00000     1.73242
  176. RY (16) P  5             0.00000     0.35103
  177. RY (17) P  5             0.00000    10.91603
  178. RY (18) P  5             0.00000   153.61188
  179. RY (19) P  5             0.00000    12.75904
  180. RY (20) P  5             0.00000    13.39830
  181. RY (21) P  5             0.00000    15.80830
  197. RY ( 1) H  9             0.00137     0.43369
  198. RY ( 2) H  9             0.00018     1.34532
  199. RY ( 3) H  9             0.00011     1.39967
  200. RY ( 4) H  9             0.00009     2.07189
  201. RY ( 5) H  9             0.00003     1.62164
  202. RY ( 1) H 10             0.00075     0.50176
  203. RY ( 2) H 10             0.00012     2.04138
  204. RY ( 3) H 10             0.00010     1.23840
  205. RY ( 4) H 10             0.00006     1.26850
  206. RY ( 5) H 10             0.00004     1.77178
  207. RY ( 1) H 11             0.00137     0.43413
  208. RY ( 2) H 11             0.00018     1.34587
  209. RY ( 3) H 11             0.00011     1.39935
  210. RY ( 4) H 11             0.00009     2.07143
  211. RY ( 5) H 11             0.00003     1.62146
          -------------------------------
                 Total Lewis   17.41134  ( 98.9687%)
           Valence non-Lewis    0.15657  (  0.8900%)
           Rydberg non-Lewis    0.02486  (  0.1413%)
          -------------------------------
               Total unit  3   17.59276  (100.0000%)
              Charge unit  3    0.40724

 $CHOOSE
   LONE 1 4 2 1 5 1 12 1 END
   BOND S 1 3 S 1 4 D 2 13 S 2 17 S 3 6 S 3 7 S 3 8 T 4 12 S 5 9 S 5 10 S 5 11
        S 13 14 S 13 18 D 14 15 S 14 19 S 15 16 S 15 20 D 16 17 S 16 21 S 17 22
        END
 $END

 NBO analysis completed in 5.48 CPU seconds (5 wall seconds)
 Maximum scratch memory used by NBO was 1475025 words (11.25 MB)
 Maximum scratch memory used by G16NBO was 182316 words (1.39 MB)

 Opening RunExU unformatted file "/local/mvanvleet/pbs.15376.josephine/Gau-366891.EUF"
 Read unf file /local/mvanvleet/pbs.15376.josephine/Gau-366891.EUF:
 Label Gaussian matrix elements                                         IVers= 2 NLab= 2 Version=ES64L-G16RevC.01
 Title trans-(H)Ir(PH3)2(CO)                                           
 NAtoms=    22 NBasis=   338 NBsUse=   338 ICharg=     1 Multip=     1 NE=   108 Len12L=8 Len4L=8 IOpCl= 0 ICGU=111
 GAUSSIAN SCALARS                    NI= 1 NR= 1 NTot=       1 LenBuf=    2 NRI=1 N=    1000
 NPA CHARGES                         NI= 0 NR= 1 NTot=      22 LenBuf= 4000 NRI=1 N=      22
 Recovered energy= -1151.56680410     dipole=      2.280101428051      0.000102236582      0.000198692813
 Unable to Open any file for archive entry.
 1\1\GINC-NODE002\POpt\RPBEPBE\GenECP\C6H11Ir1N1O1P2(1+)\MVANVLEET\06-J
 un-2024\1\\# PBEPBE GenECP POpt Pop=NBO7\\trans-(H)Ir(PH3)2(CO)\\1,1\I
 r\N,1,B1\P,1,B2,2,A1\C,1,B3,3,A2,2,D1,0\P,1,B4,2,A3,3,D2,0\H,3,B5,1,A4
 ,2,D3,0\H,3,B6,1,A5,2,D4,0\H,3,B7,1,A6,2,D5,0\H,5,B8,1,A7,2,D6,0\H,5,B
 9,1,A8,2,D7,0\H,5,B10,1,A9,2,D8,0\O,1,B11,3,A10,8,D9,0\C,3,B14,1,A13,2
 ,D12,0\C,13,B15,2,A14,1,D13,0\C,14,B16,13,A15,2,D14,0\C,15,B17,14,A16,
 13,D15,0\C,2,B18,1,A17,3,D16,0\H,13,B19,2,A18,1,D17,0\H,14,B20,13,A19,
 2,D18,0\H,15,B21,14,A20,13,D19,0\H,16,B22,15,A21,14,D20,0\H,17,B23,2,A
 22,1,D21,0\\B1=2.2306312\B2=2.32996298\B4=2.32976781\B5=1.42473191\B6=
 1.42103098\B7=1.4247191\B8=1.42469992\B9=1.42101535\B10=1.42471456\B11
 =3.02575907\B14=3.184566\B15=1.39183189\B16=1.3955999\B17=1.39563678\B
 18=1.36059488\B19=1.08701465\B20=1.09091753\B21=1.09150608\B22=1.09092
 907\B23=1.0870048\A4=118.26947522\A5=117.64869866\A6=118.26592992\A7=1
 18.26360592\A8=117.61590516\A9=118.25834803\A10=90.00882883\A13=68.248
 83021\A14=124.12969793\A15=119.36966468\A16=117.62342552\A17=122.30783
 991\A18=117.5540131\A19=119.01425465\A20=121.19425037\A21=121.60277082
 \A22=117.56210084\D3=60.56454846\D4=180.0440296\D5=299.51780297\D6=60.
 4135296\D7=179.8805021\D8=299.35207022\D9=119.5192005\D14=359.98763663
 \D16=179.98046029\D17=359.94164448\D18=179.99279503\D19=179.99580641\D
 20=180.00080362\D21=0.0084699\B3=1.868\A1=90.\A2=90.\A3=90.\D1=180.\D2
 =-180.\D13=180.\D15=360.\D12=0.\\Version=ES64L-G16RevC.01\State=1-A\HF
 =-1151.5668041\RMSD=3.516e-09\RMSF=2.268e-03\Dipole=0.0000138,-0.00009
 55,2.2801014\Quadrupole=10.1738451,-18.9668387,8.7929935,-0.0022608,-0
 .0006194,0.0008425\PG=C01 [X(C6H11Ir1N1O1P2)]\\@
 The archive entry for this job was punched.


 You don't have to suffer to be a poet.
 Adolescence is enough suffering for anyone.
                             -- John Ciardi
 Job cpu time:       0 days  1 hours 45 minutes 58.8 seconds.
 Elapsed time:       0 days  0 hours  2 minutes 20.5 seconds.
 File lengths (MBytes):  RWF=     73 Int=      0 D2E=      0 Chk=      9 Scr=      1
 Normal termination of Gaussian 16 at Thu Jun  6 11:38:08 2024.
