 Entering Gaussian System, Link 0=/cm/shared/apps//g16/g16
 Input=trans-H_Ir_PH3_2_CO.gjf
 Output=trans-H_Ir_PH3_2_CO.log
 Initial command:
 /cm/shared/apps//g16/l1.exe "/local/mvanvleet/pbs.15352.josephine/Gau-211335.inp" -scrdir="/local/mvanvleet/pbs.15352.josephine/"
 Entering Link 1 = /cm/shared/apps//g16/l1.exe PID=    211338.
  
 Copyright (c) 1988-2019, Gaussian, Inc.  All Rights Reserved.
  
 This is part of the Gaussian(R) 16 program.  It is based on
 the Gaussian(R) 09 system (copyright 2009, Gaussian, Inc.),
 the Gaussian(R) 03 system (copyright 2003, Gaussian, Inc.),
 the Gaussian(R) 98 system (copyright 1998, Gaussian, Inc.),
 the Gaussian(R) 94 system (copyright 1995, Gaussian, Inc.),
 the Gaussian 92(TM) system (copyright 1992, Gaussian, Inc.),
 the Gaussian 90(TM) system (copyright 1990, Gaussian, Inc.),
 the Gaussian 88(TM) system (copyright 1988, Gaussian, Inc.),
 the Gaussian 86(TM) system (copyright 1986, Carnegie Mellon
 University), and the Gaussian 82(TM) system (copyright 1983,
 Carnegie Mellon University). Gaussian is a federally registered
 trademark of Gaussian, Inc.
  
 This software contains proprietary and confidential information,
 including trade secrets, belonging to Gaussian, Inc.
  
 This software is provided under written license and may be
 used, copied, transmitted, or stored only in accord with that
 written license.
  
 The following legend is applicable only to US Government
 contracts under FAR:
  
                    RESTRICTED RIGHTS LEGEND
  
 Use, reproduction and disclosure by the US Government is
 subject to restrictions as set forth in subparagraphs (a)
 and (c) of the Commercial Computer Software - Restricted
 Rights clause in FAR 52.227-19.
  
 Gaussian, Inc.
 340 Quinnipiac St., Bldg. 40, Wallingford CT 06492
  
  
 ---------------------------------------------------------------
 Warning -- This program may not be used in any manner that
 competes with the business of Gaussian, Inc. or will provide
 assistance to any competitor of Gaussian, Inc.  The licensee
 of this program is prohibited from giving any competitor of
 Gaussian, Inc. access to this program.  By using this program,
 the user acknowledges that Gaussian, Inc. is engaged in the
 business of creating and licensing software in the field of
 computational chemistry and represents and warrants to the
 licensee that it is not a competitor of Gaussian, Inc. and that
 it will not use this program in any manner prohibited above.
 ---------------------------------------------------------------
  

 Cite this work as:
 Gaussian 16, Revision C.01,
 M. J. Frisch, G. W. Trucks, H. B. Schlegel, G. E. Scuseria, 
 M. A. Robb, J. R. Cheeseman, G. Scalmani, V. Barone, 
 G. A. Petersson, H. Nakatsuji, X. Li, M. Caricato, A. V. Marenich, 
 J. Bloino, B. G. Janesko, R. Gomperts, B. Mennucci, H. P. Hratchian, 
 J. V. Ortiz, A. F. Izmaylov, J. L. Sonnenberg, D. Williams-Young, 
 F. Ding, F. Lipparini, F. Egidi, J. Goings, B. Peng, A. Petrone, 
 T. Henderson, D. Ranasinghe, V. G. Zakrzewski, J. Gao, N. Rega, 
 G. Zheng, W. Liang, M. Hada, M. Ehara, K. Toyota, R. Fukuda, 
 J. Hasegawa, M. Ishida, T. Nakajima, Y. Honda, O. Kitao, H. Nakai, 
 T. Vreven, K. Throssell, J. A. Montgomery, Jr., J. E. Peralta, 
 F. Ogliaro, M. J. Bearpark, J. J. Heyd, E. N. Brothers, K. N. Kudin, 
 V. N. Staroverov, T. A. Keith, R. Kobayashi, J. Normand, 
 K. Raghavachari, A. P. Rendell, J. C. Burant, S. S. Iyengar, 
 J. Tomasi, M. Cossi, J. M. Millam, M. Klene, C. Adamo, R. Cammi, 
 J. W. Ochterski, R. L. Martin, K. Morokuma, O. Farkas, 
 J. B. Foresman, and D. J. Fox, Gaussian, Inc., Wallingford CT, 2019.
 
 ******************************************
 Gaussian 16:  ES64L-G16RevC.01  3-Jul-2019
                 5-Jun-2024 
 ******************************************
 %nprocshared=48
 Will use up to   48 processors via shared memory.
 %chk=trans-H_Ir_PH3_2_CO.chk
 %mem=16GB
 ------------------------
 # PBEPBE GenECP Pop=NBO7
 ------------------------
 1/38=1,172=1/1;
 2/12=2,17=6,18=5,40=1/2;
 3/5=7,11=2,16=1,17=8,25=1,30=1,74=1009/1,2,3;
 4//1;
 5/5=2,38=5/2;
 6/7=2,8=2,9=2,10=2,28=1,40=1,113=1,114=1,124=3103/1,12;
 99/5=1,9=1/99;
 ---------------------
 trans-(H)Ir(PH3)2(CO)
 ---------------------
 Symbolic Z-matrix:
 Charge =  0 Multiplicity = 1
 Ir
 C                    1    B1
 P                    1    B2       2    A1
 H                    1    B3       3    A2       2    D1       0
 P                    1    B4       2    A3       3    D2       0
 O                    2    B5       1    A4       3    D3       0
 H                    3    B6       1    A5       2    D4       0
 H                    3    B7       1    A6       2    D5       0
 H                    3    B8       1    A7       2    D6       0
 H                    5    B9       1    A8       2    D7       0
 H                    5    B10      1    A9       2    D8       0
 H                    5    B11      1    A10      2    D9       0
       Variables:
  B2                    2.2896                   
  B3                    1.68362                  
  B4                    2.28966                  
  B5                    1.16852                  
  B6                    1.42741                  
  B7                    1.42416                  
  B8                    1.42743                  
  B9                    1.42415                  
  B10                   1.42741                  
  B11                   1.42743                  
  A4                  179.93846                  
  A5                  119.6866                   
  A6                  118.79066                  
  A7                  119.67533                  
  A8                  118.79048                  
  A9                  119.68324                  
  A10                 119.68061                  
  D3                   29.91754                  
  D4                 -120.08695                  
  D5                   -0.12357                  
  D6                  119.82073                  
  D7                    0.09623                  
  D8                  120.05501                  
  D9                 -119.85204                  
       Constants:
  B1                    1.86796                  
  A1                   90.                       
  A2                   90.                       
  A3                   90.                       
  D1                  180.                       
  D2                 -180.                       
 
                          Input orientation:                          
 ---------------------------------------------------------------------
 Center     Atomic      Atomic             Coordinates (Angstroms)
 Number     Number       Type             X           Y           Z
 ---------------------------------------------------------------------
      1         77           0        0.000000    0.000000    0.000000
      2          6           0        0.000000    0.000000    1.867960
      3         15           0        2.289602    0.000000    0.000000
      4          1           0        0.000000    0.000000   -1.683621
      5         15           0       -2.289661    0.000000    0.000000
      6          8           0        0.001088    0.000626    3.036477
      7          1           0        2.996532    1.072977   -0.621657
      8          1           0        2.975493    0.002692    1.248110
      9          1           0        2.996302   -1.075994   -0.616745
     10          1           0       -2.975544    0.002096    1.248106
     11          1           0       -2.996521    1.073362   -0.621081
     12          1           0       -2.996475   -1.075600   -0.617300
 ---------------------------------------------------------------------
                    Distance matrix (angstroms):
                    1          2          3          4          5
     1  Ir   0.000000
     2  C    1.867960   0.000000
     3  P    2.289602   2.954920   0.000000
     4  H    1.683621   3.551581   2.841981   0.000000
     5  P    2.289661   2.954966   4.579263   2.842029   0.000000
     6  O    3.036477   1.168518   3.802300   4.720098   3.803646
     7  H    3.242984   4.040876   1.427406   3.355332   5.429695
     8  H    3.226661   3.039371   1.424160   4.177153   5.411066
     9  H    3.242832   4.038483   1.427432   3.357650   5.429507
    10  H    3.226707   3.039422   5.411057   4.177187   1.424152
    11  H    3.242990   4.040615   5.429635   3.355628   1.427409
    12  H    3.242967   4.038848   5.429602   3.357502   1.427431
                    6          7          8          9         10
     6  O    0.000000
     7  H    4.848151   0.000000
     8  H    3.470640   2.154526   0.000000
     9  H    4.845250   2.148977   2.154456   0.000000
    10  H    3.472551   6.348898   5.951037   6.348456   0.000000
    11  H    4.849139   5.993054   6.348634   6.366606   2.154509
    12  H    4.847033   6.366517   6.348769   5.992777   2.154439
                   11         12
    11  H    0.000000
    12  H    2.148965   0.000000
 Stoichiometry    CH7IrOP2
 Framework group  C1[X(CH7IrOP2)]
 Deg. of freedom    30
 Full point group                 C1      NOp   1
 Largest Abelian subgroup         C1      NOp   1
 Largest concise Abelian subgroup C1      NOp   1
                         Standard orientation:                         
 ---------------------------------------------------------------------
 Center     Atomic      Atomic             Coordinates (Angstroms)
 Number     Number       Type             X           Y           Z
 ---------------------------------------------------------------------
      1         77           0       -0.000114   -0.264339   -0.000006
      2          6           0        0.000273    1.603621    0.000287
      3         15           0        2.289488   -0.264814   -0.000010
      4          1           0       -0.000463   -1.947960   -0.000270
      5         15           0       -2.289776   -0.263864   -0.000002
      6          8           0        0.001603    2.772138   -0.000156
      7          1           0        2.996287   -0.886449   -1.073086
      8          1           0        2.975637    0.983154   -0.002507
      9          1           0        2.996061   -0.881874    1.075886
     10          1           0       -2.975400    0.984384   -0.001901
     11          1           0       -2.996766   -0.884630   -1.073460
     12          1           0       -2.996715   -0.881186    1.075503
 ---------------------------------------------------------------------
 Rotational constants (GHZ):           2.7320984           1.3179761           0.9038818
 General basis read from cards:  (5D, 7F)
 ======================================================================================================
                                       Pseudopotential Parameters
 ======================================================================================================
  Center     Atomic      Valence      Angular      Power
  Number     Number     Electrons     Momentum     of R      Exponent        Coefficient   SO-Coeffient
 ======================================================================================================
    1         77           17
                                      H and up 
                                                     2        1.0000000        0.00000000    0.00000000
                                      S - H
                                                     2       13.6522030      732.26920000    0.00000000
                                                     2        6.8261010       26.48472100    0.00000000
                                      P - H
                                                     2       10.2798680      299.48947400    0.00000000
                                                     2        5.1399340       26.46623400    0.00000000
                                      D - H
                                                     2        7.3498590      124.45759500    0.00000000
                                                     2        3.6749290       14.03599500    0.00000000
                                      F - H
                                                     2        3.0340720       21.53103100    0.00000000
                                      G - H
                                                     2        4.8088570      -21.60759700    0.00000000
    2          6
                                   No pseudopotential on this center.
    3         15
                                   No pseudopotential on this center.
    4          1
                                   No pseudopotential on this center.
    5         15
                                   No pseudopotential on this center.
    6          8
                                   No pseudopotential on this center.
    7          1
                                   No pseudopotential on this center.
    8          1
                                   No pseudopotential on this center.
    9          1
                                   No pseudopotential on this center.
   10          1
                                   No pseudopotential on this center.
   11          1
                                   No pseudopotential on this center.
   12          1
                                   No pseudopotential on this center.
 ======================================================================================================
 There are   189 symmetry adapted cartesian basis functions of A   symmetry.
 There are   182 symmetry adapted basis functions of A   symmetry.
   182 basis functions,   293 primitive gaussians,   189 cartesian basis functions
    34 alpha electrons       34 beta electrons
       nuclear repulsion energy       369.6899822334 Hartrees.
 NAtoms=   12 NActive=   12 NUniq=   12 SFac= 1.00D+00 NAtFMM=   60 NAOKFM=F Big=F
 Integral buffers will be    131072 words long.
 Raffenetti 2 integral format.
 Two-electron integral symmetry is turned on.
 One-electron integrals computed using PRISM.
   1 Symmetry operations used in ECPInt.
 ECPInt:  NShTT=    3240 NPrTT=    9571 LenC2=    3074 LenP2D=    7251.
 LDataN:  DoStor=T MaxTD1= 7 Len=  274
 NBasis=   182 RedAO= T EigKep=  4.64D-04  NBF=   182
 NBsUse=   182 1.00D-06 EigRej= -1.00D+00 NBFU=   182
 Defaulting to unpruned grid for atomic number  77.
 ExpMin= 1.50D-02 ExpMax= 7.75D+04 ExpMxC= 2.65D+03 IAcc=3 IRadAn=         5 AccDes= 0.00D+00
 Harris functional with IExCor= 1009 and IRadAn=       5 diagonalized for initial guess.
 HarFok:  IExCor= 1009 AccDes= 0.00D+00 IRadAn=         5 IDoV= 1 UseB2=F ITyADJ=14
 ICtDFT=  3500011 ScaDFX=  1.000000  1.000000  1.000000  1.000000
 Defaulting to unpruned grid for atomic number  77.
 FoFCou: FMM=F IPFlag=           0 FMFlag=      100000 FMFlg1=           0
         NFxFlg=           0 DoJE=T BraDBF=F KetDBF=T FulRan=T
         wScrn=  0.000000 ICntrl=       500 IOpCl=  0 I1Cent=   200000004 NGrid=           0
         NMat0=    1 NMatS0=      1 NMatT0=    0 NMatD0=    1 NMtDS0=    0 NMtDT0=    0
 Petite list used in FoFCou.
 Keep J ints in memory in canonical form, NReq=187536663.
 Requested convergence on RMS density matrix=1.00D-08 within 128 cycles.
 Requested convergence on MAX density matrix=1.00D-06.
 Requested convergence on             energy=1.00D-06.
 No special actions if energy rises.
 Defaulting to unpruned grid for atomic number  77.
 Defaulting to unpruned grid for atomic number  77.
 Defaulting to unpruned grid for atomic number  77.
 Defaulting to unpruned grid for atomic number  77.
 Defaulting to unpruned grid for atomic number  77.
 Defaulting to unpruned grid for atomic number  77.
 Defaulting to unpruned grid for atomic number  77.
 Defaulting to unpruned grid for atomic number  77.
 Defaulting to unpruned grid for atomic number  77.
 Defaulting to unpruned grid for atomic number  77.
 Defaulting to unpruned grid for atomic number  77.
 Defaulting to unpruned grid for atomic number  77.
 Defaulting to unpruned grid for atomic number  77.
 Defaulting to unpruned grid for atomic number  77.
 Defaulting to unpruned grid for atomic number  77.
 Defaulting to unpruned grid for atomic number  77.
 Defaulting to unpruned grid for atomic number  77.
 Defaulting to unpruned grid for atomic number  77.
 Defaulting to unpruned grid for atomic number  77.
 Defaulting to unpruned grid for atomic number  77.
 Defaulting to unpruned grid for atomic number  77.
 Defaulting to unpruned grid for atomic number  77.
 Defaulting to unpruned grid for atomic number  77.
 Defaulting to unpruned grid for atomic number  77.
 Defaulting to unpruned grid for atomic number  77.
 Defaulting to unpruned grid for atomic number  77.
 Defaulting to unpruned grid for atomic number  77.
 Defaulting to unpruned grid for atomic number  77.
 Defaulting to unpruned grid for atomic number  77.
 Defaulting to unpruned grid for atomic number  77.
 Defaulting to unpruned grid for atomic number  77.
 Defaulting to unpruned grid for atomic number  77.
 Defaulting to unpruned grid for atomic number  77.
 Defaulting to unpruned grid for atomic number  77.
 Defaulting to unpruned grid for atomic number  77.
 Defaulting to unpruned grid for atomic number  77.
 Defaulting to unpruned grid for atomic number  77.
 Defaulting to unpruned grid for atomic number  77.
 Defaulting to unpruned grid for atomic number  77.
 Defaulting to unpruned grid for atomic number  77.
 Defaulting to unpruned grid for atomic number  77.
 Defaulting to unpruned grid for atomic number  77.
 Defaulting to unpruned grid for atomic number  77.
 Defaulting to unpruned grid for atomic number  77.
 Defaulting to unpruned grid for atomic number  77.
 Defaulting to unpruned grid for atomic number  77.
 Defaulting to unpruned grid for atomic number  77.
 Defaulting to unpruned grid for atomic number  77.
 SCF Done:  E(RPBE-PBE) =  -904.312890915     A.U. after   13 cycles
            NFock= 13  Conv=0.48D-08     -V/T= 2.0843

 **********************************************************************

            Population analysis using the SCF Density.

 **********************************************************************

 Orbital symmetries:
       Occupied  (A) (A) (A) (A) (A) (A) (A) (A) (A) (A) (A) (A)
                 (A) (A) (A) (A) (A) (A) (A) (A) (A) (A) (A) (A)
                 (A) (A) (A) (A) (A) (A) (A) (A) (A) (A)
       Virtual   (A) (A) (A) (A) (A) (A) (A) (A) (A) (A) (A) (A)
                 (A) (A) (A) (A) (A) (A) (A) (A) (A) (A) (A) (A)
                 (A) (A) (A) (A) (A) (A) (A) (A) (A) (A) (A) (A)
                 (A) (A) (A) (A) (A) (A) (A) (A) (A) (A) (A) (A)
                 (A) (A) (A) (A) (A) (A) (A) (A) (A) (A) (A) (A)
                 (A) (A) (A) (A) (A) (A) (A) (A) (A) (A) (A) (A)
                 (A) (A) (A) (A) (A) (A) (A) (A) (A) (A) (A) (A)
                 (A) (A) (A) (A) (A) (A) (A) (A) (A) (A) (A) (A)
                 (A) (A) (A) (A) (A) (A) (A) (A) (A) (A) (A) (A)
                 (A) (A) (A) (A) (A) (A) (A) (A) (A) (A) (A) (A)
                 (A) (A) (A) (A) (A) (A) (A) (A) (A) (A) (A) (A)
                 (A) (A) (A) (A) (A) (A) (A) (A) (A) (A) (A) (A)
                 (A) (A) (A) (A)
 The electronic state is 1-A.
 Alpha  occ. eigenvalues --  -76.33565 -76.33563 -18.79567  -9.97286  -6.34865
 Alpha  occ. eigenvalues --   -6.34864  -4.56495  -4.56494  -4.56473  -4.56472
 Alpha  occ. eigenvalues --   -4.56177  -4.56175  -3.53540  -1.92729  -1.92599
 Alpha  occ. eigenvalues --   -1.88323  -1.01314  -0.62900  -0.61896  -0.50717
 Alpha  occ. eigenvalues --   -0.41960  -0.40525  -0.38641  -0.38517  -0.38030
 Alpha  occ. eigenvalues --   -0.37942  -0.37600  -0.37008  -0.29305  -0.24884
 Alpha  occ. eigenvalues --   -0.24093  -0.21363  -0.21112  -0.17438
 Alpha virt. eigenvalues --   -0.07396  -0.05130  -0.04137  -0.01281  -0.01251
 Alpha virt. eigenvalues --   -0.00589  -0.00011   0.00611   0.00818   0.01996
 Alpha virt. eigenvalues --    0.02151   0.03116   0.03442   0.03492   0.04444
 Alpha virt. eigenvalues --    0.04632   0.05798   0.06086   0.07882   0.09324
 Alpha virt. eigenvalues --    0.09631   0.10149   0.11343   0.11756   0.12555
 Alpha virt. eigenvalues --    0.13612   0.15185   0.15261   0.18162   0.18698
 Alpha virt. eigenvalues --    0.18923   0.20147   0.22240   0.24680   0.24902
 Alpha virt. eigenvalues --    0.25609   0.25695   0.27659   0.28815   0.29146
 Alpha virt. eigenvalues --    0.29551   0.29929   0.30240   0.30274   0.33162
 Alpha virt. eigenvalues --    0.33549   0.34992   0.35661   0.39150   0.46423
 Alpha virt. eigenvalues --    0.48102   0.48871   0.49869   0.49980   0.53271
 Alpha virt. eigenvalues --    0.53941   0.56938   0.57747   0.59673   0.60767
 Alpha virt. eigenvalues --    0.61533   0.67346   0.71348   0.71429   0.73054
 Alpha virt. eigenvalues --    0.73407   0.78101   0.81146   0.83544   0.86033
 Alpha virt. eigenvalues --    0.88645   0.88877   0.95737   1.05452   1.08704
 Alpha virt. eigenvalues --    1.10731   1.13409   1.16209   1.20465   1.20727
 Alpha virt. eigenvalues --    1.21010   1.22905   1.27340   1.27905   1.28311
 Alpha virt. eigenvalues --    1.29206   1.29812   1.36504   1.37190   1.37436
 Alpha virt. eigenvalues --    1.43669   1.45246   1.46487   1.47591   1.50182
 Alpha virt. eigenvalues --    1.52517   1.56364   1.56557   1.58194   1.61681
 Alpha virt. eigenvalues --    1.62238   1.64544   1.76229   1.80476   1.81299
 Alpha virt. eigenvalues --    1.94536   1.96243   2.00344   2.06695   2.07869
 Alpha virt. eigenvalues --    2.08068   2.09713   2.41973   2.48665   2.49717
 Alpha virt. eigenvalues --    2.49983   2.51781   2.58325   2.59277   2.64388
 Alpha virt. eigenvalues --    2.71272   2.71995   2.72602   2.73539   2.80192
 Alpha virt. eigenvalues --    3.12755   3.27255   3.27617   3.68794   4.89441
 Alpha virt. eigenvalues --    4.93136   5.50654   6.90808   6.93397  13.64752
 Alpha virt. eigenvalues --   13.67722  13.68428  13.70542  13.75654  13.82829
 Alpha virt. eigenvalues --   23.58323  47.19350  47.43877  47.69589  49.59864
 Alpha virt. eigenvalues --  139.30187 162.46754 162.50288
          Condensed to atoms (all electrons):
               1          2          3          4          5          6
     1  Ir  16.398696  -0.073107   0.234111   0.356778   0.234044  -0.121795
     2  C   -0.073107   5.777327  -0.051710  -0.024906  -0.051753   0.548342
     3  P    0.234111  -0.051710  13.822853   0.020665   0.029185  -0.008945
     4  H    0.356778  -0.024906   0.020665   0.701332   0.020624  -0.002626
     5  P    0.234044  -0.051753   0.029185   0.020624  13.822850  -0.008879
     6  O   -0.121795   0.548342  -0.008945  -0.002626  -0.008879   7.803322
     7  H   -0.030443   0.008132   0.326681  -0.002350  -0.000421   0.000053
     8  H   -0.033419  -0.027482   0.376322   0.000942  -0.000917   0.002808
     9  H   -0.030464   0.008092   0.326704  -0.002329  -0.000423   0.000052
    10  H   -0.033403  -0.027511  -0.000917   0.000942   0.376343   0.002804
    11  H   -0.030454   0.008130  -0.000422  -0.002346   0.326699   0.000052
    12  H   -0.030452   0.008088  -0.000424  -0.002329   0.326708   0.000052
               7          8          9         10         11         12
     1  Ir  -0.030443  -0.033419  -0.030464  -0.033403  -0.030454  -0.030452
     2  C    0.008132  -0.027482   0.008092  -0.027511   0.008130   0.008088
     3  P    0.326681   0.376322   0.326704  -0.000917  -0.000422  -0.000424
     4  H   -0.002350   0.000942  -0.002329   0.000942  -0.002346  -0.002329
     5  P   -0.000421  -0.000917  -0.000423   0.376343   0.326699   0.326708
     6  O    0.000053   0.002808   0.000052   0.002804   0.000052   0.000052
     7  H    0.694562  -0.028988  -0.028383  -0.000003  -0.000022   0.000004
     8  H   -0.028988   0.677302  -0.028978   0.000004  -0.000003  -0.000003
     9  H   -0.028383  -0.028978   0.694582  -0.000003   0.000004  -0.000022
    10  H   -0.000003   0.000004  -0.000003   0.677293  -0.028986  -0.028978
    11  H   -0.000022  -0.000003   0.000004  -0.028986   0.694549  -0.028385
    12  H    0.000004  -0.000003  -0.000022  -0.028978  -0.028385   0.694565
 Mulliken charges:
               1
     1  Ir   0.159909
     2  C   -0.101641
     3  P   -0.074103
     4  H   -0.064396
     5  P   -0.074062
     6  O   -0.215237
     7  H    0.061178
     8  H    0.062411
     9  H    0.061167
    10  H    0.062416
    11  H    0.061184
    12  H    0.061175
 Sum of Mulliken charges =  -0.00000
 Mulliken charges with hydrogens summed into heavy atoms:
               1
     1  Ir   0.095512
     2  C   -0.101641
     3  P    0.110653
     5  P    0.110713
     6  O   -0.215237
 Electronic spatial extent (au):  <R**2>=           1227.4073
 Charge=             -0.0000 electrons
 Dipole moment (field-independent basis, Debye):
    X=             -0.0015    Y=             -0.4326    Z=              0.0009  Tot=              0.4326
 Quadrupole moment (field-independent basis, Debye-Ang):
   XX=            -47.5182   YY=            -73.7357   ZZ=            -66.7997
   XY=             -0.0089   XZ=             -0.0001   YZ=              0.0007
 Traceless Quadrupole moment (field-independent basis, Debye-Ang):
   XX=             15.1664   YY=            -11.0512   ZZ=             -4.1152
   XY=             -0.0089   XZ=             -0.0001   YZ=              0.0007
 Octapole moment (field-independent basis, Debye-Ang**2):
  XXX=             -0.0153  YYY=            -34.5614  ZZZ=              0.0031  XYY=             -0.0152
  XXY=            -10.7823  XXZ=             -0.0005  XZZ=             -0.0021  YZZ=             -6.7996
  YYZ=             -0.0018  XYZ=             -0.0000
 Hexadecapole moment (field-independent basis, Debye-Ang**3):
 XXXX=          -1013.9531 YYYY=           -577.5698 ZZZZ=           -117.8995 XXXY=              0.0052
 XXXZ=             -0.0021 YYYX=             -0.0397 YYYZ=              0.0036 ZZZX=              0.0022
 ZZZY=             -0.0044 XXYY=           -253.5230 XXZZ=           -192.6156 YYZZ=           -101.9986
 XXYZ=              0.0001 YYXZ=             -0.0023 ZZXY=              0.0030
 N-N= 3.696899822334D+02 E-N=-2.854090339602D+03  KE= 8.339848214156D+02
 Running external command "gaunbo7 R"
         input file       "/local/mvanvleet/pbs.15352.josephine/Gau-211338.EIn"
         output file      "/local/mvanvleet/pbs.15352.josephine/Gau-211338.EOu"
         message file     "/local/mvanvleet/pbs.15352.josephine/Gau-211338.EMs"
         fchk file        "/local/mvanvleet/pbs.15352.josephine/Gau-211338.EFC"
         mat. el file     "/local/mvanvleet/pbs.15352.josephine/Gau-211338.EUF"

 Writing WrtUnf unformatted file "/local/mvanvleet/pbs.15352.josephine/Gau-211338.EUF"
 Gaussian matrix elements                                         Version   2 NLab=11 Len12L=8 Len4L=8
 Write SHELL TO ATOM MAP                   from file      0 offset           0 length                  80 to matrix element file.
 Write SHELL TYPES                         from file      0 offset           0 length                  80 to matrix element file.
 Write NUMBER OF PRIMITIVES PER SHELL      from file      0 offset           0 length                  80 to matrix element file.
 Write PRIMITIVE EXPONENTS                 from file      0 offset           0 length                 137 to matrix element file.
 Write CONTRACTION COEFFICIENTS            from file      0 offset           0 length                 137 to matrix element file.
 Write P(S=P) CONTRACTION COEFFICIENTS     from file      0 offset           0 length                 137 to matrix element file.
 Write COORDINATES OF EACH SHELL           from file      0 offset           0 length                 240 to matrix element file.
 Write BONDS PER ATOM                      from file      0 offset           0 length                  12 to matrix element file.
 Write BONDED ATOMS                        from file      0 offset           0 length                  22 to matrix element file.
 Write BOND TYPES                          from file      0 offset           0 length                  22 to matrix element file.
 Write ONIOM CHARGE/MULT                   from file      0 offset           0 length                  32 to matrix element file.
 Write ONIOM ATOM LAYERS                   from file      0 offset           0 length                  12 to matrix element file.
 Write ONIOM ATOM MODIFIERS                from file      0 offset           0 length                  12 to matrix element file.
 Write ONIOM ATOM TYPES                    from file      0 offset           0 length                  12 to matrix element file.
 Write ONIOM LINK ATOMS                    from file      0 offset           0 length                  12 to matrix element file.
 Write ONIOM LINK CHARGES                  from file      0 offset           0 length                  12 to matrix element file.
 Write ONIOM LINK DISTANCES                from file      0 offset           0 length                  48 to matrix element file.
 Write SYMINF INTS                         from file      0 offset           0 length                  26 to matrix element file.
 Write ROTTR TO SO                         from file      0 offset           0 length                  12 to matrix element file.
 Write GAUSSIAN SCALARS                    from file    501 offset           0 to matrix element file.
 Write OPTIMIZATION FLAGS                  from file      0 offset           0 length                  12 to matrix element file.
 Write INTEGER ISO                         from file      0 offset           0 length                  12 to matrix element file.
 Write INTEGER SPIN                        from file      0 offset           0 length                  12 to matrix element file.
 Write REAL ZEFFECTIVE                     from file      0 offset           0 length                  12 to matrix element file.
 Write REAL QUADRUPOLEMOMENT               from file      0 offset           0 length                  12 to matrix element file.
 Write REAL GFACTOR                        from file      0 offset           0 length                  12 to matrix element file.
 Write REAL ZNUCLEAR                       from file      0 offset           0 length                  12 to matrix element file.
 Write MULLIKEN CHARGES                    from file      0 offset           0 length                  12 to matrix element file.
 Write NUCLEAR GRADIENT                    from file  10584 offset           0 length                  36 to matrix element file.
 Array NUCLEAR FORCE CONSTANTS              on  file  10585 does not exist.
 Write ELECTRIC DIPOLE MOMENT              from file      0 offset           0 length                   3 to matrix element file.
 Write NON-ADIABATIC COUPLING              from file  10810 offset           0 length                  36 to matrix element file.
 Write FINITE EM FIELD                     from file  10521 offset           0 length                  35 to matrix element file.
 Write OVERLAP                             from file  10514 offset           0 length               16653 to matrix element file.
 Write CORE HAMILTONIAN ALPHA              from file  10515 offset           0 length               16653 to matrix element file.
 Write CORE HAMILTONIAN BETA               from file  10515 offset       16653 length               16653 to matrix element file.
 Write KINETIC ENERGY                      from file  10516 offset           0 length               16653 to matrix element file.
 Write ORTHOGONAL BASIS                    from file  10685 offset           0 length               33124 to matrix element file.
 Write DIPOLE INTEGRALS                    from file  10518 offset           0 length               49959 to matrix element file.
 Array DIP VEL INTEGRALS                    on  file  10572 does not exist.
 Array R X DEL INTEGRALS                    on  file  10572 does not exist.
 Write ALPHA ORBITAL ENERGIES              from file      0 offset           0 length                 182 to matrix element file.
 Write ALPHA MO COEFFICIENTS               from file  10524 offset           0 length               33124 to matrix element file.
 Write ALPHA DENSITY MATRIX                from file      0 offset           0 length               16653 to matrix element file.
 Write ALPHA FOCK MATRIX                   from file  10536 offset           0 length               16653 to matrix element file.
 Write ENERGY-WEIGHTED DENSITY             from file  10571 offset           0 length               16653 to matrix element file.
 Write ALPHA SCF DENSITY MATRIX            from file      0 offset           0 length               16653 to matrix element file.
 No 2e integrals to process.
 Perform NBO analysis...executing G16NBO...

 *********************************** NBO 7.0 ***********************************
             N A T U R A L   A T O M I C   O R B I T A L   A N D
          N A T U R A L   B O N D   O R B I T A L   A N A L Y S I S
 *************************** Mary Van Vleet (I102706) **************************
  (c) Copyright 1996-2021 Board of Regents of the University of Wisconsin System
      on behalf of the Theoretical Chemistry Institute.  All rights reserved.

          Cite this program [NBO 7.0.10 (8-Feb-2021)] as:

          NBO 7.0.  E. D. Glendening, J. K. Badenhoop, A. E. Reed,
          J. E. Carpenter, J. A. Bohmann, C. M. Morales, P. Karafiloglou,
          C. R. Landis, and F. Weinhold, Theoretical Chemistry Institute,
          University of Wisconsin, Madison, WI (2018)

 Filename set to /local/mvanvleet/pbs.15352.josephine/Gau-211338

 Job title: trans-(H)Ir(PH3)2(CO)


 NATURAL POPULATIONS:  Natural atomic orbital occupancies

  NAO Atom No lang   Type(AO)    Occupancy      Energy
 -------------------------------------------------------
   1   Ir  1  s      Cor( 5s)     1.99998      -3.53504
   2   Ir  1  s      Val( 6s)     0.73624       1.07403
   3   Ir  1  s      Ryd( 9s)     0.01010      13.18888
   4   Ir  1  s      Ryd( 8s)     0.00036       9.61491
   5   Ir  1  s      Ryd( 7s)     0.00007       9.29788
   6   Ir  1  s      Ryd(10s)     0.00001      53.44965
   7   Ir  1  px     Cor( 5p)     1.99992      -1.92546
   8   Ir  1  px     Ryd( 7p)     0.00375       1.97339
   9   Ir  1  px     Ryd( 6p)     0.00060       1.40451
  10   Ir  1  px     Ryd( 8p)     0.00031      12.58292
  11   Ir  1  px     Ryd( 9p)     0.00002      26.96163
  12   Ir  1  py     Cor( 5p)     1.99982      -1.92626
  13   Ir  1  py     Ryd( 7p)     0.00260      11.27961
  14   Ir  1  py     Ryd( 6p)     0.00042       4.63468
  15   Ir  1  py     Ryd( 8p)     0.00016       5.49923
  16   Ir  1  py     Ryd( 9p)     0.00002      39.89195
  17   Ir  1  pz     Cor( 5p)     1.99995      -1.88313
  18   Ir  1  pz     Ryd( 7p)     0.00103       1.21994
  19   Ir  1  pz     Ryd( 6p)     0.00116       0.58152
  20   Ir  1  pz     Ryd( 8p)     0.00003       1.91197
  21   Ir  1  pz     Ryd( 9p)     0.00000      44.11491
  22   Ir  1  dxy    Val( 5d)     1.74772      -0.22889
  23   Ir  1  dxy    Ryd( 6d)     0.00221       0.62607
  24   Ir  1  dxy    Ryd( 7d)     0.00048       0.37836
  25   Ir  1  dxz    Val( 5d)     1.87602      -0.19980
  26   Ir  1  dxz    Ryd( 6d)     0.00211       0.58056
  27   Ir  1  dxz    Ryd( 7d)     0.00030       0.32941
  28   Ir  1  dyz    Val( 5d)     1.68729      -0.18786
  29   Ir  1  dyz    Ryd( 6d)     0.00355       0.52546
  30   Ir  1  dyz    Ryd( 7d)     0.00008       0.21971
  31   Ir  1  dx2y2  Val( 5d)     1.38772      -0.24931
  32   Ir  1  dx2y2  Ryd( 6d)     0.00370       1.14322
  33   Ir  1  dx2y2  Ryd( 7d)     0.00059       0.89078
  34   Ir  1  dz2    Val( 5d)     1.90743      -0.19097
  35   Ir  1  dz2    Ryd( 6d)     0.00089       2.20579
  36   Ir  1  dz2    Ryd( 7d)     0.00187       4.01455

  37    C  2  s      Cor( 1s)     1.99998      -9.97268
  38    C  2  s      Val( 2s)     1.26053      -0.18070
  39    C  2  s      Ryd( 3s)     0.04225       2.66574
  40    C  2  s      Ryd( 4s)     0.00036       9.48026
  41    C  2  s      Ryd( 5s)     0.00003      14.88389
  42    C  2  px     Val( 2p)     0.66953      -0.12917
  43    C  2  px     Ryd( 3p)     0.00055       0.72878
  44    C  2  px     Ryd( 4p)     0.00039       0.69875
  45    C  2  px     Ryd( 5p)     0.00006       2.45966
  46    C  2  py     Val( 2p)     0.86574       0.09566
  47    C  2  py     Ryd( 3p)     0.02127       4.10989
  48    C  2  py     Ryd( 4p)     0.00039       5.95596
  49    C  2  py     Ryd( 5p)     0.00014       6.98368
  50    C  2  pz     Val( 2p)     0.71913      -0.12744
  51    C  2  pz     Ryd( 3p)     0.00018       0.66759
  52    C  2  pz     Ryd( 4p)     0.00017       0.65509
  53    C  2  pz     Ryd( 5p)     0.00001       2.41916
  54    C  2  dxy    Ryd( 3d)     0.00387       1.69350
  55    C  2  dxz    Ryd( 3d)     0.00011       1.26698
  56    C  2  dyz    Ryd( 3d)     0.00436       1.66806
  57    C  2  dx2y2  Ryd( 3d)     0.00081       2.07649
  58    C  2  dz2    Ryd( 3d)     0.00051       1.58501

  59    P  3  s      Cor( 1s)     2.00000     -75.98901
  60    P  3  s      Cor( 2s)     1.99997      -6.69501
  61    P  3  s      Val( 3s)     1.43836      -0.38417
  62    P  3  s      Ryd( 4s)     0.00405       2.18729
  63    P  3  s      Ryd( 5s)     0.00093       4.72910
  64    P  3  s      Ryd( 6s)     0.00000      15.56918
  65    P  3  s      Ryd( 7s)     0.00000     153.71277
  66    P  3  px     Cor( 2p)     2.00000      -4.56178
  67    P  3  px     Val( 3p)     1.28713      -0.09410
  68    P  3  px     Ryd( 4p)     0.00583       1.83551
  69    P  3  px     Ryd( 5p)     0.00057       1.96563
  70    P  3  px     Ryd( 6p)     0.00006       1.20958
  71    P  3  px     Ryd( 7p)     0.00000      13.50495
  72    P  3  py     Cor( 2p)     2.00000      -4.56492
  73    P  3  py     Val( 3p)     1.00300      -0.15763
  74    P  3  py     Ryd( 4p)     0.00235       0.55796
  75    P  3  py     Ryd( 5p)     0.00026       0.70412
  76    P  3  py     Ryd( 6p)     0.00005       1.13868
  77    P  3  py     Ryd( 7p)     0.00000      13.52552
  78    P  3  pz     Cor( 2p)     2.00000      -4.56471
  79    P  3  pz     Val( 3p)     1.01016      -0.16210
  80    P  3  pz     Ryd( 4p)     0.00173       0.50182
  81    P  3  pz     Ryd( 5p)     0.00031       0.62252
  82    P  3  pz     Ryd( 6p)     0.00002       1.07443
  83    P  3  pz     Ryd( 7p)     0.00000      13.51594
  84    P  3  dxy    Ryd( 3d)     0.00910       0.89647
  85    P  3  dxz    Ryd( 3d)     0.00922       0.87751
  86    P  3  dyz    Ryd( 3d)     0.00264       0.82059
  87    P  3  dx2y2  Ryd( 3d)     0.00242       1.04165
  88    P  3  dz2    Ryd( 3d)     0.00292       0.88651

  89    H  4  s      Val( 1s)     1.23467      -0.01217
  90    H  4  s      Ryd( 3s)     0.00210       3.61132
  91    H  4  s      Ryd( 2s)     0.00009       2.63265
  92    H  4  px     Ryd( 2p)     0.00016       1.56718
  93    H  4  py     Ryd( 2p)     0.00105       3.76038
  94    H  4  pz     Ryd( 2p)     0.00005       1.46689

  95    P  5  s      Cor( 1s)     2.00000     -75.98902
  96    P  5  s      Cor( 2s)     1.99997      -6.69502
  97    P  5  s      Val( 3s)     1.43838      -0.38418
  98    P  5  s      Ryd( 4s)     0.00405       2.18686
  99    P  5  s      Ryd( 5s)     0.00093       4.72680
 100    P  5  s      Ryd( 6s)     0.00000      15.55835
 101    P  5  s      Ryd( 7s)     0.00000     153.72401
 102    P  5  px     Cor( 2p)     2.00000      -4.56179
 103    P  5  px     Val( 3p)     1.28714      -0.09410
 104    P  5  px     Ryd( 4p)     0.00583       1.83512
 105    P  5  px     Ryd( 5p)     0.00057       1.96593
 106    P  5  px     Ryd( 6p)     0.00006       1.20937
 107    P  5  px     Ryd( 7p)     0.00000      13.50501
 108    P  5  py     Cor( 2p)     2.00000      -4.56493
 109    P  5  py     Val( 3p)     1.00299      -0.15765
 110    P  5  py     Ryd( 4p)     0.00235       0.55805
 111    P  5  py     Ryd( 5p)     0.00026       0.70376
 112    P  5  py     Ryd( 6p)     0.00005       1.13856
 113    P  5  py     Ryd( 7p)     0.00000      13.52555
 114    P  5  pz     Cor( 2p)     2.00000      -4.56472
 115    P  5  pz     Val( 3p)     1.01017      -0.16212
 116    P  5  pz     Ryd( 4p)     0.00173       0.50181
 117    P  5  pz     Ryd( 5p)     0.00031       0.62215
 118    P  5  pz     Ryd( 6p)     0.00002       1.07426
 119    P  5  pz     Ryd( 7p)     0.00000      13.51598
 120    P  5  dxy    Ryd( 3d)     0.00910       0.89636
 121    P  5  dxz    Ryd( 3d)     0.00922       0.87764
 122    P  5  dyz    Ryd( 3d)     0.00263       0.82045
 123    P  5  dx2y2  Ryd( 3d)     0.00243       1.04178
 124    P  5  dz2    Ryd( 3d)     0.00292       0.88643

 125    O  6  s      Cor( 1s)     1.99999     -18.79463
 126    O  6  s      Val( 2s)     1.70376      -0.64124
 127    O  6  s      Ryd( 4s)     0.00634       3.94827
 128    O  6  s      Ryd( 3s)     0.00005       2.12364
 129    O  6  s      Ryd( 5s)     0.00000      48.87191
 130    O  6  px     Val( 2p)     1.53289      -0.27634
 131    O  6  px     Ryd( 3p)     0.00147       0.48534
 132    O  6  px     Ryd( 4p)     0.00002       1.19113
 133    O  6  px     Ryd( 5p)     0.00001       4.57263
 134    O  6  py     Val( 2p)     1.63740      -0.30426
 135    O  6  py     Ryd( 3p)     0.00049       1.08797
 136    O  6  py     Ryd( 4p)     0.00024       1.66693
 137    O  6  py     Ryd( 5p)     0.00004       5.00013
 138    O  6  pz     Val( 2p)     1.56940      -0.27441
 139    O  6  pz     Ryd( 3p)     0.00191       0.47904
 140    O  6  pz     Ryd( 4p)     0.00001       1.18786
 141    O  6  pz     Ryd( 5p)     0.00000       4.53550
 142    O  6  dxy    Ryd( 3d)     0.00261       2.86051
 143    O  6  dxz    Ryd( 3d)     0.00000       2.68047
 144    O  6  dyz    Ryd( 3d)     0.00261       2.85950
 145    O  6  dx2y2  Ryd( 3d)     0.00344       3.18135
 146    O  6  dz2    Ryd( 3d)     0.00117       2.84929

 147    H  7  s      Val( 1s)     0.95397      -0.12990
 148    H  7  s      Ryd( 2s)     0.00209       0.45589
 149    H  7  s      Ryd( 3s)     0.00007       2.22852
 150    H  7  px     Ryd( 2p)     0.00062       1.54278
 151    H  7  py     Ryd( 2p)     0.00061       1.49203
 152    H  7  pz     Ryd( 2p)     0.00148       1.71693

 153    H  8  s      Val( 1s)     0.96149      -0.13157
 154    H  8  s      Ryd( 2s)     0.00155       0.49655
 155    H  8  s      Ryd( 3s)     0.00007       2.31742
 156    H  8  px     Ryd( 2p)     0.00061       1.50713
 157    H  8  py     Ryd( 2p)     0.00198       1.85870
 158    H  8  pz     Ryd( 2p)     0.00015       1.36128

 159    H  9  s      Val( 1s)     0.95396      -0.12993
 160    H  9  s      Ryd( 2s)     0.00209       0.45593
 161    H  9  s      Ryd( 3s)     0.00007       2.22828
 162    H  9  px     Ryd( 2p)     0.00062       1.54266
 163    H  9  py     Ryd( 2p)     0.00060       1.49035
 164    H  9  pz     Ryd( 2p)     0.00149       1.71870

 165    H 10  s      Val( 1s)     0.96148      -0.13159
 166    H 10  s      Ryd( 2s)     0.00155       0.49657
 167    H 10  s      Ryd( 3s)     0.00007       2.31745
 168    H 10  px     Ryd( 2p)     0.00061       1.50692
 169    H 10  py     Ryd( 2p)     0.00198       1.85888
 170    H 10  pz     Ryd( 2p)     0.00015       1.36126

 171    H 11  s      Val( 1s)     0.95396      -0.12991
 172    H 11  s      Ryd( 2s)     0.00209       0.45589
 173    H 11  s      Ryd( 3s)     0.00007       2.22847
 174    H 11  px     Ryd( 2p)     0.00062       1.54280
 175    H 11  py     Ryd( 2p)     0.00060       1.49172
 176    H 11  pz     Ryd( 2p)     0.00148       1.71715

 177    H 12  s      Val( 1s)     0.95396      -0.12994
 178    H 12  s      Ryd( 2s)     0.00209       0.45592
 179    H 12  s      Ryd( 3s)     0.00007       2.22827
 180    H 12  px     Ryd( 2p)     0.00062       1.54273
 181    H 12  py     Ryd( 2p)     0.00060       1.49047
 182    H 12  pz     Ryd( 2p)     0.00149       1.71845

 [60 electrons found in the effective core potential]


 Summary of Natural Population Analysis:

                                     Natural Population
             Natural    ---------------------------------------------
  Atom No    Charge        Core      Valence    Rydberg      Total
 --------------------------------------------------------------------
   Ir  1   -0.37849     67.99967     9.34242    0.03640    77.37849
    C  2    0.40961      1.99998     3.51494    0.07546     5.59039
    P  3    0.21892      9.99997     4.73865    0.04247    14.78108
    H  4   -0.23811      0.00000     1.23467    0.00344     1.23811
    P  5    0.21890      9.99997     4.73867    0.04247    14.78110
    O  6   -0.46384      1.99999     6.44344    0.02041     8.46384
    H  7    0.04117      0.00000     0.95397    0.00486     0.95883
    H  8    0.03415      0.00000     0.96149    0.00436     0.96585
    H  9    0.04118      0.00000     0.95396    0.00486     0.95882
    H 10    0.03416      0.00000     0.96148    0.00436     0.96584
    H 11    0.04118      0.00000     0.95396    0.00486     0.95882
    H 12    0.04118      0.00000     0.95396    0.00486     0.95882
 ====================================================================
 * Total *  0.00000     91.99958    35.75161    0.24881   128.00000

                                 Natural Population
 ---------------------------------------------------------
   Effective Core            60.00000
   Core                      31.99958 ( 99.9987% of   32)
   Valence                   35.75161 ( 99.3100% of   36)
   Natural Minimal Basis    127.75119 ( 99.8056% of  128)
   Natural Rydberg Basis      0.24881 (  0.1944% of  128)
 ---------------------------------------------------------

    Atom No         Natural Electron Configuration
 ----------------------------------------------------------------------------
     Ir  1      [core]6s( 0.74)5d( 8.61)6d( 0.01)7p( 0.01)
      C  2      [core]2s( 1.26)2p( 2.25)3s( 0.04)3p( 0.02)3d( 0.01)
      P  3      [core]3s( 1.44)3p( 3.30)3d( 0.03)4p( 0.01)
      H  4            1s( 1.23)
      P  5      [core]3s( 1.44)3p( 3.30)3d( 0.03)4p( 0.01)
      O  6      [core]2s( 1.70)2p( 4.74)4s( 0.01)3d( 0.01)
      H  7            1s( 0.95)
      H  8            1s( 0.96)
      H  9            1s( 0.95)
      H 10            1s( 0.96)
      H 11            1s( 0.95)
      H 12            1s( 0.95)


 NATURAL BOND ORBITAL ANALYSIS:

                            Occupancies       Lewis Structure    Low   High
         Max    Occ     -------------------  -----------------   occ   occ
  Cycle  Ctr   Thresh    Lewis   non-Lewis     CR  BD  nC  LP    (L)   (NL)
 ============================================================================
    1     2     1.90   125.42479   2.57521     16  13   0   5     4      4
    2     2     1.87   125.42479   2.57521     16  13   0   5     3      4
    3     2     1.78   125.42479   2.57521     16  13   0   5     3      4
    4     2     1.74   125.79723   2.20277     16  11   0   7     3      4
    5     2     1.69   125.79730   2.20270     16  11   0   7     2      4
    6     2     1.57   125.36976   2.63024     16  10   0   8     2      4
    7     2     1.54   124.97110   3.02890     16   9   0   9     1      4
    8     2     1.53   124.50766   3.49234     16   8   0  10     1      4
    9     2     1.52   124.50766   3.49234     16   8   0  10     1      4
   10     2     1.51   124.74611   3.25389     16   8   0  10     0      4
   11     3     1.69   125.79730   2.20270     16  11   0   7     2      4
   12     2     1.69   125.79730   2.20270     16  11   0   7     2      4
 ----------------------------------------------------------------------------

 Strongly delocalized structure accepted

 -------------------------------------------------------
   Effective core           60.00000
   Core                     31.99958 ( 99.999% of  32)
   Valence Lewis            33.79772 ( 93.883% of  36)
  ==================      =============================
   Total Lewis             125.79730 ( 98.279% of 128)
  -----------------------------------------------------
   Valence non-Lewis         2.05196 (  1.603% of 128)
   Rydberg non-Lewis         0.15074 (  0.118% of 128)
  ==================      =============================
   Total non-Lewis           2.20270 (  1.721% of 128)
 -------------------------------------------------------


     (Occupancy)   Bond orbital / Coefficients / Hybrids
 ------------------ Lewis ------------------------------------------------------
   1. (1.99998) CR ( 1)Ir  1            s(100.00%)
                                         1.0000  0.0000  0.0000  0.0000  0.0000
                                         0.0000  0.0000  0.0000  0.0000  0.0000
                                         0.0000  0.0000  0.0000  0.0000  0.0000
                                         0.0000  0.0000  0.0000  0.0000  0.0000
                                         0.0000  0.0000  0.0000  0.0000  0.0000
                                         0.0000  0.0000  0.0000  0.0000  0.0000
                                         0.0000  0.0000  0.0000  0.0000  0.0000
                                         0.0000
   2. (1.99992) CR ( 2)Ir  1            s(  0.00%)p 1.00(100.00%)
                                         0.0000  0.0000  0.0000  0.0000  0.0000
                                         0.0000  1.0000  0.0000  0.0000  0.0000
                                         0.0000  0.0000  0.0000  0.0000  0.0000
                                         0.0000  0.0000  0.0000  0.0000  0.0000
                                         0.0000  0.0000  0.0000  0.0000  0.0000
                                         0.0000  0.0000  0.0000  0.0000  0.0000
                                         0.0000  0.0000  0.0000  0.0000  0.0000
                                         0.0000
   3. (1.99982) CR ( 3)Ir  1            s(  0.00%)p 1.00(100.00%)
                                         0.0000  0.0000  0.0000  0.0000  0.0000
                                         0.0000  0.0000  0.0000  0.0000  0.0000
                                         0.0000  1.0000  0.0000  0.0000  0.0000
                                         0.0000  0.0000  0.0000  0.0000  0.0000
                                         0.0000  0.0000  0.0000  0.0000  0.0000
                                         0.0000  0.0000  0.0000  0.0000  0.0000
                                         0.0000  0.0000  0.0000  0.0000  0.0000
                                         0.0000
   4. (1.99995) CR ( 4)Ir  1            s(  0.00%)p 1.00(100.00%)
                                         0.0000  0.0000  0.0000  0.0000  0.0000
                                         0.0000  0.0000  0.0000  0.0000  0.0000
                                         0.0000  0.0000  0.0000  0.0000  0.0000
                                         0.0000  1.0000  0.0000  0.0000  0.0000
                                         0.0000  0.0000  0.0000  0.0000  0.0000
                                         0.0000  0.0000  0.0000  0.0000  0.0000
                                         0.0000  0.0000  0.0000  0.0000  0.0000
                                         0.0000
   5. (1.99998) CR ( 1) C  2            s(100.00%)
                                         1.0000  0.0000  0.0000  0.0000  0.0000
                                         0.0000  0.0000  0.0000  0.0000  0.0000
                                         0.0000  0.0000  0.0000  0.0000  0.0000
                                         0.0000  0.0000  0.0000  0.0000  0.0000
                                         0.0000  0.0000
   6. (2.00000) CR ( 1) P  3            s(100.00%)
                                         1.0000  0.0000  0.0000  0.0000  0.0000
                                         0.0000  0.0000  0.0000  0.0000  0.0000
                                         0.0000  0.0000  0.0000  0.0000  0.0000
                                         0.0000  0.0000  0.0000  0.0000  0.0000
                                         0.0000  0.0000  0.0000  0.0000  0.0000
                                         0.0000  0.0000  0.0000  0.0000  0.0000
   7. (1.99997) CR ( 2) P  3            s(100.00%)
                                         0.0000  1.0000  0.0000  0.0000  0.0000
                                         0.0000  0.0000  0.0000  0.0000  0.0000
                                         0.0000  0.0000  0.0000  0.0000  0.0000
                                         0.0000  0.0000  0.0000  0.0000  0.0000
                                         0.0000  0.0000  0.0000  0.0000  0.0000
                                         0.0000  0.0000  0.0000  0.0000  0.0000
   8. (2.00000) CR ( 3) P  3            s(  0.00%)p 1.00(100.00%)
                                         0.0000  0.0000  0.0000  0.0000  0.0000
                                         0.0000  0.0000  1.0000  0.0000  0.0000
                                         0.0000  0.0000  0.0000  0.0000  0.0000
                                         0.0000  0.0000  0.0000  0.0000  0.0000
                                         0.0000  0.0000  0.0000  0.0000  0.0000
                                         0.0000  0.0000  0.0000  0.0000  0.0000
   9. (2.00000) CR ( 4) P  3            s(  0.00%)p 1.00(100.00%)
                                         0.0000  0.0000  0.0000  0.0000  0.0000
                                         0.0000  0.0000  0.0000  0.0000  0.0000
                                         0.0000  0.0000  0.0000  1.0000  0.0000
                                         0.0000  0.0000  0.0000  0.0000  0.0000
                                         0.0000  0.0000  0.0000  0.0000  0.0000
                                         0.0000  0.0000  0.0000  0.0000  0.0000
  10. (2.00000) CR ( 5) P  3            s(  0.00%)p 1.00(100.00%)
                                         0.0000  0.0000  0.0000  0.0000  0.0000
                                         0.0000  0.0000  0.0000  0.0000  0.0000
                                         0.0000  0.0000  0.0000  0.0000  0.0000
                                         0.0000  0.0000  0.0000  0.0000  1.0000
                                         0.0000  0.0000  0.0000  0.0000  0.0000
                                         0.0000  0.0000  0.0000  0.0000  0.0000
  11. (2.00000) CR ( 1) P  5            s(100.00%)
                                         1.0000  0.0000  0.0000  0.0000  0.0000
                                         0.0000  0.0000  0.0000  0.0000  0.0000
                                         0.0000  0.0000  0.0000  0.0000  0.0000
                                         0.0000  0.0000  0.0000  0.0000  0.0000
                                         0.0000  0.0000  0.0000  0.0000  0.0000
                                         0.0000  0.0000  0.0000  0.0000  0.0000
  12. (1.99997) CR ( 2) P  5            s(100.00%)
                                         0.0000  1.0000  0.0000  0.0000  0.0000
                                         0.0000  0.0000  0.0000  0.0000  0.0000
                                         0.0000  0.0000  0.0000  0.0000  0.0000
                                         0.0000  0.0000  0.0000  0.0000  0.0000
                                         0.0000  0.0000  0.0000  0.0000  0.0000
                                         0.0000  0.0000  0.0000  0.0000  0.0000
  13. (2.00000) CR ( 3) P  5            s(  0.00%)p 1.00(100.00%)
                                         0.0000  0.0000  0.0000  0.0000  0.0000
                                         0.0000  0.0000  1.0000  0.0000  0.0000
                                         0.0000  0.0000  0.0000  0.0000  0.0000
                                         0.0000  0.0000  0.0000  0.0000  0.0000
                                         0.0000  0.0000  0.0000  0.0000  0.0000
                                         0.0000  0.0000  0.0000  0.0000  0.0000
  14. (2.00000) CR ( 4) P  5            s(  0.00%)p 1.00(100.00%)
                                         0.0000  0.0000  0.0000  0.0000  0.0000
                                         0.0000  0.0000  0.0000  0.0000  0.0000
                                         0.0000  0.0000  0.0000  1.0000  0.0000
                                         0.0000  0.0000  0.0000  0.0000  0.0000
                                         0.0000  0.0000  0.0000  0.0000  0.0000
                                         0.0000  0.0000  0.0000  0.0000  0.0000
  15. (2.00000) CR ( 5) P  5            s(  0.00%)p 1.00(100.00%)
                                         0.0000  0.0000  0.0000  0.0000  0.0000
                                         0.0000  0.0000  0.0000  0.0000  0.0000
                                         0.0000  0.0000  0.0000  0.0000  0.0000
                                         0.0000  0.0000  0.0000  0.0000  1.0000
                                         0.0000  0.0000  0.0000  0.0000  0.0000
                                         0.0000  0.0000  0.0000  0.0000  0.0000
  16. (1.99999) CR ( 1) O  6            s(100.00%)
                                         1.0000  0.0000  0.0000  0.0000  0.0000
                                         0.0000  0.0000  0.0000  0.0000  0.0000
                                         0.0000  0.0000  0.0000  0.0000  0.0000
                                         0.0000  0.0000  0.0000  0.0000  0.0000
                                         0.0000  0.0000
  17. (1.97103) LP ( 1)Ir  1            s(  4.44%)p 0.00(  0.00%)d21.51( 95.56%)
                                         0.0000  0.2030 -0.0561 -0.0069 -0.0003
                                         0.0000  0.0000  0.0000  0.0000  0.0000
                                         0.0000  0.0000 -0.0009  0.0052 -0.0001
                                         0.0008  0.0000  0.0000  0.0000  0.0000
                                         0.0000  0.0003  0.0000  0.0000  0.0001
                                         0.0000  0.0000 -0.0003  0.0000  0.0000
                                        -0.0832  0.0205 -0.0030  0.9735 -0.0029
                                        -0.0237
  18. (1.87606) LP ( 2)Ir  1            s(  0.00%)p 0.00(  0.00%)d 1.00(100.00%)
                                         0.0000  0.0000  0.0000  0.0000  0.0000
                                         0.0000  0.0000  0.0000  0.0000  0.0000
                                         0.0000  0.0000  0.0000  0.0000  0.0000
                                         0.0000  0.0000  0.0000  0.0000  0.0000
                                         0.0000  0.0005  0.0000  0.0000 -1.0000
                                         0.0018 -0.0042  0.0001  0.0000  0.0000
                                         0.0000  0.0000  0.0000  0.0001  0.0000
                                         0.0000
  19. (1.74856) LP ( 3)Ir  1            s(  0.00%)p 1.00(  0.02%)d99.99( 99.98%)
                                         0.0000  0.0000  0.0000  0.0000  0.0000
                                         0.0000  0.0000  0.0119  0.0092  0.0016
                                        -0.0025  0.0000  0.0000  0.0000  0.0000
                                         0.0000  0.0000  0.0000  0.0000  0.0000
                                         0.0000  0.9998  0.0134  0.0082  0.0005
                                         0.0000  0.0000 -0.0001  0.0000  0.0000
                                         0.0003  0.0000  0.0000 -0.0002  0.0000
                                         0.0000
  20. (1.69257) LP ( 4)Ir  1            s(  0.00%)p 1.00(  0.12%)d99.99( 99.88%)
                                         0.0000  0.0000  0.0000  0.0000  0.0000
                                         0.0000  0.0000  0.0000  0.0000  0.0000
                                         0.0000  0.0000  0.0000  0.0000  0.0000
                                         0.0000  0.0000  0.0238 -0.0243  0.0035
                                        -0.0009  0.0001  0.0000  0.0000  0.0001
                                         0.0000  0.0000  0.9984 -0.0441  0.0008
                                         0.0003  0.0000  0.0000  0.0004  0.0000
                                         0.0000
  21. (1.47191) LP ( 1) P  3            s( 25.13%)p 2.98( 74.80%)d 0.00(  0.07%)
                                         0.0000  0.0000  0.5007  0.0169  0.0178
                                        -0.0001  0.0000  0.0000 -0.8638  0.0406
                                        -0.0113 -0.0022  0.0000  0.0000 -0.0111
                                        -0.0009 -0.0016 -0.0006 -0.0001  0.0000
                                        -0.0001  0.0000  0.0000  0.0000  0.0000
                                         0.0007  0.0000  0.0000  0.0232 -0.0126
  22. (1.23569) LP ( 1) H  4            s( 99.92%)p 0.00(  0.08%)
                                         0.9996  0.0000  0.0000  0.0000  0.0288
                                         0.0000
  23. (1.98038) LP ( 1) O  6            s( 55.00%)p 0.82( 44.96%)d 0.00(  0.05%)
                                         0.0000  0.7413  0.0212  0.0014  0.0000
                                         0.0007  0.0000  0.0000  0.0000  0.6704
                                         0.0079 -0.0014  0.0034 -0.0002  0.0000
                                         0.0000  0.0000  0.0000  0.0000  0.0000
                                         0.0186  0.0104
  24. (1.94807) BD ( 1)Ir  1- C  2
               ( 34.49%)   0.5873*Ir  1 s( 43.06%)p 0.00(  0.11%)d 1.32( 56.83%)
                                         0.0000  0.6559 -0.0154  0.0132  0.0002
                                         0.0012  0.0000 -0.0140  0.0044 -0.0017
                                         0.0004  0.0000  0.0286  0.0007  0.0085
                                         0.0038  0.0000  0.0000  0.0000  0.0000
                                         0.0000  0.0003 -0.0015 -0.0012  0.0000
                                         0.0000  0.0000  0.0003  0.0000  0.0000
                                        -0.7267  0.0032 -0.0045 -0.2000  0.0047
                                        -0.0125
               ( 65.51%)   0.8094* C  2 s( 64.42%)p 0.55( 35.57%)d 0.00(  0.01%)
                                         0.0000  0.8026  0.0102  0.0000 -0.0004
                                        -0.0004  0.0000  0.0000  0.0000 -0.5953
                                        -0.0334 -0.0111  0.0016  0.0001  0.0000
                                         0.0000  0.0000  0.0000  0.0000  0.0000
                                        -0.0095 -0.0073
  25. (1.94407) BD ( 1)Ir  1- P  5
               ( 30.48%)   0.5521*Ir  1 s( 52.41%)p 0.00(  0.24%)d 0.90( 47.36%)
                                         0.0000  0.7238  0.0082  0.0081 -0.0001
                                        -0.0009  0.0000 -0.0450  0.0140 -0.0055
                                         0.0013  0.0000  0.0073  0.0036  0.0057
                                         0.0010  0.0000  0.0000  0.0000  0.0000
                                         0.0000  0.0003 -0.0049 -0.0037  0.0000
                                         0.0000  0.0000 -0.0001  0.0000  0.0000
                                         0.6801 -0.0421  0.0080 -0.0920 -0.0154
                                        -0.0226
               ( 69.52%)   0.8338* P  5 s( 38.18%)p 1.62( 61.73%)d 0.00(  0.09%)
                                         0.0000  0.0000  0.6177  0.0051  0.0136
                                         0.0000  0.0000  0.0000  0.7850 -0.0300
                                         0.0118  0.0032  0.0001  0.0000  0.0049
                                        -0.0042 -0.0003 -0.0005 -0.0001  0.0000
                                         0.0000  0.0000  0.0000  0.0000  0.0000
                                         0.0025  0.0000  0.0000  0.0276 -0.0134
  26. (1.99953) BD ( 1) C  2- O  6
               ( 25.02%)   0.5002* C  2 s(  0.00%)p 1.00( 99.47%)d 0.01(  0.53%)
                                         0.0000  0.0005 -0.0001  0.0000  0.0000
                                        -0.0001  0.0000  0.0000  0.0000  0.0008
                                         0.0000  0.0000  0.0000  0.9971 -0.0139
                                        -0.0172 -0.0001  0.0000  0.0001  0.0727
                                         0.0000 -0.0001
               ( 74.98%)   0.8659* O  6 s(  0.00%)p 1.00( 99.83%)d 0.00(  0.17%)
                                         0.0000  0.0004  0.0000  0.0000  0.0000
                                        -0.0001  0.0000  0.0000  0.0000 -0.0001
                                         0.0000  0.0000  0.0000  0.9991 -0.0051
                                         0.0029 -0.0017  0.0000  0.0000 -0.0414
                                         0.0000  0.0000
  27. (1.99893) BD ( 2) C  2- O  6
               ( 25.85%)   0.5084* C  2 s(  0.00%)p 1.00( 99.49%)d 0.01(  0.51%)
                                         0.0000  0.0002  0.0000  0.0000  0.0000
                                        -0.9972 -0.0023  0.0190 -0.0017  0.0010
                                         0.0000  0.0000  0.0000 -0.0001  0.0000
                                         0.0000  0.0000 -0.0717  0.0000  0.0000
                                        -0.0002  0.0000
               ( 74.15%)   0.8611* O  6 s(  0.00%)p 1.00( 99.83%)d 0.00(  0.17%)
                                         0.0000  0.0000  0.0000  0.0000  0.0000
                                        -0.9991  0.0053 -0.0027  0.0021  0.0011
                                         0.0000  0.0000  0.0000 -0.0001  0.0000
                                         0.0000  0.0000  0.0416  0.0000  0.0000
                                         0.0001  0.0000
  28. (1.99887) BD ( 3) C  2- O  6
               ( 31.71%)   0.5631* C  2 s( 36.96%)p 1.70( 62.93%)d 0.00(  0.11%)
                                         0.0000  0.5831 -0.1719 -0.0064 -0.0005
                                         0.0009 -0.0001  0.0000  0.0000  0.7885
                                        -0.0868  0.0068  0.0034 -0.0009  0.0000
                                         0.0000  0.0000  0.0001  0.0000 -0.0001
                                        -0.0278 -0.0172
               ( 68.29%)   0.8264* O  6 s( 45.08%)p 1.21( 54.65%)d 0.01(  0.27%)
                                         0.0000  0.6707 -0.0308 -0.0026 -0.0001
                                        -0.0008  0.0000  0.0000  0.0000 -0.7391
                                         0.0147  0.0061 -0.0013 -0.0003  0.0000
                                         0.0000  0.0000  0.0001  0.0000  0.0000
                                        -0.0446 -0.0262
  29. (1.98905) BD ( 1) P  3- H  7
               ( 53.64%)   0.7324* P  3 s( 24.98%)p 2.98( 74.52%)d 0.02(  0.50%)
                                         0.0000  0.0000  0.4997 -0.0076 -0.0088
                                         0.0002  0.0000  0.0000  0.2944 -0.0013
                                        -0.0054  0.0006 -0.0001  0.0000 -0.4041
                                        -0.0107  0.0032  0.0009  0.0000  0.0000
                                        -0.7033 -0.0181  0.0066  0.0003  0.0001
                                        -0.0295 -0.0499  0.0346  0.0059  0.0209
               ( 46.36%)   0.6809* H  7 s( 99.77%)p 0.00(  0.23%)
                                         0.9988 -0.0101 -0.0004 -0.0231  0.0212
                                         0.0361
  30. (1.98922) BD ( 1) P  3- H  8
               ( 53.31%)   0.7302* P  3 s( 24.95%)p 2.99( 74.52%)d 0.02(  0.54%)
                                         0.0000  0.0000  0.4994 -0.0051 -0.0059
                                        -0.0003  0.0000  0.0000  0.2786  0.0019
                                        -0.0038 -0.0011  0.0003  0.0000  0.8168
                                         0.0192 -0.0030 -0.0005  0.0002  0.0000
                                        -0.0017 -0.0001  0.0000  0.0000  0.0000
                                         0.0578 -0.0001 -0.0002 -0.0297 -0.0336
               ( 46.69%)   0.6833* H  8 s( 99.77%)p 0.00(  0.23%)
                                         0.9988 -0.0087 -0.0004 -0.0239 -0.0419
                                         0.0001
  31. (1.98905) BD ( 1) P  3- H  9
               ( 53.64%)   0.7324* P  3 s( 24.98%)p 2.98( 74.52%)d 0.02(  0.50%)
                                         0.0000  0.0000  0.4996 -0.0076 -0.0088
                                         0.0002  0.0000  0.0000  0.2943 -0.0013
                                        -0.0053  0.0006 -0.0001  0.0000 -0.4011
                                        -0.0107  0.0032  0.0009  0.0000  0.0000
                                         0.7051  0.0181 -0.0066 -0.0003 -0.0001
                                        -0.0293  0.0500 -0.0344  0.0060  0.0212
               ( 46.36%)   0.6809* H  9 s( 99.77%)p 0.00(  0.23%)
                                         0.9988 -0.0101 -0.0004 -0.0230  0.0210
                                        -0.0362
  32. (1.98804) BD ( 1) P  5- H 10
               ( 52.95%)   0.7277* P  5 s( 19.99%)p 3.98( 79.46%)d 0.03(  0.55%)
                                         0.0000  0.0000  0.4470 -0.0057 -0.0073
                                        -0.0003  0.0000  0.0000 -0.3558  0.0009
                                         0.0028  0.0008 -0.0003  0.0000  0.8171
                                         0.0196 -0.0029 -0.0005  0.0002  0.0000
                                        -0.0013  0.0000  0.0000  0.0000  0.0000
                                        -0.0580  0.0001 -0.0001 -0.0325 -0.0323
               ( 47.05%)   0.6859* H 10 s( 99.77%)p 0.00(  0.23%)
                                         0.9988 -0.0087 -0.0004  0.0239 -0.0420
                                         0.0001
  33. (1.98834) BD ( 1) P  5- H 11
               ( 53.32%)   0.7302* P  5 s( 20.92%)p 3.75( 78.57%)d 0.02(  0.50%)
                                         0.0000  0.0000  0.4573 -0.0081 -0.0099
                                         0.0002  0.0000  0.0000 -0.3569  0.0036
                                         0.0045 -0.0008  0.0001  0.0000 -0.4034
                                        -0.0104  0.0032  0.0009  0.0000  0.0000
                                        -0.7036 -0.0181  0.0066  0.0003  0.0001
                                         0.0292  0.0499  0.0346  0.0037  0.0219
               ( 46.68%)   0.6832* H 11 s( 99.77%)p 0.00(  0.23%)
                                         0.9988 -0.0101 -0.0004  0.0231  0.0211
                                         0.0361
  34. (1.98834) BD ( 1) P  5- H 12
               ( 53.32%)   0.7302* P  5 s( 20.92%)p 3.76( 78.57%)d 0.02(  0.50%)
                                         0.0000  0.0000  0.4572 -0.0081 -0.0100
                                         0.0002  0.0000  0.0000 -0.3569  0.0036
                                         0.0045 -0.0008  0.0001  0.0000 -0.4012
                                        -0.0104  0.0032  0.0009  0.0000  0.0000
                                         0.7049  0.0181 -0.0066 -0.0003 -0.0001
                                         0.0291 -0.0500 -0.0344  0.0039  0.0221
               ( 46.68%)   0.6832* H 12 s( 99.77%)p 0.00(  0.23%)
                                         0.9988 -0.0101 -0.0004  0.0231  0.0210
                                        -0.0362
 ---------------- non-Lewis ----------------------------------------------------
  35. (0.68073) BD*( 1)Ir  1- C  2
               ( 65.51%)   0.8094*Ir  1 s( 43.06%)p 0.00(  0.11%)d 1.32( 56.83%)
                                         0.0000  0.6559 -0.0154  0.0132  0.0002
                                         0.0012  0.0000 -0.0140  0.0044 -0.0017
                                         0.0004  0.0000  0.0286  0.0007  0.0085
                                         0.0038  0.0000  0.0000  0.0000  0.0000
                                         0.0000  0.0003 -0.0015 -0.0012  0.0000
                                         0.0000  0.0000  0.0003  0.0000  0.0000
                                        -0.7267  0.0032 -0.0045 -0.2000  0.0047
                                        -0.0125
               ( 34.49%)  -0.5873* C  2 s( 64.42%)p 0.55( 35.57%)d 0.00(  0.01%)
                                         0.0000  0.8026  0.0102  0.0000 -0.0004
                                        -0.0004  0.0000  0.0000  0.0000 -0.5953
                                        -0.0334 -0.0111  0.0016  0.0001  0.0000
                                         0.0000  0.0000  0.0000  0.0000  0.0000
                                        -0.0095 -0.0073
  36. (0.51343) BD*( 1)Ir  1- P  5
               ( 69.52%)   0.8338*Ir  1 s( 52.41%)p 0.00(  0.24%)d 0.90( 47.36%)
                                         0.0000  0.7238  0.0082  0.0081 -0.0001
                                        -0.0009  0.0000 -0.0450  0.0140 -0.0055
                                         0.0013  0.0000  0.0073  0.0036  0.0057
                                         0.0010  0.0000  0.0000  0.0000  0.0000
                                         0.0000  0.0003 -0.0049 -0.0037  0.0000
                                         0.0000  0.0000 -0.0001  0.0000  0.0000
                                         0.6801 -0.0421  0.0080 -0.0920 -0.0154
                                        -0.0226
               ( 30.48%)  -0.5521* P  5 s( 38.18%)p 1.62( 61.73%)d 0.00(  0.09%)
                                         0.0000  0.0000  0.6177  0.0051  0.0136
                                         0.0000  0.0000  0.0000  0.7850 -0.0300
                                         0.0118  0.0032  0.0001  0.0000  0.0049
                                        -0.0042 -0.0003 -0.0005 -0.0001  0.0000
                                         0.0000  0.0000  0.0000  0.0000  0.0000
                                         0.0025  0.0000  0.0000  0.0276 -0.0134
  37. (0.29023) BD*( 1) C  2- O  6
               ( 74.98%)   0.8659* C  2 s(  0.00%)p 1.00( 99.47%)d 0.01(  0.53%)
                                         0.0000  0.0005 -0.0001  0.0000  0.0000
                                        -0.0001  0.0000  0.0000  0.0000  0.0008
                                         0.0000  0.0000  0.0000  0.9971 -0.0139
                                        -0.0172 -0.0001  0.0000  0.0001  0.0727
                                         0.0000 -0.0001
               ( 25.02%)  -0.5002* O  6 s(  0.00%)p 1.00( 99.83%)d 0.00(  0.17%)
                                         0.0000  0.0004  0.0000  0.0000  0.0000
                                        -0.0001  0.0000  0.0000  0.0000 -0.0001
                                         0.0000  0.0000  0.0000  0.9991 -0.0051
                                         0.0029 -0.0017  0.0000  0.0000 -0.0414
                                         0.0000  0.0000
  38. (0.20590) BD*( 2) C  2- O  6
               ( 74.15%)   0.8611* C  2 s(  0.00%)p 1.00( 99.49%)d 0.01(  0.51%)
                                         0.0000  0.0002  0.0000  0.0000  0.0000
                                        -0.9972 -0.0023  0.0190 -0.0017  0.0010
                                         0.0000  0.0000  0.0000 -0.0001  0.0000
                                         0.0000  0.0000 -0.0717  0.0000  0.0000
                                        -0.0002  0.0000
               ( 25.85%)  -0.5084* O  6 s(  0.00%)p 1.00( 99.83%)d 0.00(  0.17%)
                                         0.0000  0.0000  0.0000  0.0000  0.0000
                                        -0.9991  0.0053 -0.0027  0.0021  0.0011
                                         0.0000  0.0000  0.0000 -0.0001  0.0000
                                         0.0000  0.0000  0.0416  0.0000  0.0000
                                         0.0001  0.0000
  39. (0.01056) BD*( 3) C  2- O  6
               ( 68.29%)   0.8264* C  2 s( 36.96%)p 1.70( 62.93%)d 0.00(  0.11%)
                                         0.0000  0.5831 -0.1719 -0.0064 -0.0005
                                         0.0009 -0.0001  0.0000  0.0000  0.7885
                                        -0.0868  0.0068  0.0034 -0.0009  0.0000
                                         0.0000  0.0000  0.0001  0.0000 -0.0001
                                        -0.0278 -0.0172
               ( 31.71%)  -0.5631* O  6 s( 45.08%)p 1.21( 54.65%)d 0.01(  0.27%)
                                         0.0000  0.6707 -0.0308 -0.0026 -0.0001
                                        -0.0008  0.0000  0.0000  0.0000 -0.7391
                                         0.0147  0.0061 -0.0013 -0.0003  0.0000
                                         0.0000  0.0000  0.0001  0.0000  0.0000
                                        -0.0446 -0.0262
  40. (0.06336) BD*( 1) P  3- H  7
               ( 46.36%)   0.6809* P  3 s( 24.98%)p 2.98( 74.52%)d 0.02(  0.50%)
                                         0.0000  0.0000 -0.4997  0.0076  0.0088
                                        -0.0002  0.0000  0.0000 -0.2944  0.0013
                                         0.0054 -0.0006  0.0001  0.0000  0.4041
                                         0.0107 -0.0032 -0.0009  0.0000  0.0000
                                         0.7033  0.0181 -0.0066 -0.0003 -0.0001
                                         0.0295  0.0499 -0.0346 -0.0059 -0.0209
               ( 53.64%)  -0.7324* H  7 s( 99.77%)p 0.00(  0.23%)
                                        -0.9988  0.0101  0.0004  0.0231 -0.0212
                                        -0.0361
  41. (0.06585) BD*( 1) P  3- H  8
               ( 46.69%)   0.6833* P  3 s( 24.95%)p 2.99( 74.52%)d 0.02(  0.54%)
                                         0.0000  0.0000 -0.4994  0.0051  0.0059
                                         0.0003  0.0000  0.0000 -0.2786 -0.0019
                                         0.0038  0.0011 -0.0003  0.0000 -0.8168
                                        -0.0192  0.0030  0.0005 -0.0002  0.0000
                                         0.0017  0.0001  0.0000  0.0000  0.0000
                                        -0.0578  0.0001  0.0002  0.0297  0.0336
               ( 53.31%)  -0.7302* H  8 s( 99.77%)p 0.00(  0.23%)
                                        -0.9988  0.0087  0.0004  0.0239  0.0419
                                        -0.0001
  42. (0.06332) BD*( 1) P  3- H  9
               ( 46.36%)   0.6809* P  3 s( 24.98%)p 2.98( 74.52%)d 0.02(  0.50%)
                                         0.0000  0.0000 -0.4996  0.0076  0.0088
                                        -0.0002  0.0000  0.0000 -0.2943  0.0013
                                         0.0053 -0.0006  0.0001  0.0000  0.4011
                                         0.0107 -0.0032 -0.0009  0.0000  0.0000
                                        -0.7051 -0.0181  0.0066  0.0003  0.0001
                                         0.0293 -0.0500  0.0344 -0.0060 -0.0212
               ( 53.64%)  -0.7324* H  9 s( 99.77%)p 0.00(  0.23%)
                                        -0.9988  0.0101  0.0004  0.0230 -0.0210
                                         0.0362
  43. (0.05369) BD*( 1) P  5- H 10
               ( 47.05%)   0.6859* P  5 s( 19.99%)p 3.98( 79.46%)d 0.03(  0.55%)
                                         0.0000  0.0000 -0.4470  0.0057  0.0073
                                         0.0003  0.0000  0.0000  0.3558 -0.0009
                                        -0.0028 -0.0008  0.0003  0.0000 -0.8171
                                        -0.0196  0.0029  0.0005 -0.0002  0.0000
[...]
                                                     112(r),85(g),120(v),158(r)
                                                     168(r),51(g),94(r),123(v)
                                                     97(r),124(v),83(g),98(r)
                                                     44(v),45(v),153(r),163(r)
                                                     173(r),178(r),40(r),42(r)
                                                     140(v),82(g),142(v),91(r)
                                                     55(g),171(r),161(r),65(g)
                                                     179(r),174(r),164(r),154(r)
                                                     128(v),102(r),156(r),166(r)
                                                     155(r),165(r),92(r),101(r)
                                                     157(r),167(r)
   25. BD ( 1)Ir  1- P  5       1.94407    -0.36446  35(g),70(g),46(g),57(g)
                                                     73(v),69(g),84(v),136(r)
                                                     115(g),72(v),36(g),110(r)
                                                     89(r),61(g),50(g),114(r)
                                                     77(v),139(r),95(r),58(g)
                                                     121(g),99(r),67(g),78(v)
                                                     125(g),96(r),122(g),47(g)
                                                     94(r),85(v),120(g),112(r)
                                                     158(r),168(v),97(r),123(g)
                                                     51(g),83(v),38(v),98(r)
                                                     173(v),178(v),153(r),163(r)
                                                     65(g),124(g),91(r),39(v)
                                                     82(v),55(g),161(r),43(g)
                                                     164(r),154(r),40(r),42(r)
                                                     155(r),165(r),156(r),166(r)
                                                     107(r),102(r),157(r),167(r)
                                                     92(r),162(r)
   26. BD ( 1) C  2- O  6       1.99953    -0.37668  37(g)
   27. BD ( 2) C  2- O  6       1.99893    -0.38060  94(r)
   28. BD ( 3) C  2- O  6       1.99887    -0.91981  89(r),110(r),95(r),114(r)
   32. BD ( 1) P  5- H 10       1.98804    -0.43559  44(g),45(g)
   33. BD ( 1) P  5- H 11       1.98834    -0.43398  36(g),43(g),45(g),46(v)
                                                     89(r),110(r),99(r),114(r)
                                                     95(r),94(r),97(r),112(r)
                                                     96(r)
   34. BD ( 1) P  5- H 12       1.98834    -0.43398  36(g),43(g),44(g),46(v)
                                                     89(r),110(r),99(r),114(r)
                                                     94(r),95(r),97(r),112(r)
                                                     96(r)
 ------ non-Lewis ----------------------------------
   35. BD*( 1)Ir  1- C  2       0.68073     0.88942
   36. BD*( 1)Ir  1- P  5       0.51343     0.57843
   37. BD*( 1) C  2- O  6       0.29023    -0.01165
   38. BD*( 2) C  2- O  6       0.20590    -0.01403
   39. BD*( 3) C  2- O  6       0.01056     0.63469
   43. BD*( 1) P  5- H 10       0.05369     0.12273
   44. BD*( 1) P  5- H 11       0.05246     0.12292
   45. BD*( 1) P  5- H 12       0.05244     0.12287
   46. RY ( 1)Ir  1             0.01095    19.68505
   47. RY ( 2)Ir  1             0.00572     1.93145
   48. RY ( 3)Ir  1             0.00236     0.52110
   49. RY ( 4)Ir  1             0.00221     0.59703
   50. RY ( 5)Ir  1             0.00049     1.71790
   51. RY ( 6)Ir  1             0.00044     0.76684
   52. RY ( 7)Ir  1             0.00039     4.70025
   53. RY ( 8)Ir  1             0.00038     1.35571
   54. RY ( 9)Ir  1             0.00019     0.72635
   55. RY (10)Ir  1             0.00008     1.26335
   56. RY (11)Ir  1             0.00004     4.11457
   57. RY (12)Ir  1             0.00001     9.04958
   58. RY (13)Ir  1             0.00001     5.35698
   59. RY (14)Ir  1             0.00001     1.13611
   60. RY (15)Ir  1             0.00000     1.82602
   61. RY (16)Ir  1             0.00000     2.87094
   62. RY (17)Ir  1             0.00000     0.68635
   63. RY (18)Ir  1             0.00000    44.23641
   64. RY (19)Ir  1             0.00000     1.13800
   65. RY (20)Ir  1             0.00000    26.43839
   66. RY (21)Ir  1             0.00000     0.38892
   67. RY (22)Ir  1             0.00000    20.27692
   68. RY (23)Ir  1             0.00000     0.44202
   69. RY (24)Ir  1             0.00000    10.31955
   70. RY (25)Ir  1             0.00000    52.44598
   71. RY (26)Ir  1             0.00000    34.25268
   72. RY ( 1) C  2             0.02713     2.62314
   73. RY ( 2) C  2             0.01230     4.51414
   74. RY ( 3) C  2             0.00590     1.61633
   75. RY ( 4) C  2             0.00438     1.54155
   76. RY ( 5) C  2             0.00057     0.83837
   77. RY ( 6) C  2             0.00042     7.69195
   78. RY ( 7) C  2             0.00014     3.73370
   79. RY ( 8) C  2             0.00011     1.26691
   80. RY ( 9) C  2             0.00009     0.52723
   81. RY (10) C  2             0.00006     0.86721
   82. RY (11) C  2             0.00003     3.48055
   83. RY (12) C  2             0.00001     9.81586
   84. RY (13) C  2             0.00000     8.58912
   85. RY (14) C  2             0.00000     7.17805
   86. RY (15) C  2             0.00000     2.32376
   87. RY (16) C  2             0.00000     2.54540
   88. RY (17) C  2             0.00000     0.70793
  115. RY ( 1) P  5             0.00863     2.98990
  116. RY ( 2) P  5             0.00677     0.88020
  117. RY ( 3) P  5             0.00677     0.92051
  118. RY ( 4) P  5             0.00204     0.72363
  119. RY ( 5) P  5             0.00113     0.44836
  120. RY ( 6) P  5             0.00030     3.57605
  121. RY ( 7) P  5             0.00012     1.87140
  122. RY ( 8) P  5             0.00003     1.07593
  123. RY ( 9) P  5             0.00002     2.01176
  124. RY (10) P  5             0.00001     1.53175
  125. RY (11) P  5             0.00001     1.68324
  126. RY (12) P  5             0.00001     0.52331
  127. RY (13) P  5             0.00000     1.23119
  128. RY (14) P  5             0.00000     2.27816
  129. RY (15) P  5             0.00000    13.42271
  130. RY (16) P  5             0.00000   154.20270
  131. RY (17) P  5             0.00000    14.21955
  132. RY (18) P  5             0.00000    13.37791
  133. RY (19) P  5             0.00000     6.52295
  134. RY (20) P  5             0.00000     0.94372
  135. RY (21) P  5             0.00000     6.38409
  136. RY ( 1) O  6             0.00400     3.66418
  137. RY ( 2) O  6             0.00202     0.47463
  138. RY ( 3) O  6             0.00154     0.47612
  139. RY ( 4) O  6             0.00015     1.60549
  140. RY ( 5) O  6             0.00003     1.76229
  141. RY ( 6) O  6             0.00001     1.63347
  142. RY ( 7) O  6             0.00001     1.69543
  143. RY ( 8) O  6             0.00000     2.12070
  144. RY ( 9) O  6             0.00000     6.31129
  145. RY (10) O  6             0.00000     3.12643
  146. RY (11) O  6             0.00000     2.68043
  147. RY (12) O  6             0.00000     3.98620
  148. RY (13) O  6             0.00000     4.87912
  149. RY (14) O  6             0.00000    47.47372
  150. RY (15) O  6             0.00000     3.08190
  151. RY (16) O  6             0.00000     2.37514
  152. RY (17) O  6             0.00000     2.22625
  168. RY ( 1) H 10             0.00167     0.55784
  169. RY ( 2) H 10             0.00015     1.36127
  170. RY ( 3) H 10             0.00013     2.15449
  171. RY ( 4) H 10             0.00007     1.62749
  172. RY ( 5) H 10             0.00005     1.83792
  173. RY ( 1) H 11             0.00224     0.50297
  174. RY ( 2) H 11             0.00018     1.65025
  175. RY ( 3) H 11             0.00015     1.72447
  176. RY ( 4) H 11             0.00008     1.63632
  177. RY ( 5) H 11             0.00003     1.91983
  178. RY ( 1) H 12             0.00225     0.50292
  179. RY ( 2) H 12             0.00018     1.65103
  180. RY ( 3) H 12             0.00015     1.72171
  181. RY ( 4) H 12             0.00008     1.63796
  182. RY ( 5) H 12             0.00003     1.92001
          -------------------------------
                 Total Lewis  107.12241  ( 98.1898%)
           Valence non-Lewis    1.85943  (  1.7044%)
           Rydberg non-Lewis    0.11547  (  0.1058%)
          -------------------------------
               Total unit  1  109.09731  (100.0000%)
              Charge unit  1   -0.09731

 Molecular unit  2  (H3P)
 ------ Lewis --------------------------------------
    6. CR ( 1) P  3             2.00000   -75.98901
    7. CR ( 2) P  3             1.99997    -6.69501
    8. CR ( 3) P  3             2.00000    -4.56178
    9. CR ( 4) P  3             2.00000    -4.56492
   10. CR ( 5) P  3             2.00000    -4.56471
   21. LP ( 1) P  3             1.47191    -0.14300  36(r),70(r),57(r),46(r)
                                                     69(r),35(r),73(r),84(r)
                                                     136(r),72(r),110(r),115(r)
                                                     89(g),61(r),114(r),50(r)
                                                     95(g),77(r),139(r),121(r)
                                                     58(r),47(r),99(g),67(r)
                                                     125(r),78(r),122(r),96(g)
                                                     40(g),42(g),85(r),41(g)
                                                     168(r),112(r),94(g),158(v)
                                                     120(r),51(r),98(g),97(g)
                                                     123(r),83(r),124(r),173(r)
                                                     178(r),38(r),161(v),153(v)
                                                     163(v),91(g),164(v),154(v)
                                                     44(r),45(r),171(r),82(r)
                                                     55(r),179(r),174(r),140(r)
                                                     102(g),65(r),155(v),165(v)
                                                     43(r),156(v),166(v),145(r)
                                                     176(r),181(r),142(r),175(r)
                                                     180(r),128(r),56(r),117(r)
                                                     92(g),157(v),167(v),160(v)
                                                     118(r),101(g),49(r),150(r)
                                                     177(r),182(r),71(r),170(r)
                                                     172(r),133(r),39(r),59(r)
                                                     127(r),60(r),116(r),75(r)
                                                     64(r),68(r),52(r)
   29. BD ( 1) P  3- H  7       1.98905    -0.44019  41(g),42(g),36(r),48(r)
                                                     52(r),71(r),60(r),49(r)
                                                     50(r),59(r),53(r),120(r)
                                                     65(r),72(r),56(r),77(r)
                                                     63(r),81(r)
   30. BD ( 1) P  3- H  8       1.98922    -0.44260  36(r),40(g),42(g),46(r)
                                                     70(r),41(g),72(r),57(r)
                                                     84(r),73(r),136(r),69(r)
                                                     38(r),35(r),50(r),78(r)
                                                     114(r),77(r),61(r),139(r)
                                                     49(r),47(r),115(r),58(r)
                                                     110(r),121(r),125(r),52(r)
                                                     122(r),71(r),65(r),67(r)
                                                     112(r),85(r),168(r)
   31. BD ( 1) P  3- H  9       1.98905    -0.44019  41(g),40(g),36(r),48(r)
                                                     52(r),71(r),60(r),49(r)
                                                     50(r),59(r),53(r),120(r)
                                                     65(r),56(r),72(r),77(r)
                                                     63(r),81(r)
 ------ non-Lewis ----------------------------------
   40. BD*( 1) P  3- H  7       0.06336     0.11634
   41. BD*( 1) P  3- H  8       0.06585     0.11548
   42. BD*( 1) P  3- H  9       0.06332     0.11628
   89. RY ( 1) P  3             0.00835     2.98587
   90. RY ( 2) P  3             0.00677     0.87646
   91. RY ( 3) P  3             0.00670     0.95966
   92. RY ( 4) P  3             0.00200     0.70025
   93. RY ( 5) P  3             0.00113     0.44843
   94. RY ( 6) P  3             0.00028     3.49139
   95. RY ( 7) P  3             0.00011     1.93489
   96. RY ( 8) P  3             0.00003     1.07946
   97. RY ( 9) P  3             0.00002     2.03385
   98. RY (10) P  3             0.00001     1.57570
   99. RY (11) P  3             0.00001     1.62801
  100. RY (12) P  3             0.00001     0.52400
  101. RY (13) P  3             0.00000     1.34192
  102. RY (14) P  3             0.00000     2.17638
  103. RY (15) P  3             0.00000    13.43821
  104. RY (16) P  3             0.00000   154.17195
  105. RY (17) P  3             0.00000    14.23121
  106. RY (18) P  3             0.00000    13.37946
  107. RY (19) P  3             0.00000     6.53323
  108. RY (20) P  3             0.00000     0.94578
  109. RY (21) P  3             0.00000     6.35658
  153. RY ( 1) H  7             0.00224     0.50297
  154. RY ( 2) H  7             0.00018     1.65046
  155. RY ( 3) H  7             0.00015     1.72484
  156. RY ( 4) H  7             0.00008     1.63592
  157. RY ( 5) H  7             0.00003     1.91977
  158. RY ( 1) H  8             0.00167     0.55778
  159. RY ( 2) H  8             0.00014     1.36130
  160. RY ( 3) H  8             0.00013     2.15469
  161. RY ( 4) H  8             0.00007     1.62779
  162. RY ( 5) H  8             0.00005     1.83743
  163. RY ( 1) H  9             0.00225     0.50291
  164. RY ( 2) H  9             0.00018     1.65154
  165. RY ( 3) H  9             0.00015     1.72115
  166. RY ( 4) H  9             0.00008     1.63816
  167. RY ( 5) H  9             0.00003     1.91997
          -------------------------------
                 Total Lewis   17.43920  ( 98.7241%)
           Valence non-Lewis    0.19254  (  1.0900%)
           Rydberg non-Lewis    0.03285  (  0.1859%)
          -------------------------------
               Total unit  2   17.66458  (100.0000%)
              Charge unit  2    0.33542

 Molecular unit  3  (H)
 ------ Lewis --------------------------------------
   22. LP ( 1) H  4             1.23569     0.01269  35(r),36(r),57(r),70(r)
                                                     69(r),115(r),89(r),136(r)
                                                     46(r),73(r),84(r),72(r)
                                                     61(r),114(g),139(r),50(r)
                                                     58(r),95(r),110(g),121(r)
                                                     67(r),77(r),78(r),96(r)
                                                     122(r),125(r),99(r),47(r)
                                                     158(r),168(r),112(g),120(r)
                                                     51(r),85(r),97(r),94(r)
                                                     123(r),98(r),44(r),45(r)
                                                     124(r),153(r),173(r),178(r)
                                                     163(r),40(r),42(r),83(r)
                                                     91(r),82(r),55(r),171(r)
                                                     161(r),39(r),164(r),179(r)
                                                     154(r),174(r),145(r),41(r)
                                                     156(r),176(r),166(r),181(r)
                                                     128(r),155(r),175(r),180(r)
                                                     165(r),102(r),140(r),117(r)
                                                     92(r),43(r),150(r),157(r)
                                                     177(r),182(r),167(r),101(r)
                                                     65(r),49(r),142(r),160(r)
                                                     170(r),172(r),162(r),133(r)
                                                     107(r),127(r),116(r),68(r)
                                                     52(r)
 ------ non-Lewis ----------------------------------
  110. RY ( 1) H  4             0.00210     3.37447
  111. RY ( 2) H  4             0.00016     1.56717
  112. RY ( 3) H  4             0.00009     2.51241
  113. RY ( 4) H  4             0.00005     1.46690
  114. RY ( 5) H  4             0.00002     4.09260
          -------------------------------
                 Total Lewis    1.23569  ( 99.8045%)
           Valence non-Lewis    0.00000  (  0.0000%)
           Rydberg non-Lewis    0.00242  (  0.1955%)
          -------------------------------
               Total unit  3    1.23811  (100.0000%)
              Charge unit  3   -0.23811

 $CHOOSE
   LONE 1 4 3 1 4 1 6 1 END
   BOND S 1 2 S 1 5 T 2 6 S 3 7 S 3 8 S 3 9 S 5 10 S 5 11 S 5 12 END
 $END

 NBO analysis completed in 5.41 CPU seconds (5 wall seconds)
 Maximum scratch memory used by NBO was 812739 words (6.20 MB)
 Maximum scratch memory used by G16NBO was 59318 words (0.45 MB)

 Opening RunExU unformatted file "/local/mvanvleet/pbs.15352.josephine/Gau-211338.EUF"
 Read unf file /local/mvanvleet/pbs.15352.josephine/Gau-211338.EUF:
 Label Gaussian matrix elements                                         IVers= 2 NLab= 2 Version=ES64L-G16RevC.01
 Title trans-(H)Ir(PH3)2(CO)                                           
 NAtoms=    12 NBasis=   182 NBsUse=   182 ICharg=     0 Multip=     1 NE=    68 Len12L=8 Len4L=8 IOpCl= 0 ICGU=111
 GAUSSIAN SCALARS                    NI= 1 NR= 1 NTot=       1 LenBuf=    2 NRI=1 N=    1000
 NPA CHARGES                         NI= 0 NR= 1 NTot=      12 LenBuf= 4000 NRI=1 N=      12
 Recovered energy= -904.312890915     dipole=     -0.000605981077     -0.170186052511      0.000353983879
 Unable to Open any file for archive entry.
 1\1\GINC-NODE002\SP\RPBEPBE\GenECP\C1H7Ir1O1P2\MVANVLEET\05-Jun-2024\0
 \\# PBEPBE GenECP Pop=NBO7\\trans-(H)Ir(PH3)2(CO)\\0,1\Ir\C,1,1.86796\
 P,1,2.28960169,2,90.\H,1,1.6836208,3,90.,2,180.,0\P,1,2.28966148,2,90.
 ,3,-180.,0\O,2,1.16851758,1,179.93846016,3,29.91754209,0\H,3,1.4274062
 2,1,119.68660002,2,-120.08694774,0\H,3,1.42416028,1,118.79066003,2,-0.
 12356899,0\H,3,1.42743226,1,119.67533363,2,119.82073269,0\H,5,1.424151
 67,1,118.79048407,2,0.09623143,0\H,5,1.42740947,1,119.68323861,2,120.0
 5500937,0\H,5,1.42743125,1,119.68060812,2,-119.85203621,0\\Version=ES6
 4L-G16RevC.01\State=1-A\HF=-904.3128909\RMSD=4.838e-09\Dipole=-0.00057
 07,-0.0003807,-0.1701861\Quadrupole=11.2758215,-3.0595339,-8.2162877,0
 .000024,-0.0025554,-0.0013569\PG=C01 [X(C1H7Ir1O1P2)]\\@
 The archive entry for this job was punched.


  ON THE CHOICE OF THE CORRECT LANGUAGE -
 I SPEAK SPANISH TO GOD, ITALIAN TO WOMEN,
 FRENCH TO MEN, AND GERMAN TO MY HORSE.
          -- CHARLES V
 Job cpu time:       0 days  0 hours  6 minutes 49.9 seconds.
 Elapsed time:       0 days  0 hours  0 minutes 12.7 seconds.
 File lengths (MBytes):  RWF=     15 Int=      0 D2E=      0 Chk=      3 Scr=      1
 Normal termination of Gaussian 16 at Wed Jun  5 12:09:30 2024.
