 Entering Gaussian System, Link 0=/cm/shared/apps//g16/g16
 Input=MeZPt.gjf
 Output=MeZPt.log
 Initial command:
 /cm/shared/apps//g16/l1.exe "/local/mvanvleet/pbs.15278.josephine/Gau-162546.inp" -scrdir="/local/mvanvleet/pbs.15278.josephine/"
 Entering Link 1 = /cm/shared/apps//g16/l1.exe PID=    162547.
  
 Copyright (c) 1988-2019, Gaussian, Inc.  All Rights Reserved.
  
 This is part of the Gaussian(R) 16 program.  It is based on
 the Gaussian(R) 09 system (copyright 2009, Gaussian, Inc.),
 the Gaussian(R) 03 system (copyright 2003, Gaussian, Inc.),
 the Gaussian(R) 98 system (copyright 1998, Gaussian, Inc.),
 the Gaussian(R) 94 system (copyright 1995, Gaussian, Inc.),
 the Gaussian 92(TM) system (copyright 1992, Gaussian, Inc.),
 the Gaussian 90(TM) system (copyright 1990, Gaussian, Inc.),
 the Gaussian 88(TM) system (copyright 1988, Gaussian, Inc.),
 the Gaussian 86(TM) system (copyright 1986, Carnegie Mellon
 University), and the Gaussian 82(TM) system (copyright 1983,
 Carnegie Mellon University). Gaussian is a federally registered
 trademark of Gaussian, Inc.
  
 This software contains proprietary and confidential information,
 including trade secrets, belonging to Gaussian, Inc.
  
 This software is provided under written license and may be
 used, copied, transmitted, or stored only in accord with that
 written license.
  
 The following legend is applicable only to US Government
 contracts under FAR:
  
                    RESTRICTED RIGHTS LEGEND
  
 Use, reproduction and disclosure by the US Government is
 subject to restrictions as set forth in subparagraphs (a)
 and (c) of the Commercial Computer Software - Restricted
 Rights clause in FAR 52.227-19.
  
 Gaussian, Inc.
 340 Quinnipiac St., Bldg. 40, Wallingford CT 06492
  
  
 ---------------------------------------------------------------
 Warning -- This program may not be used in any manner that
 competes with the business of Gaussian, Inc. or will provide
 assistance to any competitor of Gaussian, Inc.  The licensee
 of this program is prohibited from giving any competitor of
 Gaussian, Inc. access to this program.  By using this program,
 the user acknowledges that Gaussian, Inc. is engaged in the
 business of creating and licensing software in the field of
 computational chemistry and represents and warrants to the
 licensee that it is not a competitor of Gaussian, Inc. and that
 it will not use this program in any manner prohibited above.
 ---------------------------------------------------------------
  

 Cite this work as:
 Gaussian 16, Revision C.01,
 M. J. Frisch, G. W. Trucks, H. B. Schlegel, G. E. Scuseria, 
 M. A. Robb, J. R. Cheeseman, G. Scalmani, V. Barone, 
 G. A. Petersson, H. Nakatsuji, X. Li, M. Caricato, A. V. Marenich, 
 J. Bloino, B. G. Janesko, R. Gomperts, B. Mennucci, H. P. Hratchian, 
 J. V. Ortiz, A. F. Izmaylov, J. L. Sonnenberg, D. Williams-Young, 
 F. Ding, F. Lipparini, F. Egidi, J. Goings, B. Peng, A. Petrone, 
 T. Henderson, D. Ranasinghe, V. G. Zakrzewski, J. Gao, N. Rega, 
 G. Zheng, W. Liang, M. Hada, M. Ehara, K. Toyota, R. Fukuda, 
 J. Hasegawa, M. Ishida, T. Nakajima, Y. Honda, O. Kitao, H. Nakai, 
 T. Vreven, K. Throssell, J. A. Montgomery, Jr., J. E. Peralta, 
 F. Ogliaro, M. J. Bearpark, J. J. Heyd, E. N. Brothers, K. N. Kudin, 
 V. N. Staroverov, T. A. Keith, R. Kobayashi, J. Normand, 
 K. Raghavachari, A. P. Rendell, J. C. Burant, S. S. Iyengar, 
 J. Tomasi, M. Cossi, J. M. Millam, M. Klene, C. Adamo, R. Cammi, 
 J. W. Ochterski, R. L. Martin, K. Morokuma, O. Farkas, 
 J. B. Foresman, and D. J. Fox, Gaussian, Inc., Wallingford CT, 2019.
 
 ******************************************
 Gaussian 16:  ES64L-G16RevC.01  3-Jul-2019
                30-May-2024 
 ******************************************
 %nprocshared=48
 Will use up to   48 processors via shared memory.
 %chk=MeZPt.chk
 %mem=16GB
 ----------------------------------------------------------
 # wb97xd def2TZVPP SCRF=(solvent=dichloromethane) opt freq
 ----------------------------------------------------------
 1/18=20,19=15,26=3,38=1/1,3;
 2/9=110,12=2,17=6,18=5,40=1/2;
 3/5=44,7=202,11=2,25=1,30=1,70=2201,71=1,72=9,74=-58/1,2,3;
 4//1;
 5/5=2,38=5,53=9/2;
 6/7=2,8=2,9=2,10=2,28=1/1;
 7//1,2,3,16;
 1/18=20,19=15,26=3/3(2);
 2/9=110/2;
 99//99;
 2/9=110/2;
 3/5=44,7=202,11=2,25=1,30=1,70=2205,71=1,72=9,74=-58/1,2,3;
 4/5=5,16=3,69=1/1;
 5/5=2,38=5,53=9/2;
 7//1,2,3,16;
 1/18=20,19=15,26=3/3(-5);
 2/9=110/2;
 6/7=2,8=2,9=2,10=2,19=2,28=1/1;
 99/9=1/99;
 -----
 MeZPt
 -----
 Symbolic Z-matrix:
 Charge =  2 Multiplicity = 1
 Pt                   -0.90514   0.00001  -0.11853 
 C                     1.70073   1.20296  -0.29982 
 C                     1.70072  -1.20297  -0.29981 
 C                     3.02406   1.25088   0.00751 
 C                     3.02406  -1.25089   0.00752 
 C                     3.79103  -0.00001   0.21409 
 H                     3.5625    2.19872   0.09202 
 H                     3.56249  -2.19874   0.09204 
 O                     4.97741  -0.00001   0.52352 
 N                     1.03537  -0.00001  -0.42231 
 C                     0.7607    2.32837  -0.65663 
 H                     0.60673   2.32956  -1.75136 
 H                     1.12221   3.3244   -0.34499 
 C                     0.76069  -2.32838  -0.65661 
 H                     0.60673  -2.32958  -1.75134 
 H                     1.12219  -3.32441  -0.34496 
 N                    -0.60571   2.08398  -0.03534 
 N                    -0.60572  -2.08398  -0.03534 
 C                    -1.62196   2.9085   -0.74205 
 H                    -2.59507   2.78195  -0.24552 
 H                    -1.32315   3.97208  -0.69984 
 H                    -1.68954   2.57948  -1.78907 
 C                    -0.54238   2.49493   1.39959 
 H                    -0.29882   3.57149   1.45285 
 H                    -1.51507   2.31695   1.87797 
 H                     0.24547   1.91526   1.9071 
 C                    -1.62197  -2.90849  -0.74207 
 H                    -1.32317  -3.97207  -0.69987 
 H                    -2.59509  -2.78194  -0.24555 
 H                    -1.68953  -2.57946  -1.78909 
 C                    -0.54242  -2.49494   1.39958 
 H                    -1.51513  -2.31702   1.87794 
 H                    -0.29882  -3.57149   1.45284 
 H                     0.24538  -1.91525   1.90713 
 C                     5.97741  -0.00001   0.52352 
 H                     6.79901   0.67919   1.34676 
 H                     6.69374   0.35835  -0.49033 
 H                     6.53936  -1.05957   0.71573 
 
 Add virtual bond connecting atoms H36        and C35        Dist= 2.55D+00.

 GradGradGradGradGradGradGradGradGradGradGradGradGradGradGradGradGradGrad
 Berny optimization.
 Initialization pass.
                           ----------------------------
                           !    Initial Parameters    !
                           ! (Angstroms and Degrees)  !
 --------------------------                            --------------------------
 ! Name  Definition              Value          Derivative Info.                !
 --------------------------------------------------------------------------------
 ! R1    R(1,10)                 1.9641         estimate D2E/DX2                !
 ! R2    R(1,17)                 2.107          estimate D2E/DX2                !
 ! R3    R(1,18)                 2.107          estimate D2E/DX2                !
 ! R4    R(2,4)                  1.3594         estimate D2E/DX2                !
 ! R5    R(2,10)                 1.3802         estimate D2E/DX2                !
 ! R6    R(2,11)                 1.5091         estimate D2E/DX2                !
 ! R7    R(3,5)                  1.3594         estimate D2E/DX2                !
 ! R8    R(3,10)                 1.3801         estimate D2E/DX2                !
 ! R9    R(3,14)                 1.5091         estimate D2E/DX2                !
 ! R10   R(4,6)                  1.4818         estimate D2E/DX2                !
 ! R11   R(4,7)                  1.0934         estimate D2E/DX2                !
 ! R12   R(5,6)                  1.4818         estimate D2E/DX2                !
 ! R13   R(5,8)                  1.0934         estimate D2E/DX2                !
 ! R14   R(6,9)                  1.2261         estimate D2E/DX2                !
 ! R15   R(9,35)                 1.0            estimate D2E/DX2                !
 ! R16   R(11,12)                1.1055         estimate D2E/DX2                !
 ! R17   R(11,13)                1.1045         estimate D2E/DX2                !
 ! R18   R(11,17)                1.5208         estimate D2E/DX2                !
 ! R19   R(14,15)                1.1055         estimate D2E/DX2                !
 ! R20   R(14,16)                1.1045         estimate D2E/DX2                !
 ! R21   R(14,18)                1.5208         estimate D2E/DX2                !
 ! R22   R(17,19)                1.4873         estimate D2E/DX2                !
 ! R23   R(17,23)                1.494          estimate D2E/DX2                !
 ! R24   R(18,27)                1.4873         estimate D2E/DX2                !
 ! R25   R(18,31)                1.494          estimate D2E/DX2                !
 ! R26   R(19,20)                1.0998         estimate D2E/DX2                !
 ! R27   R(19,21)                1.1056         estimate D2E/DX2                !
 ! R28   R(19,22)                1.0996         estimate D2E/DX2                !
 ! R29   R(23,24)                1.1051         estimate D2E/DX2                !
 ! R30   R(23,25)                1.0985         estimate D2E/DX2                !
 ! R31   R(23,26)                1.1019         estimate D2E/DX2                !
 ! R32   R(27,28)                1.1056         estimate D2E/DX2                !
 ! R33   R(27,29)                1.0998         estimate D2E/DX2                !
 ! R34   R(27,30)                1.0996         estimate D2E/DX2                !
 ! R35   R(31,32)                1.0985         estimate D2E/DX2                !
 ! R36   R(31,33)                1.1051         estimate D2E/DX2                !
 ! R37   R(31,34)                1.1019         estimate D2E/DX2                !
 ! R38   R(35,36)                1.3469         estimate D2E/DX2                !
 ! R39   R(35,37)                1.2921         estimate D2E/DX2                !
 ! R40   R(35,38)                1.2147         estimate D2E/DX2                !
 ! A1    A(10,1,17)             82.2828         estimate D2E/DX2                !
 ! A2    A(10,1,18)             82.2819         estimate D2E/DX2                !
 ! A3    A(17,1,18)            163.0369         estimate D2E/DX2                !
 ! A4    A(4,2,10)             121.3382         estimate D2E/DX2                !
 ! A5    A(4,2,11)             129.311          estimate D2E/DX2                !
 ! A6    A(10,2,11)            109.1909         estimate D2E/DX2                !
 ! A7    A(5,3,10)             121.3382         estimate D2E/DX2                !
 ! A8    A(5,3,14)             129.311          estimate D2E/DX2                !
 ! A9    A(10,3,14)            109.191          estimate D2E/DX2                !
 ! A10   A(2,4,6)              120.3733         estimate D2E/DX2                !
 ! A11   A(2,4,7)              121.8318         estimate D2E/DX2                !
 ! A12   A(6,4,7)              117.7845         estimate D2E/DX2                !
 ! A13   A(3,5,6)              120.3735         estimate D2E/DX2                !
 ! A14   A(3,5,8)              121.8312         estimate D2E/DX2                !
 ! A15   A(6,5,8)              117.785          estimate D2E/DX2                !
 ! A16   A(4,6,5)              115.1695         estimate D2E/DX2                !
 ! A17   A(4,6,9)              122.414          estimate D2E/DX2                !
 ! A18   A(5,6,9)              122.4141         estimate D2E/DX2                !
 ! A19   A(1,10,2)             117.5519         estimate D2E/DX2                !
 ! A20   A(1,10,3)             117.5528         estimate D2E/DX2                !
 ! A21   A(2,10,3)             121.294          estimate D2E/DX2                !
 ! A22   A(2,11,12)            108.7648         estimate D2E/DX2                !
 ! A23   A(2,11,13)            113.6977         estimate D2E/DX2                !
 ! A24   A(2,11,17)            110.0738         estimate D2E/DX2                !
 ! A25   A(12,11,13)           108.9065         estimate D2E/DX2                !
 ! A26   A(12,11,17)           106.2354         estimate D2E/DX2                !
 ! A27   A(13,11,17)           108.8889         estimate D2E/DX2                !
 ! A28   A(3,14,15)            108.7645         estimate D2E/DX2                !
 ! A29   A(3,14,16)            113.6981         estimate D2E/DX2                !
 ! A30   A(3,14,18)            110.074          estimate D2E/DX2                !
 ! A31   A(15,14,16)           108.9063         estimate D2E/DX2                !
 ! A32   A(15,14,18)           106.2353         estimate D2E/DX2                !
 ! A33   A(16,14,18)           108.8888         estimate D2E/DX2                !
 ! A34   A(1,17,11)            105.6938         estimate D2E/DX2                !
 ! A35   A(1,17,19)            115.6231         estimate D2E/DX2                !
 ! A36   A(1,17,23)            108.4219         estimate D2E/DX2                !
 ! A37   A(11,17,19)           109.3124         estimate D2E/DX2                !
 ! A38   A(11,17,23)           108.0651         estimate D2E/DX2                !
 ! A39   A(19,17,23)           109.4425         estimate D2E/DX2                !
 ! A40   A(1,18,14)            105.694          estimate D2E/DX2                !
 ! A41   A(1,18,27)            115.6229         estimate D2E/DX2                !
 ! A42   A(1,18,31)            108.4222         estimate D2E/DX2                !
 ! A43   A(14,18,27)           109.3123         estimate D2E/DX2                !
 ! A44   A(14,18,31)           108.0653         estimate D2E/DX2                !
 ! A45   A(27,18,31)           109.4422         estimate D2E/DX2                !
 ! A46   A(17,19,20)           109.0427         estimate D2E/DX2                !
 ! A47   A(17,19,21)           109.2994         estimate D2E/DX2                !
 ! A48   A(17,19,22)           109.1817         estimate D2E/DX2                !
 ! A49   A(20,19,21)           109.4274         estimate D2E/DX2                !
 ! A50   A(20,19,22)           109.9434         estimate D2E/DX2                !
 ! A51   A(21,19,22)           109.9273         estimate D2E/DX2                !
 ! A52   A(17,23,24)           108.8819         estimate D2E/DX2                !
 ! A53   A(17,23,25)           109.6444         estimate D2E/DX2                !
 ! A54   A(17,23,26)           109.1454         estimate D2E/DX2                !
 ! A55   A(24,23,25)           109.3917         estimate D2E/DX2                !
 ! A56   A(24,23,26)           109.4327         estimate D2E/DX2                !
 ! A57   A(25,23,26)           110.3216         estimate D2E/DX2                !
 ! A58   A(18,27,28)           109.2996         estimate D2E/DX2                !
 ! A59   A(18,27,29)           109.0428         estimate D2E/DX2                !
 ! A60   A(18,27,30)           109.1815         estimate D2E/DX2                !
 ! A61   A(28,27,29)           109.4273         estimate D2E/DX2                !
 ! A62   A(28,27,30)           109.927          estimate D2E/DX2                !
 ! A63   A(29,27,30)           109.9436         estimate D2E/DX2                !
 ! A64   A(18,31,32)           109.6452         estimate D2E/DX2                !
 ! A65   A(18,31,33)           108.882          estimate D2E/DX2                !
 ! A66   A(18,31,34)           109.1461         estimate D2E/DX2                !
 ! A67   A(32,31,33)           109.3907         estimate D2E/DX2                !
 ! A68   A(32,31,34)           110.3212         estimate D2E/DX2                !
 ! A69   A(33,31,34)           109.4325         estimate D2E/DX2                !
 ! A70   A(9,35,36)            127.5902         estimate D2E/DX2                !
 ! A71   A(9,35,37)            123.6699         estimate D2E/DX2                !
 ! A72   A(9,35,38)            117.5575         estimate D2E/DX2                !
 ! A73   A(36,35,37)            90.089          estimate D2E/DX2                !
 ! A74   A(36,35,38)            93.4944         estimate D2E/DX2                !
 ! A75   A(37,35,38)            96.293          estimate D2E/DX2                !
 ! A76   L(6,9,35,7,-1)        178.3717         estimate D2E/DX2                !
 ! A77   L(6,9,35,7,-2)        197.3597         estimate D2E/DX2                !
 ! D1    D(17,1,10,2)            7.0159         estimate D2E/DX2                !
 ! D2    D(17,1,10,3)          165.9266         estimate D2E/DX2                !
 ! D3    D(18,1,10,2)         -165.9272         estimate D2E/DX2                !
 ! D4    D(18,1,10,3)           -7.0166         estimate D2E/DX2                !
 ! D5    D(10,1,17,11)          16.5381         estimate D2E/DX2                !
 ! D6    D(10,1,17,19)         137.5858         estimate D2E/DX2                !
 ! D7    D(10,1,17,23)         -99.1256         estimate D2E/DX2                !
 ! D8    D(18,1,17,11)          41.2004         estimate D2E/DX2                !
 ! D9    D(18,1,17,19)         162.2481         estimate D2E/DX2                !
 ! D10   D(18,1,17,23)         -74.4633         estimate D2E/DX2                !
 ! D11   D(10,1,18,14)         -16.5374         estimate D2E/DX2                !
 ! D12   D(10,1,18,27)        -137.5849         estimate D2E/DX2                !
 ! D13   D(10,1,18,31)          99.1268         estimate D2E/DX2                !
 ! D14   D(17,1,18,14)         -41.1997         estimate D2E/DX2                !
 ! D15   D(17,1,18,27)        -162.2472         estimate D2E/DX2                !
 ! D16   D(17,1,18,31)          74.4645         estimate D2E/DX2                !
 ! D17   D(10,2,4,6)             0.2743         estimate D2E/DX2                !
 ! D18   D(10,2,4,7)           179.0805         estimate D2E/DX2                !
 ! D19   D(11,2,4,6)          -174.6079         estimate D2E/DX2                !
 ! D20   D(11,2,4,7)             4.1984         estimate D2E/DX2                !
 ! D21   D(4,2,10,1)           154.9861         estimate D2E/DX2                !
 ! D22   D(4,2,10,3)            -3.0929         estimate D2E/DX2                !
 ! D23   D(11,2,10,1)          -29.2048         estimate D2E/DX2                !
 ! D24   D(11,2,10,3)          172.7162         estimate D2E/DX2                !
 ! D25   D(4,2,11,12)          102.2646         estimate D2E/DX2                !
 ! D26   D(4,2,11,13)          -19.2588         estimate D2E/DX2                !
 ! D27   D(4,2,11,17)         -141.7253         estimate D2E/DX2                !
 ! D28   D(10,2,11,12)         -73.1081         estimate D2E/DX2                !
 ! D29   D(10,2,11,13)         165.3684         estimate D2E/DX2                !
 ! D30   D(10,2,11,17)          42.9019         estimate D2E/DX2                !
 ! D31   D(10,3,5,6)            -0.274          estimate D2E/DX2                !
 ! D32   D(10,3,5,8)          -179.0807         estimate D2E/DX2                !
 ! D33   D(14,3,5,6)           174.6079         estimate D2E/DX2                !
 ! D34   D(14,3,5,8)            -4.1988         estimate D2E/DX2                !
 ! D35   D(5,3,10,1)          -154.986          estimate D2E/DX2                !
 ! D36   D(5,3,10,2)             3.0928         estimate D2E/DX2                !
 ! D37   D(14,3,10,1)           29.2051         estimate D2E/DX2                !
 ! D38   D(14,3,10,2)         -172.7161         estimate D2E/DX2                !
 ! D39   D(5,3,14,15)         -102.264          estimate D2E/DX2                !
 ! D40   D(5,3,14,16)           19.2593         estimate D2E/DX2                !
 ! D41   D(5,3,14,18)          141.7261         estimate D2E/DX2                !
 ! D42   D(10,3,14,15)          73.1085         estimate D2E/DX2                !
 ! D43   D(10,3,14,16)        -165.3682         estimate D2E/DX2                !
 ! D44   D(10,3,14,18)         -42.9014         estimate D2E/DX2                !
 ! D45   D(2,4,6,5)              2.3165         estimate D2E/DX2                !
 ! D46   D(2,4,6,9)           -178.2238         estimate D2E/DX2                !
 ! D47   D(7,4,6,5)           -176.5371         estimate D2E/DX2                !
 ! D48   D(7,4,6,9)              2.9225         estimate D2E/DX2                !
 ! D49   D(3,5,6,4)             -2.3166         estimate D2E/DX2                !
 ! D50   D(3,5,6,9)            178.2237         estimate D2E/DX2                !
 ! D51   D(8,5,6,4)            176.5374         estimate D2E/DX2                !
 ! D52   D(8,5,6,9)             -2.9222         estimate D2E/DX2                !
 ! D53   D(4,6,35,36)           50.3007         estimate D2E/DX2                !
 ! D54   D(4,6,35,37)          -67.5829         estimate D2E/DX2                !
 ! D55   D(4,6,35,38)          178.4263         estimate D2E/DX2                !
 ! D56   D(5,6,35,36)         -138.5732         estimate D2E/DX2                !
 ! D57   D(5,6,35,37)          103.5432         estimate D2E/DX2                !
 ! D58   D(5,6,35,38)          -10.4475         estimate D2E/DX2                !
 ! D59   D(2,11,17,1)          -35.8903         estimate D2E/DX2                !
 ! D60   D(2,11,17,19)        -160.9509         estimate D2E/DX2                !
 ! D61   D(2,11,17,23)          80.017          estimate D2E/DX2                !
 ! D62   D(12,11,17,1)          81.6988         estimate D2E/DX2                !
 ! D63   D(12,11,17,19)        -43.3618         estimate D2E/DX2                !
 ! D64   D(12,11,17,23)       -162.394          estimate D2E/DX2                !
 ! D65   D(13,11,17,1)        -161.1509         estimate D2E/DX2                !
 ! D66   D(13,11,17,19)         73.7886         estimate D2E/DX2                !
 ! D67   D(13,11,17,23)        -45.2436         estimate D2E/DX2                !
 ! D68   D(3,14,18,1)           35.8893         estimate D2E/DX2                !
 ! D69   D(3,14,18,27)         160.9497         estimate D2E/DX2                !
 ! D70   D(3,14,18,31)         -80.0184         estimate D2E/DX2                !
 ! D71   D(15,14,18,1)         -81.6994         estimate D2E/DX2                !
 ! D72   D(15,14,18,27)         43.3609         estimate D2E/DX2                !
 ! D73   D(15,14,18,31)        162.3928         estimate D2E/DX2                !
 ! D74   D(16,14,18,1)         161.1505         estimate D2E/DX2                !
 ! D75   D(16,14,18,27)        -73.7892         estimate D2E/DX2                !
 ! D76   D(16,14,18,31)         45.2427         estimate D2E/DX2                !
 ! D77   D(1,17,19,20)          64.8054         estimate D2E/DX2                !
 ! D78   D(1,17,19,21)        -175.6113         estimate D2E/DX2                !
 ! D79   D(1,17,19,22)         -55.3351         estimate D2E/DX2                !
 ! D80   D(11,17,19,20)       -176.119          estimate D2E/DX2                !
 ! D81   D(11,17,19,21)        -56.5358         estimate D2E/DX2                !
 ! D82   D(11,17,19,22)         63.7405         estimate D2E/DX2                !
 ! D83   D(23,17,19,20)        -57.9445         estimate D2E/DX2                !
 ! D84   D(23,17,19,21)         61.6387         estimate D2E/DX2                !
 ! D85   D(23,17,19,22)       -178.085          estimate D2E/DX2                !
 ! D86   D(1,17,23,24)         175.1752         estimate D2E/DX2                !
 ! D87   D(1,17,23,25)         -65.1761         estimate D2E/DX2                !
 ! D88   D(1,17,23,26)          55.7723         estimate D2E/DX2                !
 ! D89   D(11,17,23,24)         61.0624         estimate D2E/DX2                !
 ! D90   D(11,17,23,25)       -179.2888         estimate D2E/DX2                !
 ! D91   D(11,17,23,26)        -58.3404         estimate D2E/DX2                !
 ! D92   D(19,17,23,24)        -57.8871         estimate D2E/DX2                !
 ! D93   D(19,17,23,25)         61.7616         estimate D2E/DX2                !
 ! D94   D(19,17,23,26)       -177.29           estimate D2E/DX2                !
 ! D95   D(1,18,27,28)         175.6109         estimate D2E/DX2                !
 ! D96   D(1,18,27,29)         -64.8058         estimate D2E/DX2                !
 ! D97   D(1,18,27,30)          55.335          estimate D2E/DX2                !
 ! D98   D(14,18,27,28)         56.5353         estimate D2E/DX2                !
 ! D99   D(14,18,27,29)        176.1187         estimate D2E/DX2                !
 ! D100  D(14,18,27,30)        -63.7406         estimate D2E/DX2                !
 ! D101  D(31,18,27,28)        -61.6392         estimate D2E/DX2                !
 ! D102  D(31,18,27,29)         57.9442         estimate D2E/DX2                !
 ! D103  D(31,18,27,30)        178.085          estimate D2E/DX2                !
 ! D104  D(1,18,31,32)          65.1794         estimate D2E/DX2                !
 ! D105  D(1,18,31,33)        -175.1725         estimate D2E/DX2                !
 ! D106  D(1,18,31,34)         -55.7694         estimate D2E/DX2                !
 ! D107  D(14,18,31,32)        179.2926         estimate D2E/DX2                !
 ! D108  D(14,18,31,33)        -61.0593         estimate D2E/DX2                !
 ! D109  D(14,18,31,34)         58.3438         estimate D2E/DX2                !
 ! D110  D(27,18,31,32)        -61.758          estimate D2E/DX2                !
 ! D111  D(27,18,31,33)         57.8901         estimate D2E/DX2                !
 ! D112  D(27,18,31,34)        177.2932         estimate D2E/DX2                !
 --------------------------------------------------------------------------------
 Trust Radius=3.00D-01 FncErr=1.00D-07 GrdErr=1.00D-06 EigMax=2.50D+02 EigMin=1.00D-04
 Number of steps in this run=    228 maximum allowed number of steps=    228.
 GradGradGradGradGradGradGradGradGradGradGradGradGradGradGradGradGradGrad

                          Input orientation:                          
 ---------------------------------------------------------------------
 Center     Atomic      Atomic             Coordinates (Angstroms)
 Number     Number       Type             X           Y           Z
 ---------------------------------------------------------------------
      1         78           0       -0.905140    0.000010   -0.118530
      2          6           0        1.700730    1.202960   -0.299820
      3          6           0        1.700720   -1.202970   -0.299810
      4          6           0        3.024060    1.250880    0.007510
      5          6           0        3.024060   -1.250890    0.007520
      6          6           0        3.791030   -0.000010    0.214090
      7          1           0        3.562500    2.198720    0.092020
      8          1           0        3.562490   -2.198740    0.092040
      9          8           0        4.977410   -0.000010    0.523520
     10          7           0        1.035370   -0.000010   -0.422310
     11          6           0        0.760700    2.328370   -0.656630
     12          1           0        0.606730    2.329560   -1.751360
     13          1           0        1.122210    3.324400   -0.344990
     14          6           0        0.760690   -2.328380   -0.656610
     15          1           0        0.606730   -2.329580   -1.751340
     16          1           0        1.122190   -3.324410   -0.344960
     17          7           0       -0.605710    2.083980   -0.035340
     18          7           0       -0.605720   -2.083980   -0.035340
     19          6           0       -1.621960    2.908500   -0.742050
     20          1           0       -2.595070    2.781950   -0.245520
     21          1           0       -1.323150    3.972080   -0.699840
     22          1           0       -1.689540    2.579480   -1.789070
     23          6           0       -0.542380    2.494930    1.399590
     24          1           0       -0.298820    3.571490    1.452850
     25          1           0       -1.515070    2.316950    1.877970
     26          1           0        0.245470    1.915260    1.907100
     27          6           0       -1.621970   -2.908490   -0.742070
     28          1           0       -1.323170   -3.972070   -0.699870
     29          1           0       -2.595090   -2.781940   -0.245550
     30          1           0       -1.689530   -2.579460   -1.789090
     31          6           0       -0.542420   -2.494940    1.399580
     32          1           0       -1.515130   -2.317020    1.877940
     33          1           0       -0.298820   -3.571490    1.452840
     34          1           0        0.245380   -1.915250    1.907130
     35          6           0        5.977410   -0.000010    0.523520
     36          1           0        6.799014    0.679186    1.346759
     37          1           0        6.693739    0.358346   -0.490327
     38          1           0        6.539361   -1.059573    0.715729
 ---------------------------------------------------------------------
                    Distance matrix (angstroms):
                    1          2          3          4          5
     1  Pt   0.000000
     2  C    2.875850   0.000000
     3  C    2.875853   2.405930   0.000000
     4  C    4.125430   1.359393   2.804827   0.000000
     5  C    4.125440   2.804824   1.359403   2.501770   0.000000
     6  C    4.707935   2.465886   2.465888   1.481771   1.481761
     7  H    4.983820   2.147385   3.897595   1.093371   3.492401
     8  H    4.983830   3.897598   2.147392   3.492410   1.093376
     9  O    5.917484   3.586315   3.586319   2.376251   2.376243
    10  N    1.964144   1.380161   1.380148   2.388380   2.388377
    11  C    2.913046   1.509145   3.671692   2.593234   4.286607
    12  H    3.221597   2.138465   3.972730   3.178153   4.664415
    13  H    3.900385   2.199371   4.564405   2.835626   4.967351
    14  C    2.913060   3.671694   1.509142   4.286607   2.593241
    15  H    3.221616   3.972730   2.138458   4.664411   3.178151
    16  H    3.900398   4.564409   2.199373   4.967356   2.835637
    17  N    2.107014   2.483105   4.024128   3.724396   4.929343
    18  N    2.107033   4.024132   2.483101   4.929344   3.724403
    19  C    3.059726   3.760944   5.304712   4.989494   6.280755
    20  H    3.257481   4.577123   5.859722   5.829479   6.921160
    21  H    4.036086   4.119696   6.007076   5.177210   6.832131
    22  H    3.171696   3.950519   5.293268   5.216407   6.333837
    23  C    2.942942   3.096566   4.646926   4.025549   5.356167
    24  H    3.948712   3.560897   5.464929   4.302995   6.032069
    25  H    3.118692   4.040435   5.241552   5.023826   6.068918
    26  H    3.015835   2.737818   4.087978   3.430802   4.620982
    27  C    3.059742   5.304709   3.760939   6.280750   4.989501
    28  H    4.036103   6.007075   4.119693   6.832130   5.177222
    29  H    3.257501   5.859731   4.577125   6.921165   5.829494
    30  H    3.171704   5.293249   3.950503   6.333815   5.216401
    31  C    2.942958   4.646950   3.096577   5.356193   4.025577
    32  H    3.118751   5.241627   4.040469   6.068992   5.023878
    33  H    3.948726   5.464924   3.560875   6.032061   4.302983
    34  H    3.015828   4.088020   2.737872   4.621039   3.430883
    35  C    6.912432   4.518298   4.518303   3.248579   3.248574
    36  H    7.871616   5.383127   5.678583   4.046072   4.446238
    37  H    7.616404   5.067525   5.234907   3.809331   4.037826
    38  H    7.565666   5.437163   4.946143   4.265807   3.591031
                    6          7          8          9         10
     6  C    0.000000
     7  H    2.213942   0.000000
     8  H    2.213942   4.397460   0.000000
     9  O    1.226069   2.650014   2.650016   0.000000
    10  N    2.828191   3.389002   3.388998   4.053921   0.000000
    11  C    3.919491   2.902993   5.376361   4.959309   2.356205
    12  H    4.407908   3.485935   5.713155   5.450213   2.716064
    13  H    4.299636   2.722710   6.054010   5.164163   3.326443
    14  C    3.919488   5.376358   2.902993   4.959309   2.356194
    15  H    4.407899   5.713147   3.485927   5.450204   2.716054
    16  H    4.299637   6.054009   2.722713   5.164166   3.326433
    17  N    4.872017   4.171734   5.977609   5.985530   2.680654
    18  N    4.872018   5.977608   4.171735   5.985532   2.680644
    19  C    6.218850   5.298876   7.325171   7.322075   3.952603
    20  H    6.980889   6.194333   7.926964   8.103899   4.577188
    21  H    6.539694   5.257511   7.910472   7.547925   4.627865
    22  H    6.379895   5.591726   7.345324   7.513326   3.993361
    23  C    5.138928   4.318277   6.371043   6.120482   3.468911
    24  H    5.569292   4.318119   7.075102   6.438779   4.248753
    25  H    6.024242   5.383801   7.025854   7.025321   4.142986
    26  H    4.370988   3.791774   5.587670   5.289027   3.117427
    27  C    6.218848   7.325164   5.298878   7.322076   3.952589
    28  H    6.539696   7.910468   5.257518   7.547930   4.627852
    29  H    6.980898   7.926969   6.194343   8.103910   4.577185
    30  H    6.379877   7.345298   5.591718   7.513309   3.993336
    31  C    5.138954   6.371069   4.318296   6.120513   3.468916
    32  H    6.024306   7.025934   5.383833   7.025387   4.143035
    33  H    5.569277   7.075093   4.318094   6.438766   4.248732
    34  H    4.371060   5.587724   3.791851   5.289105   3.117454
    35  C    2.208168   3.294298   3.294302   1.000000   5.031735
    36  H    3.285150   3.789244   4.509087   2.111225   6.067166
    37  H    3.008379   3.678419   4.084430   2.025362   5.670114
    38  H    2.987915   4.457262   3.247837   1.897184   5.719416
                   11         12         13         14         15
    11  C    0.000000
    12  H    1.105505   0.000000
    13  H    1.104484   1.798139   0.000000
    14  C    4.656750   4.787336   5.672894   0.000000
    15  H    4.787337   4.659140   5.849020   1.105504   0.000000
    16  H    5.672895   5.849020   6.648810   1.104483   1.798135
    17  N    1.520791   2.115430   2.149473   4.660681   4.888167
    18  N    4.660680   4.888159   5.686141   1.520784   2.115422
    19  C    2.453756   2.514147   2.803765   5.754062   5.781281
    20  H    3.411149   3.567034   3.757967   6.127446   6.216652
    21  H    2.654445   2.743721   2.554446   6.636268   6.673905
    22  H    2.710932   2.310138   3.247493   5.601177   5.419700
    23  C    2.440041   3.358018   2.549988   5.402802   5.875773
    24  H    2.667927   3.553783   2.304910   6.354593   6.775654
    25  H    3.406385   4.204073   3.593293   5.760405   6.266113
    26  H    2.647420   3.699525   2.797545   4.984630   5.615457
    27  C    5.754052   5.781257   6.821812   2.453752   2.514133
    28  H    6.636259   6.673881   7.703525   2.654442   2.743698
    29  H    6.127445   6.216635   7.149517   3.411150   3.567027
    30  H    5.601151   5.419660   6.696781   2.710928   2.310124
    31  C    5.402818   5.875778   6.299146   2.440032   3.358003
    32  H    5.760477   6.266164   6.612307   3.406381   4.204060
    33  H    6.354588   6.775641   7.266692   2.667895   3.553749
    34  H    4.984650   5.615473   5.770165   2.647449   3.699547
    35  C    5.833367   6.280619   5.948023   5.833368   6.280612
    36  H    6.572260   7.118037   6.487316   7.037066   7.549521
    37  H    6.253767   6.521317   6.313520   6.515153   6.772502
    38  H    6.837723   7.264218   7.049104   6.073403   6.549462
                   16         17         18         19         20
    16  H    0.000000
    17  N    5.686140   0.000000
    18  N    2.149466   4.167960   0.000000
    19  C    6.821818   1.487292   5.143641   0.000000
    20  H    7.149513   2.118700   5.261080   1.099773   0.000000
    21  H    7.703531   2.126312   6.134503   1.105564   1.800166
    22  H    6.696805   2.120325   5.098833   1.099578   1.800979
    23  C    6.299124   1.493959   4.798901   2.433753   2.646187
    24  H    7.266693   2.126400   5.856043   2.647233   2.963207
    25  H    6.612224   2.131189   4.884246   2.688096   2.427310
    26  H    5.770143   2.127451   4.526756   3.389958   3.667914
    27  C    2.803765   5.143638   1.487296   5.816990   5.794359
    28  H    2.554449   6.134500   2.126316   6.887184   6.887739
    29  H    3.757968   5.261083   2.118709   5.794359   5.563890
    30  H    3.247496   5.098821   2.120326   5.587357   5.652197
    31  C    2.549974   4.798907   1.493951   5.911781   5.896210
    32  H    3.593268   4.884310   2.131191   5.846522   5.628041
    33  H    2.304865   5.856040   2.126394   6.968394   6.965873
    34  H    2.797577   4.526741   2.127447   5.811512   5.896248
    35  C    5.948029   6.927684   6.927688   8.234775   9.045338
    36  H    7.149617   7.662479   8.023426   8.958000   9.757345
    37  H    6.680269   7.514439   7.710647   8.701581   9.602904
    38  H    5.966597   7.842070   7.257113   9.191185   9.955859
                   21         22         23         24         25
    21  H    0.000000
    22  H    1.805547   0.000000
    23  C    2.683129   3.389790   0.000000
    24  H    2.417395   3.664455   1.105052   0.000000
    25  H    3.069429   3.680563   1.098476   1.798294   0.000000
    26  H    3.672494   4.224586   1.101949   1.801581   1.806019
    27  C    6.887185   5.587360   5.911782   6.968396   5.846474
    28  H    7.944150   6.651571   6.843936   7.911308   6.799548
    29  H    6.887743   5.652194   5.896224   6.965881   5.628007
    30  H    6.651569   5.158940   6.101890   7.090729   6.119853
    31  C    6.843935   6.101894   4.989870   6.071553   4.932463
    32  H    6.799602   6.119893   4.932537   6.027824   4.633970
    33  H    7.911304   7.090734   6.071541   7.142980   6.027746
    34  H    6.627008   6.132569   4.508642   5.532345   4.583836
    35  C    8.400731   8.413321   7.035616   7.280819   7.958649
    36  H    9.000070   9.246626   7.562789   7.665241   8.490492
    37  H    8.796220   8.769238   7.778059   7.937009   8.765244
    38  H    9.441422   9.339782   7.953189   8.291611   8.810537
                   26         27         28         29         30
    26  H    0.000000
    27  C    5.811540   0.000000
    28  H    6.627034   1.105561   0.000000
    29  H    5.896301   1.099777   1.800166   0.000000
    30  H    6.132581   1.099580   1.805542   1.800987   0.000000
    31  C    4.508682   2.433745   2.683128   2.646181   3.389782
    32  H    4.583967   2.688067   3.069388   2.427277   3.680543
    33  H    5.532362   2.647249   2.417420   2.963237   3.664466
    34  H    3.830510   3.389953   3.672507   3.667895   4.224582
    35  C    6.199814   8.234777   8.400739   9.045350   8.413305
    36  H    6.692593   9.388695   9.580853  10.137260   9.618092
    37  H    7.053497   8.937931   9.114124   9.808347   8.977566
    38  H    7.062723   8.494174   8.503290   9.344988   8.734919
                   31         32         33         34         35
    31  C    0.000000
    32  H    1.098476   0.000000
    33  H    1.105051   1.798281   0.000000
    34  H    1.101942   1.806008   1.801573   0.000000
    35  C    7.035648   7.958715   7.280808   6.199894   0.000000
    36  H    7.998407   8.853496   8.273980   7.070731   1.346871
    37  H    8.004686   8.952754   8.253205   7.245577   1.292065
    38  H    7.258068   8.234484   7.322143   6.462647   1.214664
                   36         37         38
    36  H    0.000000
    37  H    1.867861   0.000000
    38  H    1.867861   1.867860   0.000000
 Stoichiometry    C12H21N3OPt(2+)
 Framework group  C1[X(C12H21N3OPt)]
 Deg. of freedom   108
 Full point group                 C1      NOp   1
 Largest Abelian subgroup         C1      NOp   1
 Largest concise Abelian subgroup C1      NOp   1
                         Standard orientation:                         
 ---------------------------------------------------------------------
 Center     Atomic      Atomic             Coordinates (Angstroms)
 Number     Number       Type             X           Y           Z
 ---------------------------------------------------------------------
      1         78           0        1.322007   -0.000406   -0.003582
      2          6           0       -1.265761   -1.202818   -0.361605
      3          6           0       -1.265229    1.203112   -0.361750
      4          6           0       -2.606939   -1.250433   -0.144986
      5          6           0       -2.606397    1.251337   -0.145137
      6          6           0       -3.385911    0.000636    0.008872
      7          1           0       -3.150085   -2.198152   -0.097231
      8          1           0       -3.149123    2.199308   -0.097494
      9          8           0       -4.590589    0.000912    0.236897
     10          7           0       -0.593349    0.000002   -0.438637
     11          6           0       -0.303884   -2.328455   -0.653584
     12          1           0       -0.075816   -2.329764   -1.735307
     13          1           0       -0.685968   -3.324384   -0.367188
     14          6           0       -0.302865    2.328295   -0.653863
     15          1           0       -0.074807    2.329376   -1.735587
     16          1           0       -0.684508    3.324426   -0.367585
     17          7           0        1.017160   -2.084306    0.059184
     18          7           0        1.018074    2.083654    0.058917
     19          6           0        2.078943   -2.909097   -0.576719
     20          1           0        3.016057   -2.782714   -0.015164
     21          1           0        1.777723   -3.972610   -0.554861
     22          1           0        2.217647   -2.580174   -1.616740
     23          6           0        0.856295   -2.495129    1.486511
     24          1           0        0.609443   -3.571633    1.523152
     25          1           0        1.794236   -2.317318    2.029926
     26          1           0        0.035878   -1.915252    1.939225
     27          6           0        2.080216    2.907893   -0.577113
     28          1           0        1.779468    3.971539   -0.555401
     29          1           0        3.017286    2.781176   -0.015551
     30          1           0        2.218758    2.578766   -1.617092
     31          6           0        0.857418    2.494741    1.486183
     32          1           0        1.795303    2.316652    2.029602
     33          1           0        0.610993    3.571347    1.522682
     34          1           0        0.036797    1.915258    1.939015
     35          6           0       -5.588274    0.001124    0.168885
     36          1           0       -6.464113   -0.677833    0.934383
     37          1           0       -6.234069   -0.357160   -0.891310
     38          1           0       -6.161766    1.060822    0.322362
 ---------------------------------------------------------------------
 Rotational constants (GHZ):           0.5379860           0.2751561           0.1982624
 Standard basis: def2TZVPP (5D, 7F)
 There are   962 symmetry adapted cartesian basis functions of A   symmetry.
 There are   846 symmetry adapted basis functions of A   symmetry.
   846 basis functions,  1273 primitive gaussians,   962 cartesian basis functions
    69 alpha electrons       69 beta electrons
       nuclear repulsion energy      1508.9947060019 Hartrees.
 NAtoms=   38 NActive=   38 NUniq=   38 SFac= 1.00D+00 NAtFMM=   60 NAOKFM=F Big=F
 Integral buffers will be    131072 words long.
 Raffenetti 2 integral format.
 Two-electron integral symmetry is turned on.
 Nuclear repulsion after empirical dispersion term =     1508.9569315292 Hartrees.
 ------------------------------------------------------------------------------
 Polarizable Continuum Model (PCM)
 =================================
 Model                : PCM.
 Atomic radii         : UFF (Universal Force Field).
 Polarization charges : Total charges.
 Charge compensation  : None.
 Solution method      : On-the-fly selection.
 Cavity type          : Scaled VdW (van der Waals Surface) (Alpha=1.100).
 Cavity algorithm     : GePol (No added spheres)
                        Default sphere list used, NSphG=   38.
                        Lebedev-Laikov grids with approx.  5.0 points / Ang**2.
                        Smoothing algorithm: York/Karplus (Gamma=1.0000).
                        Polarization charges: spherical gaussians, with
                                              point-specific exponents (IZeta= 3).
                        Self-potential: point-specific (ISelfS= 7).
                        Self-field    : sphere-specific E.n sum rule (ISelfD= 2).
 1st derivatives      : Analytical E(r).r(x)/FMM algorithm (CHGder, D1EAlg=3).
                        Cavity 1st derivative terms included.
 Solvent              : Dichloromethane, Eps=   8.930000 Eps(inf)=   2.028346
 ------------------------------------------------------------------------------
 One-electron integrals computed using PRISM.
   1 Symmetry operations used in ECPInt.
 ECPInt:  NShTT=   50721 NPrTT=  131758 LenC2=   44488 LenP2D=   87738.
 LDataN:  DoStor=T MaxTD1= 9 Len=  602
 Number of processors reduced to  41 by ecpmxn.
 NBasis=   846 RedAO= T EigKep=  1.65D-05  NBF=   846
 NBsUse=   846 1.00D-06 EigRej= -1.00D+00 NBFU=   846
 Defaulting to unpruned grid for atomic number  78.
 ExpMin= 4.92D-02 ExpMax= 2.70D+04 ExpMxC= 9.22D+02 IAcc=3 IRadAn=         5 AccDes= 0.00D+00
 Harris functional with IExCor= 4639 and IRadAn=       5 diagonalized for initial guess.
 HarFok:  IExCor= 4639 AccDes= 0.00D+00 IRadAn=         5 IDoV= 1 UseB2=F ITyADJ=14
 ICtDFT=  3500011 ScaDFX=  1.000000  1.000000  1.000000  1.000000
 Defaulting to unpruned grid for atomic number  78.
 FoFCou: FMM=F IPFlag=           0 FMFlag=      100000 FMFlg1=           0
         NFxFlg=           0 DoJE=T BraDBF=F KetDBF=T FulRan=T
         wScrn=  0.000000 ICntrl=       500 IOpCl=  0 I1Cent=   200000004 NGrid=           0
         NMat0=    1 NMatS0=      1 NMatT0=    0 NMatD0=    1 NMtDS0=    0 NMtDT0=    0
 Petite list used in FoFCou.
 Requested convergence on RMS density matrix=1.00D-08 within 128 cycles.
 Requested convergence on MAX density matrix=1.00D-06.
 Requested convergence on             energy=1.00D-06.
 No special actions if energy rises.
 Defaulting to unpruned grid for atomic number  78.
 Defaulting to unpruned grid for atomic number  78.
 Defaulting to unpruned grid for atomic number  78.
 Defaulting to unpruned grid for atomic number  78.
 Defaulting to unpruned grid for atomic number  78.
 Defaulting to unpruned grid for atomic number  78.
 Defaulting to unpruned grid for atomic number  78.
 Defaulting to unpruned grid for atomic number  78.
 Defaulting to unpruned grid for atomic number  78.
 Defaulting to unpruned grid for atomic number  78.
 Defaulting to unpruned grid for atomic number  78.
 Defaulting to unpruned grid for atomic number  78.
 Defaulting to unpruned grid for atomic number  78.
 Defaulting to unpruned grid for atomic number  78.
 Defaulting to unpruned grid for atomic number  78.
 Defaulting to unpruned grid for atomic number  78.
 Defaulting to unpruned grid for atomic number  78.
 Defaulting to unpruned grid for atomic number  78.
 Defaulting to unpruned grid for atomic number  78.
 Defaulting to unpruned grid for atomic number  78.
 Defaulting to unpruned grid for atomic number  78.
 Defaulting to unpruned grid for atomic number  78.
 Defaulting to unpruned grid for atomic number  78.
 Defaulting to unpruned grid for atomic number  78.
 Defaulting to unpruned grid for atomic number  78.
 Defaulting to unpruned grid for atomic number  78.
 Defaulting to unpruned grid for atomic number  78.
 Defaulting to unpruned grid for atomic number  78.
 Defaulting to unpruned grid for atomic number  78.
 Defaulting to unpruned grid for atomic number  78.
 Defaulting to unpruned grid for atomic number  78.
 Defaulting to unpruned grid for atomic number  78.
 Defaulting to unpruned grid for atomic number  78.
 Defaulting to unpruned grid for atomic number  78.
 Defaulting to unpruned grid for atomic number  78.
 Defaulting to unpruned grid for atomic number  78.
 Defaulting to unpruned grid for atomic number  78.
 Defaulting to unpruned grid for atomic number  78.
 Defaulting to unpruned grid for atomic number  78.
 Defaulting to unpruned grid for atomic number  78.
 Defaulting to unpruned grid for atomic number  78.
 Defaulting to unpruned grid for atomic number  78.
 Defaulting to unpruned grid for atomic number  78.
 Defaulting to unpruned grid for atomic number  78.
 Defaulting to unpruned grid for atomic number  78.
 Defaulting to unpruned grid for atomic number  78.
 Defaulting to unpruned grid for atomic number  78.
 Defaulting to unpruned grid for atomic number  78.
 Inv3:  Mode=1 IEnd=    21147075.
 Iteration    1 A*A^-1 deviation from unit magnitude is 3.55D-15 for    334.
 Iteration    1 A*A^-1 deviation from orthogonality  is 1.68D-15 for   1753   1104.
 Iteration    1 A^-1*A deviation from unit magnitude is 3.33D-15 for    207.
 Iteration    1 A^-1*A deviation from orthogonality  is 2.44D-15 for   2507   1585.
 Error on total polarization charges =  0.02486
 SCF Done:  E(RwB97XD) =  -828.228462558     A.U. after   20 cycles
            NFock= 20  Conv=0.35D-08     -V/T= 2.1100

 **********************************************************************

            Population analysis using the SCF Density.

 **********************************************************************

 Orbital symmetries:
       Occupied  (A) (A) (A) (A) (A) (A) (A) (A) (A) (A) (A) (A)
                 (A) (A) (A) (A) (A) (A) (A) (A) (A) (A) (A) (A)
                 (A) (A) (A) (A) (A) (A) (A) (A) (A) (A) (A) (A)
                 (A) (A) (A) (A) (A) (A) (A) (A) (A) (A) (A) (A)
                 (A) (A) (A) (A) (A) (A) (A) (A) (A) (A) (A) (A)
                 (A) (A) (A) (A) (A) (A) (A) (A) (A)
       Virtual   (A) (A) (A) (A) (A) (A) (A) (A) (A) (A) (A) (A)
                 (A) (A) (A) (A) (A) (A) (A) (A) (A) (A) (A) (A)
                 (A) (A) (A) (A) (A) (A) (A) (A) (A) (A) (A) (A)
                 (A) (A) (A) (A) (A) (A) (A) (A) (A) (A) (A) (A)
                 (A) (A) (A) (A) (A) (A) (A) (A) (A) (A) (A) (A)
                 (A) (A) (A) (A) (A) (A) (A) (A) (A) (A) (A) (A)
                 (A) (A) (A) (A) (A) (A) (A) (A) (A) (A) (A) (A)
                 (A) (A) (A) (A) (A) (A) (A) (A) (A) (A) (A) (A)
                 (A) (A) (A) (A) (A) (A) (A) (A) (A) (A) (A) (A)
                 (A) (A) (A) (A) (A) (A) (A) (A) (A) (A) (A) (A)
                 (A) (A) (A) (A) (A) (A) (A) (A) (A) (A) (A) (A)
                 (A) (A) (A) (A) (A) (A) (A) (A) (A) (A) (A) (A)
                 (A) (A) (A) (A) (A) (A) (A) (A) (A) (A) (A) (A)
                 (A) (A) (A) (A) (A) (A) (A) (A) (A) (A) (A) (A)
                 (A) (A) (A) (A) (A) (A) (A) (A) (A) (A) (A) (A)
                 (A) (A) (A) (A) (A) (A) (A) (A) (A) (A) (A) (A)
                 (A) (A) (A) (A) (A) (A) (A) (A) (A) (A) (A) (A)
                 (A) (A) (A) (A) (A) (A) (A) (A) (A) (A) (A) (A)
                 (A) (A) (A) (A) (A) (A) (A) (A) (A) (A) (A) (A)
                 (A) (A) (A) (A) (A) (A) (A) (A) (A) (A) (A) (A)
                 (A) (A) (A) (A) (A) (A) (A) (A) (A) (A) (A) (A)
                 (A) (A) (A) (A) (A) (A) (A) (A) (A) (A) (A) (A)
                 (A) (A) (A) (A) (A) (A) (A) (A) (A) (A) (A) (A)
                 (A) (A) (A) (A) (A) (A) (A) (A) (A) (A) (A) (A)
                 (A) (A) (A) (A) (A) (A) (A) (A) (A) (A) (A) (A)
                 (A) (A) (A) (A) (A) (A) (A) (A) (A) (A) (A) (A)
                 (A) (A) (A) (A) (A) (A) (A) (A) (A) (A) (A) (A)
                 (A) (A) (A) (A) (A) (A) (A) (A) (A) (A) (A) (A)
                 (A) (A) (A) (A) (A) (A) (A) (A) (A) (A) (A) (A)
                 (A) (A) (A) (A) (A) (A) (A) (A) (A) (A) (A) (A)
                 (A) (A) (A) (A) (A) (A) (A) (A) (A) (A) (A) (A)
                 (A) (A) (A) (A) (A) (A) (A) (A) (A) (A) (A) (A)
                 (A) (A) (A) (A) (A) (A) (A) (A) (A) (A) (A) (A)
                 (A) (A) (A) (A) (A) (A) (A) (A) (A) (A) (A) (A)
                 (A) (A) (A) (A) (A) (A) (A) (A) (A) (A) (A) (A)
                 (A) (A) (A) (A) (A) (A) (A) (A) (A) (A) (A) (A)
                 (A) (A) (A) (A) (A) (A) (A) (A) (A) (A) (A) (A)
                 (A) (A) (A) (A) (A) (A) (A) (A) (A) (A) (A) (A)
                 (A) (A) (A) (A) (A) (A) (A) (A) (A) (A) (A) (A)
                 (A) (A) (A) (A) (A) (A) (A) (A) (A) (A) (A) (A)
                 (A) (A) (A) (A) (A) (A) (A) (A) (A) (A) (A) (A)
                 (A) (A) (A) (A) (A) (A) (A) (A) (A) (A) (A) (A)
                 (A) (A) (A) (A) (A) (A) (A) (A) (A) (A) (A) (A)
                 (A) (A) (A) (A) (A) (A) (A) (A) (A) (A) (A) (A)
                 (A) (A) (A) (A) (A) (A) (A) (A) (A) (A) (A) (A)
                 (A) (A) (A) (A) (A) (A) (A) (A) (A) (A) (A) (A)
                 (A) (A) (A) (A) (A) (A) (A) (A) (A) (A) (A) (A)
                 (A) (A) (A) (A) (A) (A) (A) (A) (A) (A) (A) (A)
                 (A) (A) (A) (A) (A) (A) (A) (A) (A) (A) (A) (A)
                 (A) (A) (A) (A) (A) (A) (A) (A) (A) (A) (A) (A)
                 (A) (A) (A) (A) (A) (A) (A) (A) (A) (A) (A) (A)
                 (A) (A) (A) (A) (A) (A) (A) (A) (A) (A) (A) (A)
                 (A) (A) (A) (A) (A) (A) (A) (A) (A) (A) (A) (A)
                 (A) (A) (A) (A) (A) (A) (A) (A) (A) (A) (A) (A)
                 (A) (A) (A) (A) (A) (A) (A) (A) (A) (A) (A) (A)
                 (A) (A) (A) (A) (A) (A) (A) (A) (A) (A) (A) (A)
                 (A) (A) (A) (A) (A) (A) (A) (A) (A) (A) (A) (A)
                 (A) (A) (A) (A) (A) (A) (A) (A) (A) (A) (A) (A)
                 (A) (A) (A) (A) (A) (A) (A) (A) (A) (A) (A) (A)
                 (A) (A) (A) (A) (A) (A) (A) (A) (A) (A) (A) (A)
                 (A) (A) (A) (A) (A) (A) (A) (A) (A) (A) (A) (A)
                 (A) (A) (A) (A) (A) (A) (A) (A) (A) (A) (A) (A)
                 (A) (A) (A) (A) (A) (A) (A) (A) (A) (A) (A) (A)
                 (A) (A) (A) (A) (A) (A) (A) (A) (A) (A) (A) (A)
                 (A) (A) (A) (A) (A) (A) (A) (A) (A)
 The electronic state is 1-A.
 Alpha  occ. eigenvalues --  -19.39962 -14.56822 -14.56820 -14.56687 -10.47982
 Alpha  occ. eigenvalues --  -10.42030 -10.42014 -10.40995 -10.39378 -10.39374
 Alpha  occ. eigenvalues --  -10.37152 -10.37131 -10.36230 -10.36228 -10.36148
 Alpha  occ. eigenvalues --  -10.36147  -4.09852  -2.34585  -2.34571  -2.30737
 Alpha  occ. eigenvalues --   -1.44564  -1.14967  -1.11221  -1.10471  -1.08002
 Alpha  occ. eigenvalues --   -0.97672  -0.93059  -0.88836  -0.87291  -0.86506
 Alpha  occ. eigenvalues --   -0.86466  -0.79686  -0.78072  -0.75772  -0.74588
 Alpha  occ. eigenvalues --   -0.74455  -0.72555  -0.68463  -0.67649  -0.65279
 Alpha  occ. eigenvalues --   -0.64775  -0.63547  -0.63205  -0.62150  -0.61910
 Alpha  occ. eigenvalues --   -0.61076  -0.58282  -0.57284  -0.56258  -0.54802
 Alpha  occ. eigenvalues --   -0.54189  -0.53515  -0.52783  -0.52004  -0.51917
 Alpha  occ. eigenvalues --   -0.51251  -0.50815  -0.50489  -0.50379  -0.49840
 Alpha  occ. eigenvalues --   -0.46807  -0.44688  -0.41529  -0.40705  -0.39750
 Alpha  occ. eigenvalues --   -0.39534  -0.37101  -0.36477  -0.34571
 Alpha virt. eigenvalues --   -0.07480  -0.04481  -0.01658   0.02312   0.05332
 Alpha virt. eigenvalues --    0.07286   0.08323   0.08426   0.09634   0.10584
 Alpha virt. eigenvalues --    0.11194   0.11803   0.12046   0.12223   0.13103
 Alpha virt. eigenvalues --    0.13629   0.13695   0.13864   0.14166   0.14692
 Alpha virt. eigenvalues --    0.15284   0.15608   0.15799   0.16567   0.17129
 Alpha virt. eigenvalues --    0.17756   0.18214   0.18692   0.18820   0.18917
 Alpha virt. eigenvalues --    0.19103   0.19559   0.20098   0.20264   0.20852
 Alpha virt. eigenvalues --    0.21033   0.22394   0.22902   0.23615   0.23733
 Alpha virt. eigenvalues --    0.24339   0.25439   0.26072   0.27151   0.27542
 Alpha virt. eigenvalues --    0.27882   0.27950   0.28965   0.29949   0.30411
 Alpha virt. eigenvalues --    0.31490   0.31784   0.32761   0.33400   0.33534
 Alpha virt. eigenvalues --    0.34424   0.34894   0.35044   0.35298   0.35474
 Alpha virt. eigenvalues --    0.36642   0.36936   0.37480   0.37843   0.38090
 Alpha virt. eigenvalues --    0.39062   0.40154   0.40390   0.40634   0.41191
 Alpha virt. eigenvalues --    0.41265   0.41852   0.42317   0.42412   0.43324
 Alpha virt. eigenvalues --    0.43702   0.43877   0.44525   0.45256   0.45701
 Alpha virt. eigenvalues --    0.46013   0.46685   0.46922   0.47285   0.47652
 Alpha virt. eigenvalues --    0.47794   0.48173   0.48629   0.48889   0.49355
 Alpha virt. eigenvalues --    0.49533   0.49883   0.50285   0.50612   0.51086
 Alpha virt. eigenvalues --    0.51659   0.52256   0.52754   0.53138   0.53699
 Alpha virt. eigenvalues --    0.54292   0.54740   0.55057   0.55534   0.55715
 Alpha virt. eigenvalues --    0.56851   0.58053   0.58716   0.59732   0.59917
 Alpha virt. eigenvalues --    0.60932   0.61191   0.61793   0.62714   0.63280
 Alpha virt. eigenvalues --    0.63844   0.63929   0.65014   0.66256   0.67305
 Alpha virt. eigenvalues --    0.67637   0.68323   0.68679   0.69222   0.69523
 Alpha virt. eigenvalues --    0.70842   0.72070   0.72344   0.72904   0.73569
 Alpha virt. eigenvalues --    0.74834   0.75886   0.76894   0.77166   0.78950
 Alpha virt. eigenvalues --    0.79347   0.80274   0.81769   0.81831   0.82056
 Alpha virt. eigenvalues --    0.82984   0.83460   0.84950   0.85373   0.86093
 Alpha virt. eigenvalues --    0.86514   0.87179   0.88004   0.88850   0.89184
 Alpha virt. eigenvalues --    0.90898   0.91576   0.91940   0.92605   0.93076
 Alpha virt. eigenvalues --    0.93387   0.94102   0.94891   0.95603   0.95792
 Alpha virt. eigenvalues --    0.96998   0.98050   0.98915   0.99125   0.99456
 Alpha virt. eigenvalues --    0.99889   1.00215   1.00700   1.01579   1.02220
 Alpha virt. eigenvalues --    1.02820   1.03129   1.04103   1.05238   1.05346
 Alpha virt. eigenvalues --    1.05595   1.05711   1.05991   1.06815   1.07578
 Alpha virt. eigenvalues --    1.08404   1.09249   1.09392   1.10101   1.11042
 Alpha virt. eigenvalues --    1.12574   1.13131   1.13402   1.14115   1.14222
 Alpha virt. eigenvalues --    1.15160   1.16094   1.16537   1.16956   1.17885
 Alpha virt. eigenvalues --    1.18679   1.19104   1.20240   1.20655   1.21362
 Alpha virt. eigenvalues --    1.21673   1.22509   1.22595   1.23576   1.24347
 Alpha virt. eigenvalues --    1.24840   1.25181   1.25923   1.27482   1.27934
 Alpha virt. eigenvalues --    1.28083   1.28417   1.29478   1.29927   1.30151
 Alpha virt. eigenvalues --    1.30770   1.31817   1.32313   1.33290   1.33930
 Alpha virt. eigenvalues --    1.34544   1.34902   1.35531   1.36455   1.36822
 Alpha virt. eigenvalues --    1.37123   1.37840   1.38646   1.39856   1.40669
 Alpha virt. eigenvalues --    1.40998   1.41645   1.42472   1.42724   1.43983
 Alpha virt. eigenvalues --    1.44549   1.44861   1.45282   1.45707   1.46783
 Alpha virt. eigenvalues --    1.47534   1.48383   1.48882   1.49319   1.49557
 Alpha virt. eigenvalues --    1.50333   1.50593   1.51345   1.52887   1.53924
 Alpha virt. eigenvalues --    1.54379   1.54574   1.54984   1.56572   1.56872
 Alpha virt. eigenvalues --    1.57277   1.57423   1.57960   1.58334   1.59532
 Alpha virt. eigenvalues --    1.59919   1.61220   1.62104   1.63038   1.63845
 Alpha virt. eigenvalues --    1.64019   1.64908   1.65210   1.65976   1.66636
 Alpha virt. eigenvalues --    1.67270   1.67965   1.69333   1.70087   1.71358
 Alpha virt. eigenvalues --    1.72040   1.73284   1.74252   1.75173   1.76017
 Alpha virt. eigenvalues --    1.76994   1.77490   1.78293   1.78822   1.79901
 Alpha virt. eigenvalues --    1.80371   1.82290   1.82466   1.84398   1.85245
 Alpha virt. eigenvalues --    1.85543   1.86145   1.86610   1.88424   1.89114
 Alpha virt. eigenvalues --    1.90354   1.90553   1.91915   1.92241   1.93247
 Alpha virt. eigenvalues --    1.96824   1.99035   2.01306   2.01552   2.04052
 Alpha virt. eigenvalues --    2.05179   2.05912   2.07627   2.08449   2.10719
 Alpha virt. eigenvalues --    2.13465   2.13614   2.15257   2.16845   2.17636
 Alpha virt. eigenvalues --    2.18861   2.19507   2.20825   2.22035   2.22335
 Alpha virt. eigenvalues --    2.23429   2.24818   2.26343   2.27282   2.29251
 Alpha virt. eigenvalues --    2.29930   2.30896   2.31989   2.32305   2.33146
 Alpha virt. eigenvalues --    2.37131   2.37323   2.38392   2.39460   2.44451
 Alpha virt. eigenvalues --    2.47387   2.52095   2.53648   2.54216   2.55173
 Alpha virt. eigenvalues --    2.55903   2.57296   2.57492   2.58682   2.60371
 Alpha virt. eigenvalues --    2.60730   2.60955   2.61699   2.62232   2.63174
 Alpha virt. eigenvalues --    2.63930   2.65893   2.67336   2.67874   2.68359
 Alpha virt. eigenvalues --    2.69058   2.69425   2.69747   2.70273   2.71684
 Alpha virt. eigenvalues --    2.73231   2.74326   2.75410   2.76070   2.77393
 Alpha virt. eigenvalues --    2.78414   2.78858   2.80176   2.80846   2.81001
 Alpha virt. eigenvalues --    2.81733   2.83228   2.83443   2.84084   2.84157
 Alpha virt. eigenvalues --    2.85075   2.85484   2.85669   2.86378   2.87836
 Alpha virt. eigenvalues --    2.88230   2.88993   2.89323   2.89702   2.90147
 Alpha virt. eigenvalues --    2.90385   2.90648   2.92266   2.92976   2.93680
 Alpha virt. eigenvalues --    2.94429   2.95000   2.95691   2.95724   2.96315
 Alpha virt. eigenvalues --    2.97182   2.97415   2.98490   2.98751   2.99590
 Alpha virt. eigenvalues --    2.99716   3.00207   3.02065   3.03992   3.04340
 Alpha virt. eigenvalues --    3.04908   3.05395   3.05576   3.06208   3.07321
 Alpha virt. eigenvalues --    3.08001   3.08468   3.09189   3.09602   3.10109
 Alpha virt. eigenvalues --    3.11182   3.11784   3.12428   3.12548   3.13475
 Alpha virt. eigenvalues --    3.13750   3.14675   3.15595   3.16681   3.17852
 Alpha virt. eigenvalues --    3.18691   3.18847   3.19680   3.21043   3.21709
 Alpha virt. eigenvalues --    3.22233   3.22693   3.23188   3.24097   3.25047
 Alpha virt. eigenvalues --    3.25479   3.26198   3.26441   3.28630   3.29367
 Alpha virt. eigenvalues --    3.29678   3.30446   3.31435   3.31685   3.32023
 Alpha virt. eigenvalues --    3.33101   3.33680   3.34237   3.34536   3.35569
 Alpha virt. eigenvalues --    3.36433   3.37247   3.38084   3.38486   3.39729
 Alpha virt. eigenvalues --    3.40246   3.40393   3.41371   3.41635   3.41793
 Alpha virt. eigenvalues --    3.42073   3.43251   3.43935   3.44029   3.44228
 Alpha virt. eigenvalues --    3.45210   3.45877   3.46572   3.47304   3.47976
 Alpha virt. eigenvalues --    3.48573   3.49118   3.49431   3.49919   3.51648
 Alpha virt. eigenvalues --    3.51953   3.52647   3.52903   3.53387   3.53650
 Alpha virt. eigenvalues --    3.53843   3.54573   3.54924   3.55622   3.57308
 Alpha virt. eigenvalues --    3.58206   3.59024   3.59742   3.60073   3.60589
 Alpha virt. eigenvalues --    3.61162   3.61606   3.62776   3.63462   3.63692
 Alpha virt. eigenvalues --    3.63912   3.64760   3.65826   3.66990   3.67533
 Alpha virt. eigenvalues --    3.67972   3.68101   3.68635   3.70238   3.70343
 Alpha virt. eigenvalues --    3.71503   3.71905   3.72306   3.72801   3.73027
 Alpha virt. eigenvalues --    3.73586   3.75025   3.75147   3.75533   3.76518
 Alpha virt. eigenvalues --    3.76676   3.77517   3.77940   3.78350   3.78597
 Alpha virt. eigenvalues --    3.80137   3.80444   3.80830   3.81931   3.82826
 Alpha virt. eigenvalues --    3.83348   3.83706   3.87239   3.87955   3.88470
 Alpha virt. eigenvalues --    3.89670   3.90438   3.90564   3.91629   3.92599
 Alpha virt. eigenvalues --    3.93653   3.93844   3.94114   3.94953   3.95938
 Alpha virt. eigenvalues --    3.96960   3.97743   3.98516   3.98864   3.99701
 Alpha virt. eigenvalues --    4.00313   4.00836   4.01469   4.01719   4.03393
 Alpha virt. eigenvalues --    4.03915   4.04647   4.05893   4.06695   4.08223
 Alpha virt. eigenvalues --    4.09003   4.09261   4.10474   4.10682   4.10982
 Alpha virt. eigenvalues --    4.11312   4.11866   4.13044   4.13589   4.14499
 Alpha virt. eigenvalues --    4.14858   4.15384   4.15646   4.16500   4.17341
 Alpha virt. eigenvalues --    4.18187   4.18486   4.18913   4.19025   4.19583
 Alpha virt. eigenvalues --    4.19995   4.20580   4.21096   4.21571   4.22117
 Alpha virt. eigenvalues --    4.23404   4.24013   4.25150   4.25478   4.26417
 Alpha virt. eigenvalues --    4.27014   4.27665   4.27838   4.28442   4.29235
 Alpha virt. eigenvalues --    4.29729   4.30813   4.31146   4.31493   4.33314
 Alpha virt. eigenvalues --    4.33726   4.34264   4.35427   4.35736   4.38374
 Alpha virt. eigenvalues --    4.39187   4.39332   4.40162   4.40471   4.41801
 Alpha virt. eigenvalues --    4.42422   4.43325   4.44445   4.46013   4.46287
 Alpha virt. eigenvalues --    4.46704   4.48657   4.48839   4.50481   4.53337
 Alpha virt. eigenvalues --    4.54309   4.55062   4.58790   4.60868   4.61379
 Alpha virt. eigenvalues --    4.66200   4.66605   4.67632   4.68729   4.70062
 Alpha virt. eigenvalues --    4.71528   4.71637   4.72601   4.73686   4.74464
 Alpha virt. eigenvalues --    4.75079   4.76052   4.77562   4.78283   4.79578
 Alpha virt. eigenvalues --    4.80409   4.81289   4.84265   4.84734   4.85157
 Alpha virt. eigenvalues --    4.86566   4.87047   4.87265   4.89038   4.89302
 Alpha virt. eigenvalues --    4.90349   4.92672   4.93569   4.94406   4.95762
 Alpha virt. eigenvalues --    4.96869   4.98336   4.99090   4.99778   5.00906
 Alpha virt. eigenvalues --    5.01178   5.02486   5.03582   5.03868   5.06908
 Alpha virt. eigenvalues --    5.07301   5.08354   5.09231   5.11353   5.12509
 Alpha virt. eigenvalues --    5.12727   5.14426   5.14867   5.15664   5.16159
 Alpha virt. eigenvalues --    5.17607   5.18216   5.18839   5.19126   5.20062
 Alpha virt. eigenvalues --    5.20539   5.22112   5.22938   5.24115   5.24322
 Alpha virt. eigenvalues --    5.26519   5.26992   5.27625   5.28260   5.29059
 Alpha virt. eigenvalues --    5.29325   5.30560   5.32289   5.32567   5.33044
 Alpha virt. eigenvalues --    5.33939   5.35351   5.35916   5.36828   5.37584
 Alpha virt. eigenvalues --    5.38220   5.39246   5.41422   5.42149   5.42486
 Alpha virt. eigenvalues --    5.43669   5.44978   5.46402   5.47301   5.48473
 Alpha virt. eigenvalues --    5.50196   5.50350   5.50929   5.52611   5.55274
 Alpha virt. eigenvalues --    5.55436   5.56277   5.56717   5.58903   5.59932
 Alpha virt. eigenvalues --    5.60824   5.61330   5.61844   5.61952   5.63531
 Alpha virt. eigenvalues --    5.65746   5.68009   5.68615   5.70346   5.70803
 Alpha virt. eigenvalues --    5.71121   5.71587   5.73154   5.74012   5.74905
 Alpha virt. eigenvalues --    5.76758   5.78734   5.81448   5.84743   5.85283
 Alpha virt. eigenvalues --    5.96305   5.99694   6.00767   6.02753   6.06638
 Alpha virt. eigenvalues --    6.08953   6.11610   6.16313   6.23699   6.24384
 Alpha virt. eigenvalues --    6.33337   6.47437   6.53535   6.64175   6.78899
 Alpha virt. eigenvalues --    6.98683   7.25475   7.41304   7.60927   7.86742
 Alpha virt. eigenvalues --    7.90738  22.81801  23.03984  23.06844  23.26810
 Alpha virt. eigenvalues --   23.32757  23.36214  23.41714  23.61432  23.64621
 Alpha virt. eigenvalues --   23.71491  23.74347  23.77014  29.69420  32.66567
 Alpha virt. eigenvalues --   32.76941  32.88134  35.20280  36.89516  45.30044
 Alpha virt. eigenvalues --   52.93987 285.00721
          Condensed to atoms (all electrons):
               1          2          3          4          5          6
     1  Pt  16.917176  -0.064115  -0.064747  -0.003319  -0.001831   0.002865
     2  C   -0.064115   5.255823  -0.104179   0.289074   0.025377   0.001432
     3  C   -0.064747  -0.104179   5.199416   0.020469   0.367782   0.002568
     4  C   -0.003319   0.289074   0.020469   5.341163  -0.098990   0.385277
     5  C   -0.001831   0.025377   0.367782  -0.098990   5.239127   0.375550
     6  C    0.002865   0.001432   0.002568   0.385277   0.375550   4.596802
     7  H   -0.000358  -0.013686  -0.001088   0.416754   0.005430  -0.027377
     8  H   -0.000341  -0.000736  -0.014524   0.004669   0.419166  -0.028377
     9  O   -0.000015   0.011844   0.007614  -0.067725  -0.065458   0.479434
    10  N    0.307602   0.377988   0.372329  -0.077184  -0.069426  -0.005231
    11  C   -0.016303   0.186669  -0.003864  -0.063228   0.000372   0.003946
    12  H   -0.006863  -0.025153   0.000943  -0.001697   0.000081  -0.000185
    13  H    0.008739  -0.044997  -0.000081  -0.004784  -0.000264   0.001344
    14  C   -0.016614  -0.004687   0.186026   0.001864  -0.064732   0.004457
    15  H   -0.006859   0.000942  -0.024947   0.000081  -0.001948  -0.000204
    16  H    0.008720  -0.000047  -0.045293  -0.000320  -0.004273   0.001361
    17  N    0.208095  -0.019225   0.001626   0.001685   0.000320  -0.000086
    18  N    0.208088   0.001682  -0.019487   0.000299   0.002518  -0.000139
    19  C   -0.036581   0.014856   0.000047   0.000174   0.000083  -0.000009
    20  H   -0.006849  -0.000711  -0.000008   0.000034   0.000002  -0.000002
    21  H    0.008438   0.001505   0.000004  -0.000040  -0.000005   0.000006
    22  H   -0.008036  -0.001075   0.000035  -0.000135   0.000004   0.000003
    23  C   -0.031141   0.006184  -0.000416   0.005310  -0.000244  -0.000358
    24  H    0.007403  -0.005456  -0.000009  -0.000120   0.000005  -0.000009
    25  H   -0.008118  -0.000675   0.000096  -0.000195  -0.000001   0.000014
    26  H   -0.009222   0.014401  -0.000833   0.004950   0.000361  -0.000600
    27  C   -0.036588   0.000044   0.014873   0.000083   0.000146  -0.000012
    28  H    0.008443   0.000004   0.001513  -0.000006  -0.000041   0.000006
    29  H   -0.006855  -0.000007  -0.000716   0.000002   0.000033  -0.000002
    30  H   -0.008030   0.000035  -0.001091   0.000005  -0.000139   0.000003
    31  C   -0.031135  -0.000432   0.006179  -0.000226   0.005181  -0.000349
    32  H   -0.008114   0.000096  -0.000665  -0.000000  -0.000201   0.000014
    33  H    0.007404  -0.000009  -0.005454   0.000006  -0.000128  -0.000007
    34  H   -0.009225  -0.000847   0.014274   0.000393   0.004929  -0.000609
    35  C   -0.000024  -0.004911  -0.003224   0.012691   0.011509  -0.100902
    36  H   -0.000001  -0.000771   0.000889   0.003990  -0.004342  -0.008103
    37  H   -0.000003  -0.002492  -0.000298   0.008687   0.000821  -0.006674
    38  H    0.000004   0.001585  -0.002540  -0.006474   0.012799  -0.019022
               7          8          9         10         11         12
     1  Pt  -0.000358  -0.000341  -0.000015   0.307602  -0.016303  -0.006863
     2  C   -0.013686  -0.000736   0.011844   0.377988   0.186669  -0.025153
     3  C   -0.001088  -0.014524   0.007614   0.372329  -0.003864   0.000943
     4  C    0.416754   0.004669  -0.067725  -0.077184  -0.063228  -0.001697
     5  C    0.005430   0.419166  -0.065458  -0.069426   0.000372   0.000081
     6  C   -0.027377  -0.028377   0.479434  -0.005231   0.003946  -0.000185
     7  H    0.471613  -0.000082  -0.000583   0.002631  -0.005154   0.000187
     8  H   -0.000082   0.471946  -0.001124   0.002652   0.000007   0.000001
     9  O   -0.000583  -0.001124   6.981117   0.000814  -0.000185   0.000002
    10  N    0.002631   0.002652   0.000814   6.348742   0.007757  -0.005973
    11  C   -0.005154   0.000007  -0.000185   0.007757   4.965831   0.429393
    12  H    0.000187   0.000001   0.000002  -0.005973   0.429393   0.495339
    13  H   -0.000210  -0.000003   0.000007   0.003464   0.442105  -0.010151
    14  C    0.000007  -0.005259  -0.000131   0.007144   0.002829  -0.000261
    15  H    0.000001   0.000192   0.000004  -0.005901  -0.000264  -0.000020
    16  H   -0.000003  -0.000241   0.000000   0.003402   0.000071  -0.000002
    17  N    0.000125   0.000001   0.000003  -0.014259   0.249936  -0.030887
    18  N    0.000000   0.000128   0.000002  -0.014416   0.000219   0.000084
    19  C   -0.000004   0.000000  -0.000000  -0.003558  -0.048039  -0.003032
    20  H    0.000000   0.000000   0.000000   0.000032   0.007817   0.000303
    21  H    0.000002  -0.000000  -0.000000   0.000120  -0.008647  -0.002369
    22  H   -0.000003   0.000000  -0.000000  -0.000424  -0.005912   0.002419
    23  C   -0.000035   0.000002  -0.000004  -0.005170  -0.034408   0.004444
    24  H   -0.000007  -0.000000   0.000000   0.000417  -0.004340   0.000005
    25  H   -0.000003  -0.000000  -0.000000  -0.000159   0.006527  -0.000132
    26  H    0.000223   0.000005  -0.000002  -0.003948  -0.015288   0.000249
    27  C    0.000000  -0.000002  -0.000000  -0.003552  -0.000359   0.000001
    28  H   -0.000000   0.000002  -0.000000   0.000120   0.000006  -0.000000
    29  H    0.000000   0.000000   0.000000   0.000032  -0.000004   0.000000
    30  H    0.000000  -0.000003  -0.000000  -0.000421  -0.000043   0.000002
    31  C    0.000002  -0.000037  -0.000004  -0.005146   0.000237  -0.000008
    32  H   -0.000000  -0.000003   0.000000  -0.000158  -0.000030   0.000000
    33  H   -0.000000  -0.000007   0.000000   0.000419   0.000004  -0.000000
    34  H    0.000005   0.000224  -0.000001  -0.003928   0.000063   0.000001
    35  C    0.001221   0.001355   0.490146   0.000030  -0.000050   0.000003
    36  H   -0.000462  -0.000293  -0.032804  -0.000009  -0.000014   0.000000
    37  H    0.000943   0.000424  -0.071284  -0.000016   0.000024  -0.000000
    38  H   -0.000126   0.000397  -0.059315  -0.000003  -0.000001  -0.000000
              13         14         15         16         17         18
     1  Pt   0.008739  -0.016614  -0.006859   0.008720   0.208095   0.208088
     2  C   -0.044997  -0.004687   0.000942  -0.000047  -0.019225   0.001682
     3  C   -0.000081   0.186026  -0.024947  -0.045293   0.001626  -0.019487
     4  C   -0.004784   0.001864   0.000081  -0.000320   0.001685   0.000299
     5  C   -0.000264  -0.064732  -0.001948  -0.004273   0.000320   0.002518
     6  C    0.001344   0.004457  -0.000204   0.001361  -0.000086  -0.000139
     7  H   -0.000210   0.000007   0.000001  -0.000003   0.000125   0.000000
     8  H   -0.000003  -0.005259   0.000192  -0.000241   0.000001   0.000128
     9  O    0.000007  -0.000131   0.000004   0.000000   0.000003   0.000002
    10  N    0.003464   0.007144  -0.005901   0.003402  -0.014259  -0.014416
    11  C    0.442105   0.002829  -0.000264   0.000071   0.249936   0.000219
    12  H   -0.010151  -0.000261  -0.000020  -0.000002  -0.030887   0.000084
    13  H    0.499814   0.000069  -0.000002  -0.000000  -0.023392  -0.000038
    14  C    0.000069   4.969648   0.429289   0.441905   0.000195   0.249473
    15  H   -0.000002   0.429289   0.495391  -0.010112   0.000084  -0.030872
    16  H   -0.000000   0.441905  -0.010112   0.499904  -0.000038  -0.023412
    17  N   -0.023392   0.000195   0.000084  -0.000038   6.333231  -0.009920
    18  N   -0.000038   0.249473  -0.030872  -0.023412  -0.009920   6.333228
    19  C   -0.004382  -0.000360   0.000001   0.000001   0.259526   0.000675
    20  H   -0.000336  -0.000004   0.000000   0.000000  -0.027430   0.000050
    21  H    0.003489   0.000006  -0.000000  -0.000000  -0.017571  -0.000014
    22  H   -0.000265  -0.000043   0.000002   0.000000  -0.030817   0.000077
    23  C   -0.011628   0.000240  -0.000008   0.000004   0.261002   0.000729
    24  H    0.003950   0.000004  -0.000000  -0.000000  -0.021229  -0.000030
    25  H    0.000082  -0.000030   0.000000   0.000000  -0.026105   0.000129
    26  H   -0.002738   0.000062   0.000001  -0.000002  -0.028707   0.000212
    27  C    0.000001  -0.048051  -0.003037  -0.004388   0.000675   0.259515
    28  H   -0.000000  -0.008664  -0.002368   0.003493  -0.000014  -0.017568
    29  H    0.000000   0.007828   0.000303  -0.000335   0.000050  -0.027435
    30  H    0.000000  -0.005884   0.002415  -0.000267   0.000077  -0.030835
    31  C    0.000004  -0.034347   0.004432  -0.011616   0.000728   0.261046
    32  H    0.000000   0.006523  -0.000133   0.000084   0.000129  -0.026108
    33  H   -0.000000  -0.004336   0.000005   0.003949  -0.000031  -0.021235
    34  H   -0.000002  -0.015205   0.000247  -0.002740   0.000211  -0.028698
    35  C   -0.000008  -0.000079   0.000002  -0.000005  -0.000000   0.000001
    36  H    0.000000  -0.000003  -0.000000   0.000000  -0.000000   0.000000
    37  H   -0.000003   0.000016  -0.000000  -0.000001  -0.000000   0.000000
    38  H    0.000000  -0.000029   0.000001  -0.000001   0.000000  -0.000000
              19         20         21         22         23         24
     1  Pt  -0.036581  -0.006849   0.008438  -0.008036  -0.031141   0.007403
     2  C    0.014856  -0.000711   0.001505  -0.001075   0.006184  -0.005456
     3  C    0.000047  -0.000008   0.000004   0.000035  -0.000416  -0.000009
     4  C    0.000174   0.000034  -0.000040  -0.000135   0.005310  -0.000120
     5  C    0.000083   0.000002  -0.000005   0.000004  -0.000244   0.000005
     6  C   -0.000009  -0.000002   0.000006   0.000003  -0.000358  -0.000009
     7  H   -0.000004   0.000000   0.000002  -0.000003  -0.000035  -0.000007
     8  H    0.000000   0.000000  -0.000000   0.000000   0.000002  -0.000000
     9  O   -0.000000   0.000000  -0.000000  -0.000000  -0.000004   0.000000
    10  N   -0.003558   0.000032   0.000120  -0.000424  -0.005170   0.000417
    11  C   -0.048039   0.007817  -0.008647  -0.005912  -0.034408  -0.004340
    12  H   -0.003032   0.000303  -0.002369   0.002419   0.004444   0.000005
    13  H   -0.004382  -0.000336   0.003489  -0.000265  -0.011628   0.003950
    14  C   -0.000360  -0.000004   0.000006  -0.000043   0.000240   0.000004
    15  H    0.000001   0.000000  -0.000000   0.000002  -0.000008  -0.000000
    16  H    0.000001   0.000000  -0.000000   0.000000   0.000004  -0.000000
    17  N    0.259526  -0.027430  -0.017571  -0.030817   0.261002  -0.021229
    18  N    0.000675   0.000050  -0.000014   0.000077   0.000729  -0.000030
    19  C    4.784559   0.412746   0.410333   0.425011  -0.041997  -0.007475
    20  H    0.412746   0.533411  -0.016204  -0.017337  -0.006901  -0.001213
    21  H    0.410333  -0.016204   0.516680  -0.018108  -0.007280   0.004013
    22  H    0.425011  -0.017337  -0.018108   0.528172   0.006263  -0.000171
    23  C   -0.041997  -0.006901  -0.007280   0.006263   4.799626   0.413839
    24  H   -0.007475  -0.001213   0.004013  -0.000171   0.413839   0.521992
    25  H   -0.007108   0.002703  -0.001054   0.000157   0.416811  -0.016679
    26  H    0.006477   0.000195  -0.000298  -0.000121   0.416244  -0.017104
    27  C   -0.000117  -0.000020   0.000003  -0.000021  -0.000055   0.000001
    28  H    0.000003   0.000000  -0.000000   0.000000   0.000001  -0.000000
    29  H   -0.000020  -0.000004   0.000000  -0.000002  -0.000003   0.000000
    30  H   -0.000021  -0.000002   0.000000  -0.000007  -0.000007   0.000000
    31  C   -0.000055  -0.000003   0.000001  -0.000007  -0.000057   0.000010
    32  H   -0.000008  -0.000003   0.000000  -0.000000   0.000006   0.000001
    33  H    0.000001   0.000000  -0.000000   0.000000   0.000010  -0.000000
    34  H   -0.000015   0.000001   0.000000  -0.000000  -0.000038  -0.000001
    35  C    0.000000  -0.000000   0.000000   0.000000  -0.000001  -0.000000
    36  H    0.000000  -0.000000  -0.000000  -0.000000   0.000000  -0.000000
    37  H    0.000000   0.000000  -0.000000   0.000000  -0.000000   0.000000
    38  H   -0.000000   0.000000   0.000000  -0.000000  -0.000000  -0.000000
[...]
 4,-0.00000947,-0.00000332,0.00000230,-0.00000381,0.00001015,-0.0000145
 0,0.00001456,-0.00000378,0.00002088,0.00001384,-0.00002262,0.00006619,
 -0.00000883,0.00109235,-0.00008025,-0.00013022,-0.00001424,0.00047828,
 -0.00000405,0.00011335,0.00062303,-0.00004775,0.00013687,-0.16517989,-
 0.09342720,-0.10327506,-0.01539412,-0.01581692,-0.01726473,0.00477126,
 0.00419659,0.00482917,0.17060411,0.00104569,-0.00092057,0.00158891,-0.
 00008409,-0.00015861,0.00001573,0.00000629,0.00055017,0.00002227,0.000
 07093,-0.00002827,0.00001531,0.00002129,-0.00000281,-0.00000008,-0.000
 14291,0.00000580,0.00000575,0.00000473,-0.00000142,-0.00000302,0.00002
 008,-0.00000060,-0.00001653,0.00014489,-0.00001472,0.00001281,-0.00041
 799,0.00020455,0.00000350,-0.00004421,-0.00001730,0.00000768,-0.000000
 32,0.00000028,-0.00000395,0.00000772,0.00000474,0.00000439,0.00005304,
 0.00045203,-0.00056111,0.00013597,-0.00013383,0.00006164,-0.00003860,-
 0.00039330,-0.00002578,-0.00007282,0.00013486,0.00000234,0.00903840,0.
 00549916,0.00867617,0.00003800,0.00000715,0.00003054,-0.00000198,-0.00
 000188,0.00000129,-0.00001057,0.00001680,-0.00000664,-0.00000303,0.000
 00027,-0.00000410,0.00001890,0.00002612,-0.00005002,-0.00000513,0.0000
 2099,-0.00000754,0.00000701,-0.00001266,-0.00000383,-0.00005269,0.0000
 1009,0.00004657,-0.00050321,-0.00015593,0.00126773,0.00002441,0.000456
 05,0.00037029,-0.00009317,-0.00018137,0.00004977,0.00009334,0.00065683
 ,0.00036675,-0.09470811,-0.12351784,-0.08580778,0.00489114,0.00354911,
 0.00480629,-0.01995572,-0.01291924,-0.01732566,0.10053905,0.12683552,-
 0.00014620,-0.00082950,-0.00035071,-0.00001542,0.00004459,-0.00003050,
 0.00084968,0.00016160,-0.00033342,0.00001653,-0.00007035,-0.00001891,0
 .00001066,-0.00005893,0.00004404,0.00019721,0.00013972,0.00001257,0.00
 000293,-0.00000121,0.00000369,0.00000248,-0.00000334,0.00000514,-0.000
 16293,-0.00001203,-0.00001642,0.00015609,0.00003901,-0.00047542,-0.000
 09130,0.00002082,0.00004960,0.00001980,-0.00000237,-0.00000384,0.00002
 290,-0.00000192,-0.00000458,-0.00166340,-0.00034932,0.00023645,-0.0001
 1768,-0.00006392,0.00018445,0.00026012,-0.00023958,-0.00013582,0.00000
 183,0.00035088,-0.00001424,-0.02143738,-0.01630193,-0.02365881,0.00003
 798,0.00004851,0.00002128,0.00000042,0.00000034,-0.00000032,-0.0000157
 7,0.00001094,-0.00001701,-0.00000466,0.00000038,-0.00001097,0.00003853
 ,0.00000098,-0.00004607,-0.00000108,0.00000457,0.00000664,-0.00000262,
 0.00000391,0.00000452,-0.00000439,0.00000063,-0.00000945,0.00236854,0.
 00331658,-0.00521322,0.00013321,-0.00000975,0.00008829,-0.00004111,0.0
 0014092,0.00019609,-0.00111054,-0.00115424,-0.00099107,-0.09475915,-0.
 07837250,-0.13750842,0.00550613,0.00550972,0.00693296,0.00219295,0.001
 23958,0.00287846,0.10772045,0.08646408,0.15817509,0.00040539,0.0001273
 1,-0.00019789,-0.00288284,0.00024988,-0.00066004,-0.00353058,0.0027259
 6,-0.00044236,0.00288704,-0.00528344,-0.00027234,0.00521815,0.00311431
 ,0.00052937,-0.05572302,0.03098302,-0.00372015,0.00003315,0.00028691,0
 .00012013,-0.00200825,0.00018029,-0.00000008,-0.11220427,0.04164271,-0
 .00330906,0.00193109,-0.00027493,0.00049866,-0.00027757,-0.00002085,0.
 00025590,0.00013511,-0.00001638,-0.00004364,0.00003464,-0.00001439,-0.
 00001367,0.00006669,-0.00028934,0.00022278,0.00018205,0.00004064,-0.00
 004384,0.00006983,0.00004295,-0.00003858,0.00014052,0.00002443,0.00001
 817,0.00022023,0.00015377,0.00001477,-0.00009073,0.00008165,-0.0001650
 8,0.00003907,0.00000202,0.00000796,0.00000691,-0.00004480,0.00000733,-
 0.00000430,0.00000518,-0.00000469,-0.00001699,0.00001959,0.00019919,-0
 .00000526,-0.00004795,-0.00001493,0.00001414,-0.00000780,-0.00001538,-
 0.00000781,-0.00000924,0.00002915,-0.00003616,-0.00011264,-0.00019589,
 0.00000405,0.00004542,0.00000981,0.00004199,0.00002127,0.00002708,-0.0
 0000637,-0.00001284,-0.00000452,0.00001570,-0.00007488,0.00023831,0.00
 000692,0.00000132,-0.00003057,-0.00001126,0.00005195,-0.00001552,-0.00
 001253,-0.00003410,0.00003870,0.57330636,-0.00051973,-0.00006085,0.000
 24060,0.00190184,0.00083714,0.00018806,0.00472942,-0.00217066,0.000599
 24,-0.00764408,0.00247196,-0.00075829,-0.01237870,-0.00109023,-0.00095
 880,0.01602044,0.00829802,0.00190521,-0.00005537,0.00004499,-0.0000417
 7,-0.00214465,0.00013974,-0.00021139,0.06941364,-0.18130149,0.00273444
 ,-0.00215417,0.00139143,-0.00053720,0.00001365,-0.00032847,-0.00005945
 ,-0.00009740,0.00000578,0.00003371,-0.00002796,0.00001346,0.00002306,0
 .00003574,0.00029425,-0.00028267,-0.00022314,-0.00005116,0.00005776,-0
 .00007861,-0.00006405,0.00004002,-0.00028191,0.00005818,-0.00010154,-0
 .00021259,-0.00017322,0.00000133,0.00006556,-0.00012009,0.00023029,-0.
 00005803,0.00000706,-0.00002062,-0.00000581,0.00005169,-0.00000813,0.0
 0000741,-0.00000605,0.00000361,0.00001362,-0.00002621,-0.00025799,0.00
 000701,0.00005597,0.00001941,-0.00001847,0.00001153,0.00002347,0.00001
 001,0.00001209,-0.00003309,0.00005602,0.00012320,0.00022383,-0.0000069
 9,-0.00005773,-0.00001210,-0.00004396,-0.00002138,-0.00003099,0.000005
 18,0.00001615,0.00000601,-0.00001531,0.00008420,-0.00028942,-0.0000039
 1,-0.00000130,0.00003677,0.00000903,-0.00006642,0.00001953,0.00000991,
 0.00004666,-0.00004280,0.09203775,0.50995370,0.00002058,0.00001414,-0.
 00015690,-0.00043777,0.00013666,0.00178676,-0.00022438,0.00022285,0.00
 052871,-0.00052129,-0.00055404,0.00452199,0.00038652,0.00019456,-0.001
 56230,-0.00435273,0.00347452,-0.00580353,0.00006264,-0.00001943,-0.000
 59798,-0.00014840,0.00010468,-0.00054844,-0.00211249,-0.00005717,-0.06
 195474,0.00018190,-0.00002671,-0.00004237,0.00004497,0.00000327,-0.000
 52226,-0.00008348,0.00009671,-0.00001316,0.00002675,-0.00004458,0.0000
 2110,-0.00001854,-0.00002288,0.00014381,0.00001947,0.00002443,-0.00000
 409,-0.00000653,0.,-0.00000101,0.00003960,-0.00004572,-0.00006017,0.00
 001049,-0.00000215,-0.00001006,-0.00000695,0.00000452,-0.00001603,0.00
 000253,0.00000048,0.00000384,0.00000128,-0.00000250,0.00000135,-0.0000
 0145,0.00000057,0.00000426,0.00001303,-0.00000339,0.00004292,-0.000001
 67,-0.00000611,-0.00000482,0.00000125,0.00000001,-0.00000307,-0.000006
 91,0.00000434,0.00000118,0.00000370,-0.00000457,-0.00000822,-0.0000017
 5,0.00000160,0.00000332,0.00000385,0.00000040,0.00000012,-0.00000461,0
 .00000072,-0.00000531,0.00000421,-0.00000562,0.00003887,-0.00000339,0.
 00000093,-0.00000722,0.00000253,0.00000858,0.00000024,0.00000428,-0.00
 000902,-0.00000149,0.00071924,0.00511680,0.59476726,-0.00001845,-0.000
 00393,0.00002594,0.00021515,0.00038595,0.00004643,0.00029296,-0.000143
 37,0.00004096,-0.00118271,-0.00011947,-0.00012376,-0.00013893,0.000055
 77,-0.00002124,0.00147241,0.00324489,0.00027407,0.00000114,0.00000333,
 -0.00000220,0.00011866,0.00001729,0.00003309,-0.02680716,-0.00070300,-
 0.00248537,-0.00015012,-0.00001565,-0.00005255,-0.00000399,-0.00007337
 ,-0.00002737,-0.00003001,0.00000907,0.00000469,-0.00000754,0.00000214,
 0.00000569,0.00001641,0.00003562,-0.00003214,-0.00002675,-0.00001146,0
 .00000545,-0.00000933,-0.00000410,0.00000587,-0.00004947,0.00002852,-0
 .00001540,-0.00002924,-0.00002108,-0.00000305,0.00000466,-0.00002139,0
 .00003616,-0.00000981,0.00000233,-0.00000404,0.,0.00000693,-0.00000095
 ,0.00000149,-0.00000053,0.00000079,0.00000014,-0.00000734,-0.00003779,
 0.00000042,0.00000774,0.00000175,-0.00000319,0.00000190,0.00000492,0.0
 0000241,0.00000101,-0.00000497,0.00000614,0.00001706,0.00002968,-0.000
 00020,-0.00000611,-0.00000171,-0.00000672,-0.00000306,-0.00000372,0.00
 000127,0.00000133,0.00000060,-0.00000228,0.00001079,-0.00003433,-0.000
 00188,-0.00000024,0.00000457,0.00000230,-0.00000676,0.00000213,0.00000
 274,0.00000384,-0.00000643,-0.28491141,-0.10107312,-0.02344879,0.31388
 982,0.00003518,-0.00000372,-0.00001373,-0.00030355,-0.00060396,-0.0000
 2072,0.00002356,0.00037519,0.00001648,0.00154052,0.00023139,0.00013523
 ,-0.00010760,-0.00089449,-0.00007906,0.00263040,-0.00438617,0.00006159
 ,-0.00003250,-0.00000580,-0.00000455,-0.00023527,0.00057982,0.00001037
 ,0.03989034,0.00542871,0.00369178,-0.00007277,0.00029476,0.00002342,0.
 00004421,0.00008242,0.00000857,0.00001292,-0.00000207,-0.00000036,-0.0
 0000002,0.00000431,-0.00000354,0.00003911,-0.00001376,0.00000279,0.000
 00396,-0.00000075,-0.00000107,0.00000684,0.00001436,-0.00000095,0.0000
 3869,-0.00002421,0.00001509,-0.00000053,0.00001088,0.00000042,0.000006
 72,0.00001398,-0.00001910,0.00000627,-0.00000282,0.00000337,-0.0000008
 7,-0.00000176,-0.00000011,-0.00000106,-0.00000004,-0.00000044,0.000002
 31,0.00000569,0.00001768,-0.00000054,-0.00000219,-0.00000073,0.0000021
 9,-0.00000115,-0.00000279,-0.00000224,-0.00000116,0.00000197,-0.000003
 72,0.00000051,-0.00000431,0.00000153,0.00000310,0.00000066,-0.00000038
 ,-0.00000013,0.00000068,0.00000054,-0.00000122,-0.00000005,-0.00000144
 ,-0.00000036,0.00000915,-0.00000170,-0.00000016,-0.00000066,0.00000133
 ,0.00000329,-0.00000131,0.00000181,-0.00000361,-0.00000001,-0.11708623
 ,-0.09500444,-0.01164235,0.10235225,0.10281586,-0.00000120,-0.00000278
 ,-0.00000160,0.00001043,0.00000779,0.00001727,0.00001464,-0.00000131,0
 .00014306,-0.00007855,-0.00001306,0.00022748,-0.00003705,-0.00005234,0
 .00019035,0.00016971,0.00014566,0.00023379,0.00000018,0.00000005,-0.00
 000242,0.00002881,0.00002382,-0.00033981,-0.00124535,0.00008415,0.0005
 1379,-0.00001662,0.00001926,-0.00006576,0.00000589,0.00000092,-0.00004
 315,-0.00000915,0.00000722,-0.00000002,0.00000081,-0.00000287,0.000002
 84,-0.00000229,0.00000818,0.00001866,0.00000260,0.00000055,0.00000152,
 0.00000176,-0.00000354,-0.00000158,0.00000079,-0.00000351,-0.00000491,
 -0.00000259,-0.00000458,-0.00000097,0.00000119,-0.00000177,0.00000282,
 -0.00000060,0.00000020,0.00000019,-0.00000009,0.00000072,0.00000019,0.
 00000003,-0.00000046,-0.00000005,0.00000129,-0.00000011,-0.00000074,0.
 00000045,0.00000029,0.00000052,-0.00000050,0.00000010,-0.00000046,0.,0
 .00000126,-0.00000077,0.00000018,0.00000192,0.00000334,0.00000015,-0.0
 0000045,-0.00000024,-0.00000078,-0.00000044,-0.00000059,0.00000017,-0.
 00000002,0.00000012,-0.00000070,0.00000122,-0.00000390,0.00000030,-0.0
 0000019,0.00000129,-0.00000041,-0.00000096,-0.00000027,-0.00000048,0.0
 0000150,-0.00000036,-0.02387164,-0.01024689,-0.05417553,0.02646783,0.0
 1071219,0.04956248,-0.00000029,0.00002542,0.00005172,0.00096178,0.0007
 2727,-0.00012936,-0.00073994,0.00037015,-0.00061587,-0.00130289,0.0005
 4142,-0.00083478,0.00041527,-0.00089082,-0.00015962,0.00531019,0.00156
 502,0.00269313,0.00002299,-0.00007011,0.00011215,-0.00248562,-0.000315
 76,0.00159659,-0.00642435,0.02024893,0.01952826,0.00002179,-0.00116441
 ,0.00003628,0.00000438,-0.00000440,0.00002884,-0.00001973,-0.00001081,
 0.00000844,-0.00000818,0.00000212,-0.00000343,-0.00001696,0.00001147,0
 .00007967,0.00002290,0.00001407,-0.00000440,0.00000395,-0.00000623,-0.
 00000002,-0.00002857,0.00001845,0.00001731,0.00000733,0.00000089,-0.00
 000330,-0.00000083,-0.00000936,0.00001195,-0.00000384,0.00000119,-0.00
 000145,0.00000103,0.00000045,-0.00000010,0.00000130,0.00000100,0.00000
 014,-0.00000579,-0.00000567,-0.00001590,0.00000150,0.00000171,0.000000
 45,-0.00000231,0.00000025,0.00000185,0.00000465,0.00000063,-0.00000226
 ,0.00000324,-0.00000433,-0.00000197,-0.00000138,-0.00000156,-0.0000008
 9,0.00000179,0.00000094,-0.00000005,-0.00000046,0.00000080,-0.00000090
 ,0.00000376,-0.00000425,-0.00000214,0.00000210,0.00000052,-0.00000064,
 -0.00000126,-0.00000204,0.00000097,-0.00000216,0.00000169,0.00000113,-
 0.05466928,-0.01708164,-0.02596377,0.00081381,-0.01384306,-0.02541068,
 0.05658111,0.00008328,0.00001740,-0.00005037,-0.00070445,-0.00024075,0
 .00013838,-0.00070948,0.00020046,-0.00011935,0.00142901,-0.00064532,0.
 00066799,0.00124087,0.00127505,0.00022040,-0.00690150,-0.00062492,-0.0
 0136975,-0.00003317,0.00009775,-0.00011671,-0.00046121,-0.00025137,0.0
 0023029,0.01211284,-0.02594120,-0.02151328,0.00047039,0.00007174,0.000
 05874,-0.00001400,0.00005115,-0.00003360,0.00001788,0.00000917,-0.0000
 0834,0.00000767,-0.00000592,-0.00000090,-0.00001259,-0.00003809,0.0000
 4381,0.00003183,0.00001085,-0.00000868,0.00001152,0.00000205,-0.000003
 69,0.00005148,-0.00001679,0.00001101,0.00003898,0.00001534,0.00000584,
 -0.00001504,0.00002084,-0.00004336,0.00000984,-0.00000114,0.00000419,0
 .00000183,-0.00001005,0.00000124,-0.00000058,0.00000164,0.00000003,-0.
 00000139,0.00000402,0.00004758,-0.00000141,-0.00001029,-0.00000377,0.0
 0000314,-0.00000214,-0.00000449,-0.00000203,-0.00000262,0.00000567,-0.
 00000942,-0.00002052,-0.00003952,0.00000105,0.00000887,0.00000232,0.00
 000764,0.00000377,0.00000517,-0.00000101,-0.00000237,-0.00000052,0.000
 00239,-0.00001269,0.00004821,0.00000106,0.00000003,-0.00000572,-0.0000
 0314,0.00001005,-0.00000319,-0.00000200,-0.00000697,0.00000742,-0.0132
 6467,-0.11494806,-0.11127457,-0.00111486,-0.00420211,-0.01038576,0.006
 74923,0.13349510,0.00006750,0.00000971,0.00000927,-0.00016930,0.000001
 87,-0.00004319,-0.00039469,0.00046801,-0.00020602,0.00045047,-0.000105
 75,-0.00026150,0.00053964,-0.00067019,0.00007364,-0.00097614,-0.000401
 15,0.00116139,-0.00002820,0.00003704,0.00001787,0.00021579,0.00052547,
 -0.00012869,0.00325850,0.00123991,0.00816795,0.00002090,-0.00009371,-0
 .00000411,0.00001035,0.00001865,0.00000115,-0.00001254,0.00000582,0.00
 000311,-0.00000747,0.00000641,0.,0.00002813,0.00001658,0.00002532,-0.0
 0000010,-0.00000734,-0.00000077,0.00000878,0.00000900,-0.00000016,-0.0
 0000220,0.00001341,0.00000886,-0.00000880,-0.00000372,-0.00000808,-0.0
 0000014,-0.00000025,0.00000152,-0.00000037,-0.00000003,-0.00000014,0.0
 0000013,0.00000004,-0.00000056,0.00000050,0.00000019,0.00000011,-0.000
 00235,-0.00000081,-0.00000455,-0.00000022,0.00000043,0.00000003,-0.000
 00017,0.00000017,0.00000122,0.00000134,-0.00000203,-0.00000030,-0.0000
 0626,0.00000456,0.00000628,0.00000177,0.00000204,-0.00000012,-0.000003
 34,-0.00000158,-0.00000114,0.00000122,-0.00000113,0.00000045,-0.000003
 16,-0.00000058,-0.00000530,-0.00000181,-0.00000026,0.00000214,0.000000
 77,0.00000166,-0.00000062,0.00000071,-0.00000191,-0.00000076,-0.021017
 88,-0.11682325,-0.25173512,0.00025587,0.00059956,-0.00051131,0.0215761
 7,0.12825206,0.26171882,0.00000097,0.00003139,-0.00004355,0.00085441,0
 .00072380,0.00041683,-0.00082920,0.00037706,0.00042803,-0.00138260,0.0
 0048109,0.00066447,0.00006600,-0.00081982,0.00039980,0.00548160,0.0017
 1677,-0.00175680,0.00003825,-0.00007575,-0.00011529,-0.00199834,-0.000
 11949,-0.00143599,-0.00216748,0.02156839,-0.02034569,0.00004949,-0.001
 12153,-0.00007421,0.00002849,-0.00000124,-0.00016738,-0.00005010,0.000
 02270,0.00000400,-0.00000109,-0.00001153,0.00000454,-0.00001121,0.0000
 1744,0.00001415,0.00002053,-0.00000251,-0.00000659,0.00000788,-0.00000
 546,0.00000118,-0.00001091,0.00000193,-0.00000080,0.00001347,0.0000050
 9,-0.00001359,-0.00000167,-0.00000905,0.00000799,-0.00000356,0.0000012
 5,-0.00000042,0.00000166,0.00000034,0.00000050,0.00000075,0.00000085,0
 .00000220,-0.00000306,-0.00000770,-0.00000473,0.00000083,-0.00000014,-
 0.00000034,-0.00000250,0.00000017,0.00000168,0.00000274,0.00000235,-0.
 00000208,0.00000244,-0.00000534,-0.00000274,-0.00000132,-0.00000163,-0
 .00000027,0.00000168,0.00000090,0.00000013,-0.00000124,0.00000092,-0.0
 0000048,0.00000585,-0.00000396,0.00000234,0.00000239,0.00000012,-0.000
 00026,-0.00000209,-0.00000102,0.00000070,-0.00000312,0.00000223,0.0000
 0179,-0.06836042,-0.04021066,0.05579611,-0.00345275,-0.01494718,0.0239
 7145,0.00152898,0.00098001,-0.00380341,0.07017423,0.00008434,0.0000213
 1,-0.00004196,-0.00066142,-0.00024236,-0.00032371,-0.00080143,0.000193
 85,-0.00004670,0.00159313,-0.00063715,-0.00042542,0.00153300,0.0011288
 0,-0.00019612,-0.00719239,-0.00061330,-0.00007596,-0.00005403,0.000109
 94,0.00012741,-0.00024862,-0.00021378,-0.00003629,0.00869345,-0.027267
 17,0.02134551,0.00050156,0.00003238,0.00014353,-0.00003731,0.00004532,
 0.00009939,0.00003866,-0.00001421,-0.00000945,0.00000509,-0.00000009,-
 0.00000581,-0.00001740,-0.00004832,0.00002506,0.00003329,0.00000704,-0
 .00001025,0.00001042,0.00000580,-0.00000497,0.00004736,-0.00000567,0.0
 0001590,0.00004311,0.00002221,0.00000151,-0.00001536,0.00002220,-0.000
 04535,0.00001162,-0.00000052,0.00000309,0.00000107,-0.00001082,0.00000
 211,-0.00000184,0.00000121,-0.00000217,-0.00000260,0.00000519,0.000055
 85,-0.00000127,-0.00001201,-0.00000424,0.00000349,-0.00000249,-0.00000
 534,-0.00000250,-0.00000025,0.00000626,-0.00000981,-0.00002417,-0.0000
 4413,0.00000037,0.00000998,0.00000259,0.00000978,0.00000410,0.00000606
 ,-0.00000154,-0.00000267,-0.00000128,0.00000497,-0.00001363,0.00005829
 ,0.00000203,-0.00000036,-0.00000724,-0.00000345,0.00001100,-0.00000463
 ,-0.00000303,-0.00000625,0.00000852,-0.03524387,-0.12842540,0.11431002
 ,-0.00285890,-0.00470818,0.00970407,0.00313086,0.01168802,-0.01309892,
 0.03140919,0.14894044,-0.00006065,-0.00000176,0.00001752,0.00028649,0.
 00010203,-0.00001752,0.00024436,-0.00037414,-0.00010515,-0.00053017,0.
 00015124,-0.00023261,0.00018187,0.00025755,-0.00031366,0.00140919,0.00
 051602,0.00094660,0.00003159,-0.00004211,0.00000342,-0.00054274,-0.000
 38557,-0.00020529,-0.00467487,0.00051373,0.00527120,0.00000025,-0.0000
 8560,-0.00003558,-0.00000922,-0.00001223,0.00002490,0.00001349,-0.0000
 1110,0.00000106,0.00000338,-0.00000284,-0.00000198,-0.00003654,-0.0000
 0731,-0.00000656,0.00000873,0.00001062,0.00000258,-0.00000346,-0.00001
 814,-0.00000298,-0.00000378,-0.00001033,0.00000126,0.00001695,-0.00000
 275,0.00001561,-0.00000188,-0.00000029,-0.00000093,-0.00000043,-0.0000
 0008,0.00000015,0.00000042,-0.00000071,0.00000017,0.00000077,0.0000001
 7,0.00000024,-0.00000096,0.00000043,-0.00000365,0.00000091,-0.00000002
 ,0.00000071,-0.00000063,0.00000011,-0.00000074,0.00000126,0.00000037,-
 0.00000011,0.00000373,-0.00000671,-0.00000826,-0.00000131,-0.00000209,
 -0.00000063,0.00000331,0.00000213,0.00000092,-0.00000038,0.00000113,0.
 00000095,0.00000119,-0.00000110,-0.00000460,0.00000367,0.00000018,0.00
 000055,-0.00000397,-0.00000450,0.00000035,-0.00000435,0.00000566,0.000
 00254,0.05114121,0.11921322,-0.22463188,-0.00094068,-0.00351515,0.0042
 3472,0.00740649,0.01523520,-0.01828670,-0.05394326,-0.13152524,0.23333
 335\\-0.00000190,-0.00000656,0.00001632,-0.00000937,0.00000672,-0.0000
 2854,-0.00000117,-0.00000032,0.00000612,-0.00000085,0.00000865,-0.0000
 3524,0.00001046,0.00002265,-0.00000575,-0.00000681,-0.00004288,-0.0000
 3195,-0.00000182,0.00002734,-0.00006485,0.00001326,0.00001346,-0.00000
 651,0.00001098,0.00001206,-0.00005140,-0.00000658,0.00000296,-0.000007
 92,-0.00003678,-0.00001617,-0.00002414,-0.00003416,-0.00001872,-0.0000
 3184,-0.00001225,0.00000519,-0.00004710,0.00001146,-0.00000710,0.00002
 781,-0.00000484,-0.00001947,0.00003316,0.00001766,0.00000275,0.0000349
 4,0.00000537,0.00000416,-0.00001213,0.00000906,-0.00000738,0.00003845,
 -0.00002548,-0.00003611,-0.00000964,-0.00002099,-0.00002793,0.00000183
 ,-0.00003333,-0.00002550,-0.00002429,-0.00003304,-0.00003651,-0.000006
 50,-0.00000251,-0.00000147,-0.00001911,-0.00000258,0.00001011,-0.00003
 102,0.00001485,0.00000929,0.00000155,0.00000970,0.00002157,-0.00001473
 ,0.00000936,-0.00002868,0.00006417,0.00001066,-0.00002163,0.00007317,0
 .00000683,-0.00002325,0.00006990,-0.00000695,-0.00003976,0.00005864,0.
 00002808,0.00000421,0.00005216,0.00003028,0.00000827,0.00005844,0.0000
 3281,0.00001485,0.00006019,0.00002969,0.00002080,0.00003336,-0.0000189
 7,0.00007231,-0.00004501,-0.00001661,0.00002437,-0.00007260,0.00000685
 ,0.00003238,-0.00002050,0.00001965,0.00003532,-0.00003944\\\@
 The archive entry for this job was punched.



 IN THIS SHORT LIFE

 THAT ONLY LASTS AN HOUR

 HOW MUCH, HOW LITTLE, IS WITHIN OUR POWER....


 EMILY DICKINSON BOLTS OF MELODY NO. 521
 Job cpu time:       2 days 11 hours 59 minutes 17.1 seconds.
 Elapsed time:       0 days  1 hours 15 minutes 35.1 seconds.
 File lengths (MBytes):  RWF=   1849 Int=      0 D2E=      0 Chk=     68 Scr=      1
 Normal termination of Gaussian 16 at Thu May 30 15:45:15 2024.
