 Entering Gaussian System, Link 0=/cm/shared/apps//g16/g16
 Input=MeZPtMeMe.gjf
 Output=MeZPtMeMe.log
 Initial command:
 /cm/shared/apps//g16/l1.exe "/local/mvanvleet/pbs.15276.josephine/Gau-3166095.inp" -scrdir="/local/mvanvleet/pbs.15276.josephine/"
 Entering Link 1 = /cm/shared/apps//g16/l1.exe PID=   3166096.
  
 Copyright (c) 1988-2019, Gaussian, Inc.  All Rights Reserved.
  
 This is part of the Gaussian(R) 16 program.  It is based on
 the Gaussian(R) 09 system (copyright 2009, Gaussian, Inc.),
 the Gaussian(R) 03 system (copyright 2003, Gaussian, Inc.),
 the Gaussian(R) 98 system (copyright 1998, Gaussian, Inc.),
 the Gaussian(R) 94 system (copyright 1995, Gaussian, Inc.),
 the Gaussian 92(TM) system (copyright 1992, Gaussian, Inc.),
 the Gaussian 90(TM) system (copyright 1990, Gaussian, Inc.),
 the Gaussian 88(TM) system (copyright 1988, Gaussian, Inc.),
 the Gaussian 86(TM) system (copyright 1986, Carnegie Mellon
 University), and the Gaussian 82(TM) system (copyright 1983,
 Carnegie Mellon University). Gaussian is a federally registered
 trademark of Gaussian, Inc.
  
 This software contains proprietary and confidential information,
 including trade secrets, belonging to Gaussian, Inc.
  
 This software is provided under written license and may be
 used, copied, transmitted, or stored only in accord with that
 written license.
  
 The following legend is applicable only to US Government
 contracts under FAR:
  
                    RESTRICTED RIGHTS LEGEND
  
 Use, reproduction and disclosure by the US Government is
 subject to restrictions as set forth in subparagraphs (a)
 and (c) of the Commercial Computer Software - Restricted
 Rights clause in FAR 52.227-19.
  
 Gaussian, Inc.
 340 Quinnipiac St., Bldg. 40, Wallingford CT 06492
  
  
 ---------------------------------------------------------------
 Warning -- This program may not be used in any manner that
 competes with the business of Gaussian, Inc. or will provide
 assistance to any competitor of Gaussian, Inc.  The licensee
 of this program is prohibited from giving any competitor of
 Gaussian, Inc. access to this program.  By using this program,
 the user acknowledges that Gaussian, Inc. is engaged in the
 business of creating and licensing software in the field of
 computational chemistry and represents and warrants to the
 licensee that it is not a competitor of Gaussian, Inc. and that
 it will not use this program in any manner prohibited above.
 ---------------------------------------------------------------
  

 Cite this work as:
 Gaussian 16, Revision C.01,
 M. J. Frisch, G. W. Trucks, H. B. Schlegel, G. E. Scuseria, 
 M. A. Robb, J. R. Cheeseman, G. Scalmani, V. Barone, 
 G. A. Petersson, H. Nakatsuji, X. Li, M. Caricato, A. V. Marenich, 
 J. Bloino, B. G. Janesko, R. Gomperts, B. Mennucci, H. P. Hratchian, 
 J. V. Ortiz, A. F. Izmaylov, J. L. Sonnenberg, D. Williams-Young, 
 F. Ding, F. Lipparini, F. Egidi, J. Goings, B. Peng, A. Petrone, 
 T. Henderson, D. Ranasinghe, V. G. Zakrzewski, J. Gao, N. Rega, 
 G. Zheng, W. Liang, M. Hada, M. Ehara, K. Toyota, R. Fukuda, 
 J. Hasegawa, M. Ishida, T. Nakajima, Y. Honda, O. Kitao, H. Nakai, 
 T. Vreven, K. Throssell, J. A. Montgomery, Jr., J. E. Peralta, 
 F. Ogliaro, M. J. Bearpark, J. J. Heyd, E. N. Brothers, K. N. Kudin, 
 V. N. Staroverov, T. A. Keith, R. Kobayashi, J. Normand, 
 K. Raghavachari, A. P. Rendell, J. C. Burant, S. S. Iyengar, 
 J. Tomasi, M. Cossi, J. M. Millam, M. Klene, C. Adamo, R. Cammi, 
 J. W. Ochterski, R. L. Martin, K. Morokuma, O. Farkas, 
 J. B. Foresman, and D. J. Fox, Gaussian, Inc., Wallingford CT, 2019.
 
 ******************************************
 Gaussian 16:  ES64L-G16RevC.01  3-Jul-2019
                29-May-2024 
 ******************************************
 %nprocshared=48
 Will use up to   48 processors via shared memory.
 %chk=MeZPtMeMe.chk
 %mem=16GB
 ----------------------------------------------------------
 # wb97xd def2TZVPP SCRF=(solvent=dichloromethane) opt freq
 ----------------------------------------------------------
 1/18=20,19=15,26=3,38=1/1,3;
 2/9=110,12=2,17=6,18=5,40=1/2;
 3/5=44,7=202,11=2,25=1,30=1,70=2201,71=1,72=9,74=-58/1,2,3;
 4//1;
 5/5=2,38=5,53=9/2;
 6/7=2,8=2,9=2,10=2,28=1/1;
 7//1,2,3,16;
 1/18=20,19=15,26=3/3(2);
 2/9=110/2;
 99//99;
 2/9=110/2;
 3/5=44,7=202,11=2,25=1,30=1,70=2205,71=1,72=9,74=-58/1,2,3;
 4/5=5,16=3,69=1/1;
 5/5=2,38=5,53=9/2;
 7//1,2,3,16;
 1/18=20,19=15,26=3/3(-5);
 2/9=110/2;
 6/7=2,8=2,9=2,10=2,19=2,28=1/1;
 99/9=1/99;
 ---------
 MeZPtMeMe
 ---------
 Symbolic Z-matrix:
 Charge =  2 Multiplicity = 1
 Pt                    1.11749   0.0582    0.03272 
 C                    -1.40176  -1.34228  -0.30211 
 C                    -1.62162   0.99004  -0.24827 
 C                    -2.75145  -1.51164  -0.17044 
 C                    -2.98559   0.91328  -0.11464 
 C                    -3.55994  -0.36401  -0.05373 
 H                    -3.19317  -2.49351  -0.1114 
 H                    -3.56486   1.81688  -0.0462 
 O                    -4.84645  -0.62208   0.1294 
 N                    -0.88262  -0.11328  -0.32593 
 C                    -0.35861  -2.41271  -0.4896 
 H                    -0.16334  -2.50615  -1.55708 
 H                    -0.69024  -3.38039  -0.11993 
 C                    -0.8052    2.24703  -0.40604 
 H                    -0.71758   2.45503  -1.47168 
 H                    -1.27932   3.1063    0.06274 
 N                     0.95435  -2.04927   0.16655 
 N                     0.59501   2.10612   0.1537 
 C                     3.11746   0.21049   0.53499 
 H                     3.22364   0.05385   1.60882 
 H                     3.71191  -0.53321   0.00607 
 H                     3.51734   1.19153   0.28552 
 C                     2.02627  -2.87249  -0.4379 
 H                     2.96031  -2.66941   0.07431 
 H                     1.7759   -3.92648  -0.32821 
 H                     2.12841  -2.64157  -1.49271 
 C                     0.87428  -2.36853   1.62255 
 H                     0.70153  -3.4369    1.7423 
 H                     1.81094  -2.09605   2.09815 
 H                     0.0509   -1.82663   2.08337 
 C                     1.46665   3.10389  -0.50792 
 H                     1.05254   4.09826  -0.34624 
 H                     2.45854   3.05745  -0.0714 
 H                     1.52099   2.9048   -1.57176 
 C                     0.55835   2.39586   1.61233 
 H                     1.56308   2.32474   2.01836 
 H                     0.1693    3.39875   1.77911 
 H                    -0.08668   1.67402   2.11344 
 C                    -5.79376   0.4305    0.16207 
 H                    -6.71941  -0.00828   0.51769 
 H                    -5.91494   0.82982  -0.84247 
 H                    -5.5232    1.22442   0.85437 
 C                     1.69833   0.18266  -1.88846 
 H                     1.86179  -0.81429  -2.28718 
 H                     0.89535   0.65395  -2.4512 
 H                     2.6101    0.76236  -1.97168 
 

 GradGradGradGradGradGradGradGradGradGradGradGradGradGradGradGradGradGrad
 Berny optimization.
 Initialization pass.
                           ----------------------------
                           !    Initial Parameters    !
                           ! (Angstroms and Degrees)  !
 --------------------------                            --------------------------
 ! Name  Definition              Value          Derivative Info.                !
 --------------------------------------------------------------------------------
 ! R1    R(1,10)                 2.0392         estimate D2E/DX2                !
 ! R2    R(1,17)                 2.118          estimate D2E/DX2                !
 ! R3    R(1,18)                 2.117          estimate D2E/DX2                !
 ! R4    R(1,19)                 2.0677         estimate D2E/DX2                !
 ! R5    R(1,43)                 2.0109         estimate D2E/DX2                !
 ! R6    R(2,4)                  1.3666         estimate D2E/DX2                !
 ! R7    R(2,10)                 1.3344         estimate D2E/DX2                !
 ! R8    R(2,11)                 1.5064         estimate D2E/DX2                !
 ! R9    R(3,5)                  1.3726         estimate D2E/DX2                !
 ! R10   R(3,10)                 1.3302         estimate D2E/DX2                !
 ! R11   R(3,14)                 1.5071         estimate D2E/DX2                !
 ! R12   R(4,6)                  1.4087         estimate D2E/DX2                !
 ! R13   R(4,7)                  1.0783         estimate D2E/DX2                !
 ! R14   R(5,6)                  1.4018         estimate D2E/DX2                !
 ! R15   R(5,8)                  1.0755         estimate D2E/DX2                !
 ! R16   R(6,9)                  1.3249         estimate D2E/DX2                !
 ! R17   R(9,39)                 1.4165         estimate D2E/DX2                !
 ! R18   R(11,12)                1.0892         estimate D2E/DX2                !
 ! R19   R(11,13)                1.0877         estimate D2E/DX2                !
 ! R20   R(11,17)                1.5121         estimate D2E/DX2                !
 ! R21   R(14,15)                1.0893         estimate D2E/DX2                !
 ! R22   R(14,16)                1.0876         estimate D2E/DX2                !
 ! R23   R(14,18)                1.5145         estimate D2E/DX2                !
 ! R24   R(17,23)                1.4806         estimate D2E/DX2                !
 ! R25   R(17,27)                1.4927         estimate D2E/DX2                !
 ! R26   R(18,31)                1.4809         estimate D2E/DX2                !
 ! R27   R(18,35)                1.4876         estimate D2E/DX2                !
 ! R28   R(19,20)                1.0904         estimate D2E/DX2                !
 ! R29   R(19,21)                1.0891         estimate D2E/DX2                !
 ! R30   R(19,22)                1.0884         estimate D2E/DX2                !
 ! R31   R(23,24)                1.0844         estimate D2E/DX2                !
 ! R32   R(23,25)                1.0889         estimate D2E/DX2                !
 ! R33   R(23,26)                1.0846         estimate D2E/DX2                !
 ! R34   R(27,28)                1.0889         estimate D2E/DX2                !
 ! R35   R(27,29)                1.0853         estimate D2E/DX2                !
 ! R36   R(27,30)                1.0881         estimate D2E/DX2                !
 ! R37   R(31,32)                1.0892         estimate D2E/DX2                !
 ! R38   R(31,33)                1.0847         estimate D2E/DX2                !
 ! R39   R(31,34)                1.0837         estimate D2E/DX2                !
 ! R40   R(35,36)                1.086          estimate D2E/DX2                !
 ! R41   R(35,37)                1.0886         estimate D2E/DX2                !
 ! R42   R(35,38)                1.0901         estimate D2E/DX2                !
 ! R43   R(39,40)                1.0844         estimate D2E/DX2                !
 ! R44   R(39,41)                1.0878         estimate D2E/DX2                !
 ! R45   R(39,42)                1.0876         estimate D2E/DX2                !
 ! R46   R(43,44)                1.0861         estimate D2E/DX2                !
 ! R47   R(43,45)                1.0879         estimate D2E/DX2                !
 ! R48   R(43,46)                1.0837         estimate D2E/DX2                !
 ! A1    A(10,1,17)             81.4828         estimate D2E/DX2                !
 ! A2    A(10,1,18)             81.3342         estimate D2E/DX2                !
 ! A3    A(10,1,43)             96.9198         estimate D2E/DX2                !
 ! A4    A(17,1,18)            160.0423         estimate D2E/DX2                !
 ! A5    A(17,1,19)             97.6106         estimate D2E/DX2                !
 ! A6    A(17,1,43)             98.2909         estimate D2E/DX2                !
 ! A7    A(18,1,19)             98.835          estimate D2E/DX2                !
 ! A8    A(18,1,43)             93.785          estimate D2E/DX2                !
 ! A9    A(19,1,43)             87.0268         estimate D2E/DX2                !
 ! A10   A(4,2,10)             120.0061         estimate D2E/DX2                !
 ! A11   A(4,2,11)             127.4335         estimate D2E/DX2                !
 ! A12   A(10,2,11)            112.5107         estimate D2E/DX2                !
 ! A13   A(5,3,10)             120.753          estimate D2E/DX2                !
 ! A14   A(5,3,14)             126.5204         estimate D2E/DX2                !
 ! A15   A(10,3,14)            112.6259         estimate D2E/DX2                !
 ! A16   A(2,4,6)              118.2843         estimate D2E/DX2                !
 ! A17   A(2,4,7)              121.5134         estimate D2E/DX2                !
 ! A18   A(6,4,7)              120.1458         estimate D2E/DX2                !
 ! A19   A(3,5,6)              117.5366         estimate D2E/DX2                !
 ! A20   A(3,5,8)              119.6306         estimate D2E/DX2                !
 ! A21   A(6,5,8)              122.826          estimate D2E/DX2                !
 ! A22   A(4,6,5)              120.2367         estimate D2E/DX2                !
 ! A23   A(4,6,9)              114.2103         estimate D2E/DX2                !
 ! A24   A(5,6,9)              125.5461         estimate D2E/DX2                !
 ! A25   A(6,9,39)             120.5216         estimate D2E/DX2                !
 ! A26   A(1,10,2)             117.123          estimate D2E/DX2                !
 ! A27   A(1,10,3)             117.7022         estimate D2E/DX2                !
 ! A28   A(2,10,3)             123.1449         estimate D2E/DX2                !
 ! A29   A(2,11,12)            107.884          estimate D2E/DX2                !
 ! A30   A(2,11,13)            112.2573         estimate D2E/DX2                !
 ! A31   A(2,11,17)            112.1161         estimate D2E/DX2                !
 ! A32   A(12,11,13)           108.1454         estimate D2E/DX2                !
 ! A33   A(12,11,17)           106.8715         estimate D2E/DX2                !
 ! A34   A(13,11,17)           109.3354         estimate D2E/DX2                !
 ! A35   A(3,14,15)            107.7728         estimate D2E/DX2                !
 ! A36   A(3,14,16)            112.189          estimate D2E/DX2                !
 ! A37   A(3,14,18)            112.6148         estimate D2E/DX2                !
 ! A38   A(15,14,16)           107.8104         estimate D2E/DX2                !
 ! A39   A(15,14,18)           107.7559         estimate D2E/DX2                !
 ! A40   A(16,14,18)           108.4959         estimate D2E/DX2                !
 ! A41   A(1,17,11)            106.1778         estimate D2E/DX2                !
 ! A42   A(1,17,23)            118.1441         estimate D2E/DX2                !
 ! A43   A(1,17,27)            106.1751         estimate D2E/DX2                !
 ! A44   A(11,17,23)           108.5327         estimate D2E/DX2                !
 ! A45   A(11,17,27)           108.9819         estimate D2E/DX2                !
 ! A46   A(23,17,27)           108.5496         estimate D2E/DX2                !
 ! A47   A(1,18,14)            107.2812         estimate D2E/DX2                !
 ! A48   A(1,18,31)            118.7497         estimate D2E/DX2                !
 ! A49   A(1,18,35)            104.5093         estimate D2E/DX2                !
 ! A50   A(14,18,31)           108.4431         estimate D2E/DX2                !
 ! A51   A(14,18,35)           108.7528         estimate D2E/DX2                !
 ! A52   A(31,18,35)           108.7447         estimate D2E/DX2                !
 ! A53   A(1,19,20)            108.8345         estimate D2E/DX2                !
 ! A54   A(1,19,21)            111.0796         estimate D2E/DX2                !
 ! A55   A(1,19,22)            111.4743         estimate D2E/DX2                !
 ! A56   A(20,19,21)           109.088          estimate D2E/DX2                !
 ! A57   A(20,19,22)           108.6293         estimate D2E/DX2                !
 ! A58   A(21,19,22)           107.6767         estimate D2E/DX2                !
 ! A59   A(17,23,24)           109.0642         estimate D2E/DX2                !
 ! A60   A(17,23,25)           109.3059         estimate D2E/DX2                !
 ! A61   A(17,23,26)           110.2942         estimate D2E/DX2                !
 ! A62   A(24,23,25)           109.3741         estimate D2E/DX2                !
 ! A63   A(24,23,26)           109.7773         estimate D2E/DX2                !
 ! A64   A(25,23,26)           109.0087         estimate D2E/DX2                !
 ! A65   A(17,27,28)           109.004          estimate D2E/DX2                !
 ! A66   A(17,27,29)           109.1146         estimate D2E/DX2                !
 ! A67   A(17,27,30)           110.3137         estimate D2E/DX2                !
 ! A68   A(28,27,29)           109.5778         estimate D2E/DX2                !
 ! A69   A(28,27,30)           108.7854         estimate D2E/DX2                !
 ! A70   A(29,27,30)           110.0271         estimate D2E/DX2                !
 ! A71   A(18,31,32)           108.9654         estimate D2E/DX2                !
 ! A72   A(18,31,33)           109.2439         estimate D2E/DX2                !
 ! A73   A(18,31,34)           110.1407         estimate D2E/DX2                !
 ! A74   A(32,31,33)           109.0875         estimate D2E/DX2                !
 ! A75   A(32,31,34)           109.4208         estimate D2E/DX2                !
 ! A76   A(33,31,34)           109.9593         estimate D2E/DX2                !
 ! A77   A(18,35,36)           109.3322         estimate D2E/DX2                !
 ! A78   A(18,35,37)           109.7844         estimate D2E/DX2                !
 ! A79   A(18,35,38)           109.6557         estimate D2E/DX2                !
 ! A80   A(36,35,37)           109.4938         estimate D2E/DX2                !
 ! A81   A(36,35,38)           109.4033         estimate D2E/DX2                !
 ! A82   A(37,35,38)           109.1576         estimate D2E/DX2                !
 ! A83   A(9,39,40)            106.1273         estimate D2E/DX2                !
 ! A84   A(9,39,41)            109.026          estimate D2E/DX2                !
 ! A85   A(9,39,42)            113.0023         estimate D2E/DX2                !
 ! A86   A(40,39,41)           110.8738         estimate D2E/DX2                !
 ! A87   A(40,39,42)           107.3972         estimate D2E/DX2                !
 ! A88   A(41,39,42)           110.3398         estimate D2E/DX2                !
 ! A89   A(1,43,44)            109.7179         estimate D2E/DX2                !
 ! A90   A(1,43,45)            107.9267         estimate D2E/DX2                !
 ! A91   A(1,43,46)            110.4571         estimate D2E/DX2                !
 ! A92   A(44,43,45)           108.5926         estimate D2E/DX2                !
 ! A93   A(44,43,46)           109.6466         estimate D2E/DX2                !
 ! A94   A(45,43,46)           110.4599         estimate D2E/DX2                !
 ! A95   L(10,1,19,17,-1)      179.0934         estimate D2E/DX2                !
 ! A96   L(10,1,19,17,-2)      183.8986         estimate D2E/DX2                !
 ! D1    D(17,1,10,2)            1.1652         estimate D2E/DX2                !
 ! D2    D(17,1,10,3)          165.4881         estimate D2E/DX2                !
 ! D3    D(18,1,10,2)         -168.6449         estimate D2E/DX2                !
 ! D4    D(18,1,10,3)           -4.322          estimate D2E/DX2                !
 ! D5    D(43,1,10,2)           98.5598         estimate D2E/DX2                !
 ! D6    D(43,1,10,3)          -97.1173         estimate D2E/DX2                !
 ! D7    D(10,1,17,11)          17.2882         estimate D2E/DX2                !
 ! D8    D(10,1,17,23)         139.3286         estimate D2E/DX2                !
 ! D9    D(10,1,17,27)         -98.6108         estimate D2E/DX2                !
 ! D10   D(18,1,17,11)          48.111          estimate D2E/DX2                !
 ! D11   D(18,1,17,23)         170.1515         estimate D2E/DX2                !
 ! D12   D(18,1,17,27)         -67.788          estimate D2E/DX2                !
 ! D13   D(19,1,17,11)        -166.6104         estimate D2E/DX2                !
 ! D14   D(19,1,17,23)         -44.57           estimate D2E/DX2                !
 ! D15   D(19,1,17,27)          77.4906         estimate D2E/DX2                !
 ! D16   D(43,1,17,11)         -78.5251         estimate D2E/DX2                !
 ! D17   D(43,1,17,23)          43.5154         estimate D2E/DX2                !
 ! D18   D(43,1,17,27)         165.5759         estimate D2E/DX2                !
 ! D19   D(10,1,18,14)         -13.1492         estimate D2E/DX2                !
 ! D20   D(10,1,18,31)        -136.4188         estimate D2E/DX2                !
 ! D21   D(10,1,18,35)         102.2097         estimate D2E/DX2                !
 ! D22   D(17,1,18,14)         -43.9854         estimate D2E/DX2                !
 ! D23   D(17,1,18,31)        -167.255          estimate D2E/DX2                !
 ! D24   D(17,1,18,35)          71.3735         estimate D2E/DX2                !
 ! D25   D(19,1,18,14)         170.859          estimate D2E/DX2                !
 ! D26   D(19,1,18,31)          47.5893         estimate D2E/DX2                !
 ! D27   D(19,1,18,35)         -73.7822         estimate D2E/DX2                !
 ! D28   D(43,1,18,14)          83.2846         estimate D2E/DX2                !
 ! D29   D(43,1,18,31)         -39.985          estimate D2E/DX2                !
 ! D30   D(43,1,18,35)        -161.3565         estimate D2E/DX2                !
 ! D31   D(17,1,19,20)         -75.1503         estimate D2E/DX2                !
 ! D32   D(17,1,19,21)          44.9676         estimate D2E/DX2                !
 ! D33   D(17,1,19,22)         165.056          estimate D2E/DX2                !
 ! D34   D(18,1,19,20)          93.5028         estimate D2E/DX2                !
 ! D35   D(18,1,19,21)        -146.3793         estimate D2E/DX2                !
 ! D36   D(18,1,19,22)         -26.291          estimate D2E/DX2                !
 ! D37   D(43,1,19,20)        -173.125          estimate D2E/DX2                !
 ! D38   D(43,1,19,21)         -53.0071         estimate D2E/DX2                !
 ! D39   D(43,1,19,22)          67.0812         estimate D2E/DX2                !
 ! D40   D(10,1,43,44)         -87.8666         estimate D2E/DX2                !
 ! D41   D(10,1,43,45)          30.2926         estimate D2E/DX2                !
 ! D42   D(10,1,43,46)         151.1428         estimate D2E/DX2                !
 ! D43   D(17,1,43,44)          -5.5144         estimate D2E/DX2                !
 ! D44   D(17,1,43,45)         112.6448         estimate D2E/DX2                !
 ! D45   D(17,1,43,46)        -126.505          estimate D2E/DX2                !
 ! D46   D(18,1,43,44)        -169.5826         estimate D2E/DX2                !
 ! D47   D(18,1,43,45)         -51.4234         estimate D2E/DX2                !
 ! D48   D(18,1,43,46)          69.4268         estimate D2E/DX2                !
 ! D49   D(19,1,43,44)          91.7501         estimate D2E/DX2                !
 ! D50   D(19,1,43,45)        -150.0907         estimate D2E/DX2                !
 ! D51   D(19,1,43,46)         -29.2405         estimate D2E/DX2                !
 ! D52   D(10,2,4,6)            -0.4157         estimate D2E/DX2                !
 ! D53   D(10,2,4,7)          -177.6867         estimate D2E/DX2                !
 ! D54   D(11,2,4,6)          -177.6493         estimate D2E/DX2                !
 ! D55   D(11,2,4,7)             5.0797         estimate D2E/DX2                !
 ! D56   D(4,2,10,1)           162.2714         estimate D2E/DX2                !
 ! D57   D(4,2,10,3)            -1.1259         estimate D2E/DX2                !
 ! D58   D(11,2,10,1)          -20.1062         estimate D2E/DX2                !
 ! D59   D(11,2,10,3)          176.4965         estimate D2E/DX2                !
 ! D60   D(4,2,11,12)           95.6337         estimate D2E/DX2                !
 ! D61   D(4,2,11,13)          -23.4212         estimate D2E/DX2                !
 ! D62   D(4,2,11,17)         -146.9587         estimate D2E/DX2                !
 ! D63   D(10,2,11,12)         -81.7732         estimate D2E/DX2                !
 ! D64   D(10,2,11,13)         159.1718         estimate D2E/DX2                !
 ! D65   D(10,2,11,17)          35.6344         estimate D2E/DX2                !
 ! D66   D(10,3,5,6)             0.4752         estimate D2E/DX2                !
 ! D67   D(10,3,5,8)           179.5494         estimate D2E/DX2                !
 ! D68   D(14,3,5,6)           176.5483         estimate D2E/DX2                !
 ! D69   D(14,3,5,8)            -4.3775         estimate D2E/DX2                !
 ! D70   D(5,3,10,1)          -162.2086         estimate D2E/DX2                !
 ! D71   D(5,3,10,2)             1.0989         estimate D2E/DX2                !
 ! D72   D(14,3,10,1)           21.2097         estimate D2E/DX2                !
 ! D73   D(14,3,10,2)         -175.4828         estimate D2E/DX2                !
 ! D74   D(5,3,14,15)          -90.314          estimate D2E/DX2                !
 ! D75   D(5,3,14,16)           28.2164         estimate D2E/DX2                !
 ! D76   D(5,3,14,18)          150.9715         estimate D2E/DX2                !
 ! D77   D(10,3,14,15)          86.0303         estimate D2E/DX2                !
 ! D78   D(10,3,14,16)        -155.4393         estimate D2E/DX2                !
 ! D79   D(10,3,14,18)         -32.6842         estimate D2E/DX2                !
 ! D80   D(2,4,6,5)              1.9475         estimate D2E/DX2                !
 ! D81   D(2,4,6,9)           -177.1436         estimate D2E/DX2                !
 ! D82   D(7,4,6,5)            179.2571         estimate D2E/DX2                !
 ! D83   D(7,4,6,9)              0.166          estimate D2E/DX2                !
 ! D84   D(3,5,6,4)             -1.9659         estimate D2E/DX2                !
 ! D85   D(3,5,6,9)            177.0153         estimate D2E/DX2                !
 ! D86   D(8,5,6,4)            178.9918         estimate D2E/DX2                !
 ! D87   D(8,5,6,9)             -2.027          estimate D2E/DX2                !
 ! D88   D(4,6,9,39)          -175.1729         estimate D2E/DX2                !
 ! D89   D(5,6,9,39)             5.7922         estimate D2E/DX2                !
 ! D90   D(6,9,39,40)         -168.8864         estimate D2E/DX2                !
 ! D91   D(6,9,39,41)           71.6382         estimate D2E/DX2                !
 ! D92   D(6,9,39,42)          -51.4426         estimate D2E/DX2                !
 ! D93   D(2,11,17,1)          -32.4564         estimate D2E/DX2                !
 ! D94   D(2,11,17,23)        -160.4267         estimate D2E/DX2                !
 ! D95   D(2,11,17,27)          81.5306         estimate D2E/DX2                !
 ! D96   D(12,11,17,1)          85.5545         estimate D2E/DX2                !
 ! D97   D(12,11,17,23)        -42.4158         estimate D2E/DX2                !
 ! D98   D(12,11,17,27)       -160.4585         estimate D2E/DX2                !
 ! D99   D(13,11,17,1)        -157.6179         estimate D2E/DX2                !
 ! D100  D(13,11,17,23)         74.4118         estimate D2E/DX2                !
 ! D101  D(13,11,17,27)        -43.6309         estimate D2E/DX2                !
 ! D102  D(3,14,18,1)           27.5668         estimate D2E/DX2                !
 ! D103  D(3,14,18,31)         156.9681         estimate D2E/DX2                !
 ! D104  D(3,14,18,35)         -84.935          estimate D2E/DX2                !
 ! D105  D(15,14,18,1)         -91.1575         estimate D2E/DX2                !
 ! D106  D(15,14,18,31)         38.2437         estimate D2E/DX2                !
 ! D107  D(15,14,18,35)        156.3406         estimate D2E/DX2                !
 ! D108  D(16,14,18,1)         152.3694         estimate D2E/DX2                !
 ! D109  D(16,14,18,31)        -78.2294         estimate D2E/DX2                !
 ! D110  D(16,14,18,35)         39.8675         estimate D2E/DX2                !
 ! D111  D(1,17,23,24)          63.1125         estimate D2E/DX2                !
 ! D112  D(1,17,23,25)        -177.3523         estimate D2E/DX2                !
 ! D113  D(1,17,23,26)         -57.5172         estimate D2E/DX2                !
 ! D114  D(11,17,23,24)       -176.0511         estimate D2E/DX2                !
 ! D115  D(11,17,23,25)        -56.5159         estimate D2E/DX2                !
 ! D116  D(11,17,23,26)         63.3192         estimate D2E/DX2                !
 ! D117  D(27,17,23,24)        -57.7342         estimate D2E/DX2                !
 ! D118  D(27,17,23,25)         61.801          estimate D2E/DX2                !
 ! D119  D(27,17,23,26)       -178.364          estimate D2E/DX2                !
 ! D120  D(1,17,27,28)         175.1113         estimate D2E/DX2                !
 ! D121  D(1,17,27,29)         -65.2557         estimate D2E/DX2                !
 ! D122  D(1,17,27,30)          55.7269         estimate D2E/DX2                !
 ! D123  D(11,17,27,28)         61.1226         estimate D2E/DX2                !
 ! D124  D(11,17,27,29)       -179.2444         estimate D2E/DX2                !
 ! D125  D(11,17,27,30)        -58.2618         estimate D2E/DX2                !
 ! D126  D(23,17,27,28)        -56.9095         estimate D2E/DX2                !
 ! D127  D(23,17,27,29)         62.7235         estimate D2E/DX2                !
 ! D128  D(23,17,27,30)       -176.2939         estimate D2E/DX2                !
 ! D129  D(1,18,31,32)        -179.9861         estimate D2E/DX2                !
 ! D130  D(1,18,31,33)         -60.8939         estimate D2E/DX2                !
 ! D131  D(1,18,31,34)          59.9791         estimate D2E/DX2                !
 ! D132  D(14,18,31,32)         57.3213         estimate D2E/DX2                !
 ! D133  D(14,18,31,33)        176.4135         estimate D2E/DX2                !
 ! D134  D(14,18,31,34)        -62.7135         estimate D2E/DX2                !
 ! D135  D(35,18,31,32)        -60.7807         estimate D2E/DX2                !
 ! D136  D(35,18,31,33)         58.3114         estimate D2E/DX2                !
 ! D137  D(35,18,31,34)        179.1844         estimate D2E/DX2                !
 ! D138  D(1,18,35,36)          67.2506         estimate D2E/DX2                !
 ! D139  D(1,18,35,37)        -172.6153         estimate D2E/DX2                !
 ! D140  D(1,18,35,38)         -52.6936         estimate D2E/DX2                !
 ! D141  D(14,18,35,36)       -178.4244         estimate D2E/DX2                !
 ! D142  D(14,18,35,37)        -58.2903         estimate D2E/DX2                !
 ! D143  D(14,18,35,38)         61.6313         estimate D2E/DX2                !
 ! D144  D(31,18,35,36)        -60.5183         estimate D2E/DX2                !
 ! D145  D(31,18,35,37)         59.6158         estimate D2E/DX2                !
 ! D146  D(31,18,35,38)        179.5374         estimate D2E/DX2                !
 --------------------------------------------------------------------------------
 Trust Radius=3.00D-01 FncErr=1.00D-07 GrdErr=1.00D-06 EigMax=2.50D+02 EigMin=1.00D-04
 Number of steps in this run=    276 maximum allowed number of steps=    276.
 GradGradGradGradGradGradGradGradGradGradGradGradGradGradGradGradGradGrad

                          Input orientation:                          
 ---------------------------------------------------------------------
 Center     Atomic      Atomic             Coordinates (Angstroms)
 Number     Number       Type             X           Y           Z
 ---------------------------------------------------------------------
      1         78           0        1.117490    0.058200    0.032720
      2          6           0       -1.401760   -1.342280   -0.302110
      3          6           0       -1.621620    0.990040   -0.248270
      4          6           0       -2.751450   -1.511640   -0.170440
      5          6           0       -2.985590    0.913280   -0.114640
      6          6           0       -3.559940   -0.364010   -0.053730
      7          1           0       -3.193170   -2.493510   -0.111400
      8          1           0       -3.564860    1.816880   -0.046200
      9          8           0       -4.846450   -0.622080    0.129400
     10          7           0       -0.882620   -0.113280   -0.325930
     11          6           0       -0.358610   -2.412710   -0.489600
     12          1           0       -0.163340   -2.506150   -1.557080
     13          1           0       -0.690240   -3.380390   -0.119930
     14          6           0       -0.805200    2.247030   -0.406040
     15          1           0       -0.717580    2.455030   -1.471680
     16          1           0       -1.279320    3.106300    0.062740
     17          7           0        0.954350   -2.049270    0.166550
     18          7           0        0.595010    2.106120    0.153700
     19          6           0        3.117460    0.210490    0.534990
     20          1           0        3.223640    0.053850    1.608820
     21          1           0        3.711910   -0.533210    0.006070
     22          1           0        3.517340    1.191530    0.285520
     23          6           0        2.026270   -2.872490   -0.437900
     24          1           0        2.960310   -2.669410    0.074310
     25          1           0        1.775900   -3.926480   -0.328210
     26          1           0        2.128410   -2.641570   -1.492710
     27          6           0        0.874280   -2.368530    1.622550
     28          1           0        0.701530   -3.436900    1.742300
     29          1           0        1.810940   -2.096050    2.098150
     30          1           0        0.050900   -1.826630    2.083370
     31          6           0        1.466650    3.103890   -0.507920
     32          1           0        1.052540    4.098260   -0.346240
     33          1           0        2.458540    3.057450   -0.071400
     34          1           0        1.520990    2.904800   -1.571760
     35          6           0        0.558350    2.395860    1.612330
     36          1           0        1.563080    2.324740    2.018360
     37          1           0        0.169300    3.398750    1.779110
     38          1           0       -0.086680    1.674020    2.113440
     39          6           0       -5.793760    0.430500    0.162070
     40          1           0       -6.719410   -0.008280    0.517690
     41          1           0       -5.914940    0.829820   -0.842470
     42          1           0       -5.523200    1.224420    0.854370
     43          6           0        1.698330    0.182660   -1.888460
     44          1           0        1.861790   -0.814290   -2.287180
     45          1           0        0.895350    0.653950   -2.451200
     46          1           0        2.610100    0.762360   -1.971680
 ---------------------------------------------------------------------
                    Distance matrix (angstroms):
                    1          2          3          4          5
     1  Pt   0.000000
     2  C    2.901737   0.000000
     3  C    2.906889   2.343278   0.000000
     4  C    4.180235   1.366632   2.746084   0.000000
     5  C    4.193822   2.762465   1.372648   2.436837   0.000000
     6  C    4.697242   2.382529   2.372421   1.408663   1.401805
     7  H    5.011365   2.137955   3.824085   1.078272   3.413110
     8  H    5.002358   3.837289   2.121480   3.428719   1.075514
     9  O    6.003391   3.545529   3.625065   2.295702   2.424806
    10  N    2.039234   1.334359   1.330213   2.339255   2.349671
    11  C    2.925250   1.506365   3.637601   2.576718   4.254859
    12  H    3.277786   2.112635   4.007856   3.100022   4.662427
    13  H    3.887813   2.166412   4.470414   2.782690   4.868702
    14  C    2.946222   3.640032   1.507135   4.239221   2.572529
    15  H    3.372758   4.031818   2.111922   4.643740   3.059807
    16  H    3.877694   4.465196   2.166207   4.852516   2.784270
    17  N    2.118007   2.504143   4.005634   3.759729   4.937499
    18  N    2.116978   4.010775   2.514093   4.938831   3.783592
    19  C    2.067691   4.851307   4.866218   6.156904   6.177633
    20  H    2.630585   5.195686   5.272739   6.427925   6.501036
    21  H    2.661107   5.186443   5.552614   6.539381   6.852986
    22  H    2.666013   5.564445   5.170536   6.841985   6.521169
    23  C    3.104240   3.756511   5.316220   4.974943   6.289300
    24  H    3.292047   4.575000   5.872794   5.833055   6.944429
    25  H    4.054806   4.095887   5.976763   5.133541   6.792693
    26  H    3.261542   3.945603   5.366558   5.180557   6.378795
    27  C    2.911311   3.152438   4.583610   4.134609   5.355997
    28  H    3.912980   3.604286   5.381189   4.391841   5.997262
    29  H    3.063930   4.080546   5.178041   5.128688   6.079408
    30  H    2.982510   2.834666   4.020883   3.609992   4.643127
    31  C    3.112946   5.295145   3.751425   6.261739   4.977538
    32  H    4.058314   5.968669   4.101434   6.780282   5.148226
    33  H    3.287059   5.857710   4.577464   6.930396   5.851315
    34  H    3.292461   5.309630   3.910745   6.302570   5.137958
    35  C    2.876188   4.634739   3.192246   5.422324   4.211886
    36  H    3.046066   5.255653   4.130539   6.174449   5.218458
    37  H    3.886929   5.410829   3.622092   6.036842   4.440403
    38  H    2.896601   4.081958   2.898542   4.739782   3.734534
    39  C    6.922479   4.758978   4.229446   3.624655   2.862772
    40  H    7.852173   5.543377   5.250790   4.298642   3.897503
    41  H    7.128564   5.037738   4.337204   3.992709   3.019568
    42  H    6.792197   4.991158   4.061167   4.027264   2.734091
    43  C    2.010920   3.801645   3.790007   5.061896   5.061556
    44  H    2.587887   3.856168   4.421188   5.123365   5.585832
    45  H    2.564005   3.725619   3.361695   4.815682   4.537451
    46  H    2.596410   4.828250   4.574870   6.096045   5.897722
                    6          7          8          9         10
     6  C    0.000000
     7  H    2.161624   0.000000
     8  H    2.180909   4.326877   0.000000
     9  O    1.324856   2.508699   2.760767   0.000000
    10  N    2.702776   3.324178   3.316350   4.022207   0.000000
    11  C    3.825659   2.860821   5.325981   4.871368   2.364054
    12  H    4.287857   3.357085   5.704532   5.322166   2.785484
    13  H    4.163905   2.655426   5.939738   4.994449   3.279246
    14  C    3.811856   5.316195   2.816068   4.984996   2.362938
    15  H    4.246949   5.697978   3.247496   5.392553   2.817126
    16  H    4.154256   5.920390   2.626436   5.160395   3.267129
    17  N    4.823633   4.180494   5.951104   5.973904   2.713863
    18  N    4.838200   5.964661   4.174702   6.087130   2.709091
    19  C    6.727876   6.895904   6.897222   8.017577   4.104467
    20  H    6.996831   7.115030   7.206323   8.232370   4.542308
    21  H    7.274064   7.178907   7.647028   8.559710   4.625610
    22  H    7.254150   7.666030   7.117490   8.559587   4.629908
    23  C    6.135617   5.243356   7.307828   7.253996   4.010912
    24  H    6.917002   6.158794   7.919543   8.070942   4.632721
    25  H    6.421660   5.176105   7.847893   7.415119   4.648465
    26  H    6.294066   5.499923   7.374516   7.440313   4.101210
    27  C    5.146875   4.423387   6.325215   6.164928   3.459686
    28  H    5.552342   4.415300   7.000216   6.426876   4.222980
    29  H    6.039611   5.484633   6.986307   7.097141   4.130715
    30  H    4.443492   3.973127   5.557333   5.408602   3.100283
    31  C    6.123661   7.293973   5.213988   7.358278   3.987778
    32  H    6.424359   7.844274   5.158983   7.570068   4.634903
    33  H    6.923063   7.921905   6.149878   8.181818   4.613205
    34  H    6.229397   7.314213   5.420034   7.475100   4.054410
    35  C    5.230005   6.399304   4.481830   6.365446   3.482676
    36  H    6.145589   7.097417   5.551225   7.303013   4.173857
    37  H    5.605791   7.042653   4.447249   6.636744   4.227539
    38  H    4.573153   5.654069   4.096607   5.644812   3.127057
    39  C    2.380707   3.922714   2.633139   1.416470   4.965193
    40  H    3.230374   4.359643   3.687867   2.008855   5.898376
    41  H    2.755606   4.357410   2.670432   2.047978   5.145920
    42  H    2.683681   4.492745   2.235426   2.095981   4.971673
    43  C    5.595935   5.852059   5.810832   6.895905   3.031565
    44  H    5.881004   5.753818   6.433784   7.132832   3.445244
    45  H    5.160786   5.665436   5.199029   6.423085   2.875168
    46  H    6.558707   6.909361   6.553596   7.869647   3.959082
                   11         12         13         14         15
    11  C    0.000000
    12  H    1.089208   0.000000
    13  H    1.087676   1.762759   0.000000
    14  C    4.681837   4.932504   5.635861   0.000000
    15  H    4.978778   4.992773   5.990000   1.089280   0.000000
    16  H    5.622478   5.947169   6.515944   1.087607   1.759019
    17  N    1.512113   2.104488   2.135094   4.677827   5.076206
    18  N    4.662944   4.977439   5.641678   1.514514   2.118134
    19  C    4.473704   4.745581   5.274649   4.518882   4.875676
    20  H    4.829058   5.296051   5.486441   5.010115   5.548726
    21  H    4.510803   4.620984   5.244162   5.320136   5.543799
    22  H    5.349238   5.533120   6.226602   4.502964   4.755915
    23  C    2.429346   2.486194   2.781815   5.850446   6.081109
    24  H    3.376258   3.527786   3.724210   6.211375   6.494370
    25  H    2.621770   2.699650   2.534451   6.691813   6.946124
    26  H    2.691445   2.296650   3.221051   5.803906   5.837417
    27  C    2.446047   3.347483   2.551043   5.314059   5.947689
    28  H    2.674741   3.535563   2.325536   6.260404   6.859911
    29  H    3.391706   4.174526   3.581244   5.654865   6.312640
    30  H    2.670461   3.709518   2.796067   4.850235   5.617967
    31  C    5.810747   5.935499   6.844604   2.430204   2.474008
    32  H    6.663680   6.823689   7.682363   2.623324   2.664610
    33  H    6.167161   6.327333   7.166795   3.379462   3.522986
    34  H    5.742811   5.667059   6.819161   2.683789   2.285499
    35  C    5.327408   5.881811   6.158309   2.440335   3.338056
    36  H    5.694400   6.253143   6.496018   3.390060   4.171183
    37  H    6.260895   6.790336   7.092383   2.655370   3.499257
    38  H    4.852950   5.563489   5.558713   2.681863   3.723049
    39  C    6.168417   6.578831   6.375604   5.339313   5.703987
    40  H    6.874278   7.316152   6.937476   6.396685   6.785827
    41  H    6.442928   6.687321   6.748735   5.320564   5.481766
    42  H    6.458170   6.961346   6.746187   4.989378   5.478950
    43  C    3.594963   3.287146   4.639859   3.567472   3.342752
    44  H    3.273594   2.737990   4.218376   4.474729   4.243424
    45  H    3.850285   3.450581   4.921871   3.100396   2.608619
    46  H    4.592480   4.306625   5.611025   4.039771   3.766774
                   16         17         18         19         20
    16  H    0.000000
    17  N    5.619605   0.000000
    18  N    2.126440   4.170918   0.000000
    19  C    5.285869   3.149811   3.178293   0.000000
    20  H    5.655481   3.413639   3.638527   1.090377   0.000000
    21  H    6.177509   3.150925   4.086921   1.089136   1.775346
    22  H    5.169519   4.133504   3.064941   1.088384   1.769661
    23  C    6.850073   1.480562   5.213929   3.412034   3.766460
    24  H    7.164735   2.101656   5.329787   2.920744   3.136911
    25  H    7.677708   2.107997   6.165955   4.433894   4.657367
    26  H    6.860762   2.117163   5.253812   3.636486   4.252565
    27  C    6.086441   1.492740   4.717839   3.586919   3.374553
    28  H    7.039755   2.114810   5.767154   4.538477   4.308618
    29  H    6.384125   2.113531   4.787233   3.077432   2.618632
    30  H    5.494200   2.130725   4.414318   3.993886   3.718559
    31  C    2.804641   5.222300   1.480892   3.490644   4.107353
    32  H    2.566870   6.169661   2.104257   4.489456   4.989307
    33  H    3.740585   5.328958   2.104387   2.984471   3.525639
    34  H    3.248681   5.280683   2.114838   3.774443   4.598154
    35  C    2.506588   4.691085   1.487580   3.533489   3.548069
    36  H    3.537587   4.788707   2.112324   3.014388   2.842908
    37  H    2.264940   5.735641   2.119924   4.517132   4.532808
    38  H    2.771135   4.328627   2.119432   3.860044   3.719921
    39  C    5.248804   7.189316   6.604858   8.921733   9.140484
    40  H    6.285075   7.948304   7.622592   9.839318  10.002933
    41  H    5.243161   7.516277   6.708259   9.157795   9.493398
    42  H    4.709423   7.290322   6.220999   8.705806   8.857011
    43  C    4.606653   3.123793   3.014537   2.808525   3.817608
    44  H    5.546145   2.892994   4.011411   3.254462   4.217478
    45  H    4.130751   3.763442   2.997417   3.748568   4.718561
    46  H    4.975993   3.901128   3.222347   2.616366   3.701135
                   21         22         23         24         25
    21  H    0.000000
    22  H    1.758032   0.000000
    23  C    2.917314   4.388950   0.000000
    24  H    2.265593   3.906629   1.084450   0.000000
    25  H    3.920990   5.440892   1.088858   1.773436   0.000000
    26  H    3.032985   4.447908   1.084611   1.774369   1.769553
    27  C    3.746138   4.631138   2.413817   2.615167   2.654353
    28  H    4.528609   5.610112   2.612808   2.910897   2.383479
    29  H    3.230008   4.123786   2.660973   2.397023   3.039560
    30  H    4.403533   4.935358   3.369379   3.634731   3.633279
    31  C    4.305099   2.914103   6.002932   5.991745   7.039463
    32  H    5.352279   3.863087   7.039027   7.043991   8.057296
    33  H    3.803916   2.174881   5.956960   5.750646   7.021910
    34  H    4.371452   3.220279   5.909148   5.987738   6.948222
    35  C    4.593959   3.459257   5.840697   5.813078   6.724590
    36  H    4.103006   2.847109   5.767058   5.538332   6.680527
    37  H    5.581583   4.279253   6.905934   6.893377   7.789798
    38  H    4.872593   4.069773   5.625357   5.683976   6.387211
    39  C    9.555670   9.342965   8.510145   9.287135   8.747766
    40  H   10.457043  10.309437   9.252231  10.048641   9.393515
    41  H    9.759821   9.506372   8.771180   9.584110   9.057366
    42  H    9.439075   9.058479   8.686146   9.366982   9.011500
    43  C    2.855909   3.008788   3.397883   3.685019   4.396070
    44  H    2.959889   3.658271   2.771836   3.197632   3.678406
    45  H    3.921803   3.827984   4.215227   4.656928   5.124724
    46  H    2.608444   2.470268   3.988167   4.010707   5.038065
                   26         27         28         29         30
    26  H    0.000000
    27  C    3.369308   0.000000
    28  H    3.624062   1.088851   0.000000
    29  H    3.645909   1.085252   1.776316   0.000000
    30  H    4.215273   1.088102   1.769920   1.780603   0.000000
    31  C    5.866690   5.902303   6.959226   5.826621   5.747100
    32  H    6.920780   6.762195   7.827122   6.702215   6.481559
    33  H    5.882851   5.900899   6.968011   5.628934   5.856108
    34  H    5.580092   6.199182   7.202199   6.209735   6.156912
    35  C    6.122260   4.774864   5.835965   4.688524   4.278879
    36  H    6.108310   4.760031   5.832236   4.428452   4.418686
    37  H    7.143415   5.812317   6.856437   5.743657   5.235570
    38  H    6.044440   4.184092   5.184643   4.220737   3.503482
    39  C    8.656598   7.377691   7.722869   8.243987   6.553326
    40  H    9.447743   8.028426   8.265921   8.923201   7.182955
    41  H    8.784580   7.899321   8.286351   8.769104   7.156012
    42  H    8.888296   7.377475   7.827106   8.146295   6.472244
    43  C    2.884070   4.417558   5.222762   4.593284   4.746231
    44  H    2.010279   4.321669   4.945806   4.569093   4.837961
    45  H    3.646861   5.072600   5.861575   5.394200   5.237241
    46  H    3.471048   5.072872   5.921999   5.037130   5.449386
                   31         32         33         34         35
    31  C    0.000000
    32  H    1.089220   0.000000
    33  H    1.084690   1.770779   0.000000
    34  H    1.083672   1.773610   1.775776   0.000000
    35  C    2.412836   2.641663   2.623618   3.365134   0.000000
    36  H    2.645461   2.999560   2.388684   3.636922   1.086002
    37  H    2.645858   2.405523   2.963358   3.646832   1.088560
    38  H    3.365842   3.636590   3.628436   4.204774   1.090059
    39  C    7.765916   7.783487   8.663477   7.914158   6.805527
    40  H    8.817543   8.832511   9.694354   8.986436   7.742346
    41  H    7.731183   7.711986   8.698968   7.754383   7.098028
    42  H    7.365205   7.276041   8.241676   7.637434   6.239553
    43  C    3.239313   4.257630   3.484831   2.746233   4.295735
    44  H    4.321347   5.343714   4.500685   3.802578   5.216339
    45  H    3.178825   4.039658   3.726100   2.496230   4.433971
    46  H    2.988785   4.024460   2.983534   2.436421   4.441073
                   36         37         38         39         40
    36  H    0.000000
    37  H    1.775770   0.000000
    38  H    1.776002   1.775386   0.000000
    39  C    7.820297   6.854445   6.158324   0.000000
    40  H    8.734680   7.788027   7.026355   1.084353   0.000000
    41  H    8.144932   7.105636   6.589286   1.087769   1.788748
    42  H    7.265049   6.163393   5.598495   1.087562   1.750377
    43  C    4.457583   5.111970   4.628782   7.771584   8.756961
    44  H    5.336704   6.094993   5.417904   8.133620   9.063881
    45  H    4.818129   5.094762   4.779212   7.184936   8.199843
    46  H    4.411088   5.193889   4.979152   8.676859   9.686620
                   41         42         43         44         45
    41  H    0.000000
    42  H    1.785619   0.000000
    43  C    7.711990   7.794798   0.000000
    44  H    8.078850   8.280323   1.086097   0.000000
    45  H    6.999928   7.242238   1.087919   1.765400   0.000000
    46  H    8.599766   8.622681   1.083652   1.773509   1.783833
                   46
    46  H    0.000000
 Stoichiometry    C14H27N3OPt(2+)
 Framework group  C1[X(C14H27N3OPt)]
 Deg. of freedom   132
 Full point group                 C1      NOp   1
 Largest Abelian subgroup         C1      NOp   1
 Largest concise Abelian subgroup C1      NOp   1
                         Standard orientation:                         
 ---------------------------------------------------------------------
 Center     Atomic      Atomic             Coordinates (Angstroms)
 Number     Number       Type             X           Y           Z
 ---------------------------------------------------------------------
      1         78           0        1.117490    0.058203    0.032721
      2          6           0       -1.401758   -1.342281   -0.302109
      3          6           0       -1.621622    0.990039   -0.248269
      4          6           0       -2.751448   -1.511643   -0.170439
      5          6           0       -2.985592    0.913277   -0.114639
      6          6           0       -3.559940   -0.364014   -0.053729
      7          1           0       -3.193167   -2.493514   -0.111399
      8          1           0       -3.564863    1.816876   -0.046199
      9          8           0       -4.846450   -0.622086    0.129401
     10          7           0       -0.882620   -0.113280   -0.325929
     11          6           0       -0.358607   -2.412710   -0.489599
     12          1           0       -0.163337   -2.506149   -1.557079
     13          1           0       -0.690235   -3.380390   -0.119929
     14          6           0       -0.805204    2.247030   -0.406039
     15          1           0       -0.717584    2.455030   -1.471679
     16          1           0       -1.279325    3.106299    0.062741
     17          7           0        0.954353   -2.049268    0.166551
     18          7           0        0.595007    2.106122    0.153701
     19          6           0        3.117459    0.210496    0.534991
     20          1           0        3.223640    0.053856    1.608821
     21          1           0        3.711910   -0.533204    0.006071
     22          1           0        3.517338    1.191536    0.285521
     23          6           0        2.026274   -2.872486   -0.437899
     24          1           0        2.960313   -2.669405    0.074311
     25          1           0        1.775905   -3.926476   -0.328209
     26          1           0        2.128413   -2.641566   -1.492709
     27          6           0        0.874283   -2.368528    1.622551
     28          1           0        0.701535   -3.436898    1.742301
     29          1           0        1.810943   -2.096046    2.098151
     30          1           0        0.050902   -1.826629    2.083371
     31          6           0        1.466645    3.103893   -0.507919
     32          1           0        1.052534    4.098263   -0.346239
     33          1           0        2.458535    3.057455   -0.071399
     34          1           0        1.520985    2.904803   -1.571759
     35          6           0        0.558346    2.395862    1.612331
     36          1           0        1.563076    2.324743    2.018361
     37          1           0        0.169295    3.398751    1.779111
     38          1           0       -0.086683    1.674021    2.113441
     39          6           0       -5.793761    0.430493    0.162071
     40          1           0       -6.719410   -0.008289    0.517691
     41          1           0       -5.914942    0.829812   -0.842469
     42          1           0       -5.523202    1.224413    0.854371
     43          6           0        1.698329    0.182663   -1.888459
     44          1           0        1.861791   -0.814286   -2.287179
     45          1           0        0.895349    0.653952   -2.451199
     46          1           0        2.610098    0.762365   -1.971679
 ---------------------------------------------------------------------
 Rotational constants (GHZ):           0.4978637           0.2410813           0.1833584
 Standard basis: def2TZVPP (5D, 7F)
 There are  1124 symmetry adapted cartesian basis functions of A   symmetry.
 There are   992 symmetry adapted basis functions of A   symmetry.
   992 basis functions,  1477 primitive gaussians,  1124 cartesian basis functions
    78 alpha electrons       78 beta electrons
       nuclear repulsion energy      1884.8550586562 Hartrees.
 NAtoms=   46 NActive=   46 NUniq=   46 SFac= 1.00D+00 NAtFMM=   60 NAOKFM=F Big=F
 Integral buffers will be    131072 words long.
 Raffenetti 2 integral format.
 Two-electron integral symmetry is turned on.
 Nuclear repulsion after empirical dispersion term =     1884.8012413775 Hartrees.
 ------------------------------------------------------------------------------
 Polarizable Continuum Model (PCM)
 =================================
 Model                : PCM.
 Atomic radii         : UFF (Universal Force Field).
 Polarization charges : Total charges.
 Charge compensation  : None.
 Solution method      : On-the-fly selection.
 Cavity type          : Scaled VdW (van der Waals Surface) (Alpha=1.100).
 Cavity algorithm     : GePol (No added spheres)
                        Default sphere list used, NSphG=   46.
                        Lebedev-Laikov grids with approx.  5.0 points / Ang**2.
                        Smoothing algorithm: York/Karplus (Gamma=1.0000).
                        Polarization charges: spherical gaussians, with
                                              point-specific exponents (IZeta= 3).
                        Self-potential: point-specific (ISelfS= 7).
                        Self-field    : sphere-specific E.n sum rule (ISelfD= 2).
 1st derivatives      : Analytical E(r).r(x)/FMM algorithm (CHGder, D1EAlg=3).
                        Cavity 1st derivative terms included.
 Solvent              : Dichloromethane, Eps=   8.930000 Eps(inf)=   2.028346
 ------------------------------------------------------------------------------
 One-electron integrals computed using PRISM.
   1 Symmetry operations used in ECPInt.
 ECPInt:  NShTT=   70876 NPrTT=  180792 LenC2=   62548 LenP2D=  120724.
 LDataN:  DoStor=T MaxTD1= 9 Len=  602
 Number of processors reduced to  36 by ecpmxn.
 NBasis=   992 RedAO= T EigKep=  1.46D-05  NBF=   992
 NBsUse=   992 1.00D-06 EigRej= -1.00D+00 NBFU=   992
 Defaulting to unpruned grid for atomic number  78.
 ExpMin= 4.92D-02 ExpMax= 2.70D+04 ExpMxC= 9.22D+02 IAcc=3 IRadAn=         5 AccDes= 0.00D+00
 Harris functional with IExCor= 4639 and IRadAn=       5 diagonalized for initial guess.
 HarFok:  IExCor= 4639 AccDes= 0.00D+00 IRadAn=         5 IDoV= 1 UseB2=F ITyADJ=14
 ICtDFT=  3500011 ScaDFX=  1.000000  1.000000  1.000000  1.000000
 Defaulting to unpruned grid for atomic number  78.
 FoFCou: FMM=F IPFlag=           0 FMFlag=      100000 FMFlg1=           0
         NFxFlg=           0 DoJE=T BraDBF=F KetDBF=T FulRan=T
         wScrn=  0.000000 ICntrl=       500 IOpCl=  0 I1Cent=   200000004 NGrid=           0
         NMat0=    1 NMatS0=      1 NMatT0=    0 NMatD0=    1 NMtDS0=    0 NMtDT0=    0
 Petite list used in FoFCou.
 Requested convergence on RMS density matrix=1.00D-08 within 128 cycles.
 Requested convergence on MAX density matrix=1.00D-06.
 Requested convergence on             energy=1.00D-06.
 No special actions if energy rises.
 Defaulting to unpruned grid for atomic number  78.
 Defaulting to unpruned grid for atomic number  78.
 Defaulting to unpruned grid for atomic number  78.
 Defaulting to unpruned grid for atomic number  78.
 Defaulting to unpruned grid for atomic number  78.
 Defaulting to unpruned grid for atomic number  78.
 Defaulting to unpruned grid for atomic number  78.
 Defaulting to unpruned grid for atomic number  78.
 Defaulting to unpruned grid for atomic number  78.
 Defaulting to unpruned grid for atomic number  78.
 Defaulting to unpruned grid for atomic number  78.
 Defaulting to unpruned grid for atomic number  78.
 Defaulting to unpruned grid for atomic number  78.
 Defaulting to unpruned grid for atomic number  78.
 Defaulting to unpruned grid for atomic number  78.
 Defaulting to unpruned grid for atomic number  78.
 Defaulting to unpruned grid for atomic number  78.
 Defaulting to unpruned grid for atomic number  78.
 Defaulting to unpruned grid for atomic number  78.
 Defaulting to unpruned grid for atomic number  78.
 Defaulting to unpruned grid for atomic number  78.
 Defaulting to unpruned grid for atomic number  78.
 Defaulting to unpruned grid for atomic number  78.
 Defaulting to unpruned grid for atomic number  78.
 Defaulting to unpruned grid for atomic number  78.
 Defaulting to unpruned grid for atomic number  78.
 Defaulting to unpruned grid for atomic number  78.
 Defaulting to unpruned grid for atomic number  78.
 Defaulting to unpruned grid for atomic number  78.
 Defaulting to unpruned grid for atomic number  78.
 Defaulting to unpruned grid for atomic number  78.
 Defaulting to unpruned grid for atomic number  78.
 Defaulting to unpruned grid for atomic number  78.
 Defaulting to unpruned grid for atomic number  78.
 Defaulting to unpruned grid for atomic number  78.
 Defaulting to unpruned grid for atomic number  78.
 Defaulting to unpruned grid for atomic number  78.
 Defaulting to unpruned grid for atomic number  78.
 Defaulting to unpruned grid for atomic number  78.
 Defaulting to unpruned grid for atomic number  78.
 Defaulting to unpruned grid for atomic number  78.
 Defaulting to unpruned grid for atomic number  78.
 Defaulting to unpruned grid for atomic number  78.
 Defaulting to unpruned grid for atomic number  78.
 Defaulting to unpruned grid for atomic number  78.
 Defaulting to unpruned grid for atomic number  78.
 Defaulting to unpruned grid for atomic number  78.
 Defaulting to unpruned grid for atomic number  78.
 Inv3:  Mode=1 IEnd=    23419308.
 Iteration    1 A*A^-1 deviation from unit magnitude is 3.66D-15 for   2077.
 Iteration    1 A*A^-1 deviation from orthogonality  is 2.11D-15 for   1972   1368.
 Iteration    1 A^-1*A deviation from unit magnitude is 3.89D-15 for   2077.
 Iteration    1 A^-1*A deviation from orthogonality  is 2.11D-15 for   2621    826.
 Error on total polarization charges =  0.02246
 SCF Done:  E(RwB97XD) =  -908.372748046     A.U. after   16 cycles
            NFock= 16  Conv=0.60D-08     -V/T= 2.1009

 **********************************************************************

            Population analysis using the SCF Density.

 **********************************************************************

 Orbital symmetries:
       Occupied  (A) (A) (A) (A) (A) (A) (A) (A) (A) (A) (A) (A)
                 (A) (A) (A) (A) (A) (A) (A) (A) (A) (A) (A) (A)
                 (A) (A) (A) (A) (A) (A) (A) (A) (A) (A) (A) (A)
                 (A) (A) (A) (A) (A) (A) (A) (A) (A) (A) (A) (A)
                 (A) (A) (A) (A) (A) (A) (A) (A) (A) (A) (A) (A)
                 (A) (A) (A) (A) (A) (A) (A) (A) (A) (A) (A) (A)
                 (A) (A) (A) (A) (A) (A)
       Virtual   (A) (A) (A) (A) (A) (A) (A) (A) (A) (A) (A) (A)
                 (A) (A) (A) (A) (A) (A) (A) (A) (A) (A) (A) (A)
                 (A) (A) (A) (A) (A) (A) (A) (A) (A) (A) (A) (A)
                 (A) (A) (A) (A) (A) (A) (A) (A) (A) (A) (A) (A)
                 (A) (A) (A) (A) (A) (A) (A) (A) (A) (A) (A) (A)
                 (A) (A) (A) (A) (A) (A) (A) (A) (A) (A) (A) (A)
                 (A) (A) (A) (A) (A) (A) (A) (A) (A) (A) (A) (A)
                 (A) (A) (A) (A) (A) (A) (A) (A) (A) (A) (A) (A)
                 (A) (A) (A) (A) (A) (A) (A) (A) (A) (A) (A) (A)
                 (A) (A) (A) (A) (A) (A) (A) (A) (A) (A) (A) (A)
                 (A) (A) (A) (A) (A) (A) (A) (A) (A) (A) (A) (A)
                 (A) (A) (A) (A) (A) (A) (A) (A) (A) (A) (A) (A)
                 (A) (A) (A) (A) (A) (A) (A) (A) (A) (A) (A) (A)
                 (A) (A) (A) (A) (A) (A) (A) (A) (A) (A) (A) (A)
                 (A) (A) (A) (A) (A) (A) (A) (A) (A) (A) (A) (A)
                 (A) (A) (A) (A) (A) (A) (A) (A) (A) (A) (A) (A)
                 (A) (A) (A) (A) (A) (A) (A) (A) (A) (A) (A) (A)
                 (A) (A) (A) (A) (A) (A) (A) (A) (A) (A) (A) (A)
                 (A) (A) (A) (A) (A) (A) (A) (A) (A) (A) (A) (A)
                 (A) (A) (A) (A) (A) (A) (A) (A) (A) (A) (A) (A)
                 (A) (A) (A) (A) (A) (A) (A) (A) (A) (A) (A) (A)
                 (A) (A) (A) (A) (A) (A) (A) (A) (A) (A) (A) (A)
                 (A) (A) (A) (A) (A) (A) (A) (A) (A) (A) (A) (A)
                 (A) (A) (A) (A) (A) (A) (A) (A) (A) (A) (A) (A)
                 (A) (A) (A) (A) (A) (A) (A) (A) (A) (A) (A) (A)
                 (A) (A) (A) (A) (A) (A) (A) (A) (A) (A) (A) (A)
                 (A) (A) (A) (A) (A) (A) (A) (A) (A) (A) (A) (A)
                 (A) (A) (A) (A) (A) (A) (A) (A) (A) (A) (A) (A)
                 (A) (A) (A) (A) (A) (A) (A) (A) (A) (A) (A) (A)
                 (A) (A) (A) (A) (A) (A) (A) (A) (A) (A) (A) (A)
                 (A) (A) (A) (A) (A) (A) (A) (A) (A) (A) (A) (A)
                 (A) (A) (A) (A) (A) (A) (A) (A) (A) (A) (A) (A)
                 (A) (A) (A) (A) (A) (A) (A) (A) (A) (A) (A) (A)
                 (A) (A) (A) (A) (A) (A) (A) (A) (A) (A) (A) (A)
                 (A) (A) (A) (A) (A) (A) (A) (A) (A) (A) (A) (A)
                 (A) (A) (A) (A) (A) (A) (A) (A) (A) (A) (A) (A)
                 (A) (A) (A) (A) (A) (A) (A) (A) (A) (A) (A) (A)
                 (A) (A) (A) (A) (A) (A) (A) (A) (A) (A) (A) (A)
                 (A) (A) (A) (A) (A) (A) (A) (A) (A) (A) (A) (A)
                 (A) (A) (A) (A) (A) (A) (A) (A) (A) (A) (A) (A)
                 (A) (A) (A) (A) (A) (A) (A) (A) (A) (A) (A) (A)
                 (A) (A) (A) (A) (A) (A) (A) (A) (A) (A) (A) (A)
                 (A) (A) (A) (A) (A) (A) (A) (A) (A) (A) (A) (A)
                 (A) (A) (A) (A) (A) (A) (A) (A) (A) (A) (A) (A)
                 (A) (A) (A) (A) (A) (A) (A) (A) (A) (A) (A) (A)
                 (A) (A) (A) (A) (A) (A) (A) (A) (A) (A) (A) (A)
                 (A) (A) (A) (A) (A) (A) (A) (A) (A) (A) (A) (A)
                 (A) (A) (A) (A) (A) (A) (A) (A) (A) (A) (A) (A)
                 (A) (A) (A) (A) (A) (A) (A) (A) (A) (A) (A) (A)
                 (A) (A) (A) (A) (A) (A) (A) (A) (A) (A) (A) (A)
                 (A) (A) (A) (A) (A) (A) (A) (A) (A) (A) (A) (A)
                 (A) (A) (A) (A) (A) (A) (A) (A) (A) (A) (A) (A)
                 (A) (A) (A) (A) (A) (A) (A) (A) (A) (A) (A) (A)
                 (A) (A) (A) (A) (A) (A) (A) (A) (A) (A) (A) (A)
                 (A) (A) (A) (A) (A) (A) (A) (A) (A) (A) (A) (A)
                 (A) (A) (A) (A) (A) (A) (A) (A) (A) (A) (A) (A)
                 (A) (A) (A) (A) (A) (A) (A) (A) (A) (A) (A) (A)
                 (A) (A) (A) (A) (A) (A) (A) (A) (A) (A) (A) (A)
                 (A) (A) (A) (A) (A) (A) (A) (A) (A) (A) (A) (A)
                 (A) (A) (A) (A) (A) (A) (A) (A) (A) (A) (A) (A)
                 (A) (A) (A) (A) (A) (A) (A) (A) (A) (A) (A) (A)
                 (A) (A) (A) (A) (A) (A) (A) (A) (A) (A) (A) (A)
                 (A) (A) (A) (A) (A) (A) (A) (A) (A) (A) (A) (A)
                 (A) (A) (A) (A) (A) (A) (A) (A) (A) (A) (A) (A)
                 (A) (A) (A) (A) (A) (A) (A) (A) (A) (A) (A) (A)
                 (A) (A) (A) (A) (A) (A) (A) (A) (A) (A) (A) (A)
                 (A) (A) (A) (A) (A) (A) (A) (A) (A) (A) (A) (A)
                 (A) (A) (A) (A) (A) (A) (A) (A) (A) (A) (A) (A)
                 (A) (A) (A) (A) (A) (A) (A) (A) (A) (A) (A) (A)
                 (A) (A) (A) (A) (A) (A) (A) (A) (A) (A) (A) (A)
                 (A) (A) (A) (A) (A) (A) (A) (A) (A) (A) (A) (A)
                 (A) (A) (A) (A) (A) (A) (A) (A) (A) (A) (A) (A)
                 (A) (A) (A) (A) (A) (A) (A) (A) (A) (A) (A) (A)
                 (A) (A) (A) (A) (A) (A) (A) (A) (A) (A) (A) (A)
                 (A) (A) (A) (A) (A) (A) (A) (A) (A) (A) (A) (A)
                 (A) (A) (A) (A) (A) (A) (A) (A) (A) (A) (A) (A)
                 (A) (A)
 The electronic state is 1-A.
 Alpha  occ. eigenvalues --  -19.34244 -14.58461 -14.58352 -14.53172 -10.43177
 Alpha  occ. eigenvalues --  -10.41073 -10.40615 -10.39386 -10.39192 -10.36816
 Alpha  occ. eigenvalues --  -10.36792 -10.36567 -10.36221 -10.36196 -10.35886
 Alpha  occ. eigenvalues --  -10.35333 -10.35002 -10.30939  -4.15769  -2.39547
 Alpha  occ. eigenvalues --   -2.38994  -2.38684  -1.23945  -1.15864  -1.12741
 Alpha  occ. eigenvalues --   -1.11929  -0.97850  -0.96966  -0.90076  -0.88114
 Alpha  occ. eigenvalues --   -0.87918  -0.87799  -0.85768  -0.85143  -0.81348
 Alpha  occ. eigenvalues --   -0.79897  -0.79197  -0.77103  -0.74440  -0.69741
 Alpha  occ. eigenvalues --   -0.68324  -0.66284  -0.65294  -0.64729  -0.64061
 Alpha  occ. eigenvalues --   -0.63515  -0.63333  -0.62556  -0.61254  -0.59338
 Alpha  occ. eigenvalues --   -0.58374  -0.57940  -0.57144  -0.57073  -0.55689
 Alpha  occ. eigenvalues --   -0.55162  -0.54904  -0.54439  -0.54011  -0.53380
 Alpha  occ. eigenvalues --   -0.53046  -0.52574  -0.52427  -0.51793  -0.51577
 Alpha  occ. eigenvalues --   -0.51535  -0.50987  -0.50936  -0.49605  -0.49264
 Alpha  occ. eigenvalues --   -0.46809  -0.46024  -0.44328  -0.43700  -0.41614
 Alpha  occ. eigenvalues --   -0.40765  -0.40392  -0.37786
 Alpha virt. eigenvalues --   -0.06677  -0.02558  -0.01895  -0.01319   0.05869
 Alpha virt. eigenvalues --    0.08592   0.08846   0.09041   0.09992   0.10515
 Alpha virt. eigenvalues --    0.10973   0.11615   0.11773   0.12062   0.12329
 Alpha virt. eigenvalues --    0.12904   0.13334   0.13724   0.13788   0.14489
 Alpha virt. eigenvalues --    0.15034   0.15378   0.15909   0.16200   0.16563
 Alpha virt. eigenvalues --    0.16823   0.17355   0.17416   0.18043   0.18472
 Alpha virt. eigenvalues --    0.18593   0.18882   0.19189   0.19347   0.19802
 Alpha virt. eigenvalues --    0.20936   0.21160   0.21817   0.22004   0.23357
 Alpha virt. eigenvalues --    0.23903   0.24095   0.24272   0.25242   0.25390
 Alpha virt. eigenvalues --    0.25835   0.26167   0.26889   0.27050   0.27623
 Alpha virt. eigenvalues --    0.28027   0.28454   0.29072   0.29704   0.30290
 Alpha virt. eigenvalues --    0.30560   0.31025   0.31419   0.31888   0.32243
 Alpha virt. eigenvalues --    0.32499   0.33577   0.33873   0.34103   0.34332
 Alpha virt. eigenvalues --    0.35399   0.36114   0.36209   0.36837   0.37021
 Alpha virt. eigenvalues --    0.37508   0.38151   0.38930   0.39323   0.39780
 Alpha virt. eigenvalues --    0.40311   0.40871   0.41572   0.41822   0.42087
 Alpha virt. eigenvalues --    0.42474   0.42672   0.42985   0.43382   0.43654
 Alpha virt. eigenvalues --    0.44254   0.44995   0.45357   0.45562   0.45993
 Alpha virt. eigenvalues --    0.46369   0.46511   0.46737   0.47014   0.47482
 Alpha virt. eigenvalues --    0.47568   0.47909   0.48233   0.48509   0.48907
 Alpha virt. eigenvalues --    0.49491   0.49663   0.50144   0.50618   0.50761
 Alpha virt. eigenvalues --    0.51008   0.51651   0.52309   0.52510   0.53263
 Alpha virt. eigenvalues --    0.53286   0.53771   0.54090   0.54312   0.55254
 Alpha virt. eigenvalues --    0.55626   0.55708   0.56342   0.57038   0.57669
 Alpha virt. eigenvalues --    0.57912   0.58286   0.59553   0.60018   0.60470
 Alpha virt. eigenvalues --    0.60812   0.61487   0.62528   0.62733   0.63170
 Alpha virt. eigenvalues --    0.63457   0.64093   0.64353   0.65746   0.66414
 Alpha virt. eigenvalues --    0.67091   0.67624   0.68128   0.68589   0.69544
 Alpha virt. eigenvalues --    0.69951   0.71116   0.71271   0.71645   0.72071
 Alpha virt. eigenvalues --    0.72903   0.74037   0.74611   0.75434   0.76137
 Alpha virt. eigenvalues --    0.76529   0.77599   0.78855   0.79043   0.79621
 Alpha virt. eigenvalues --    0.80443   0.80834   0.81318   0.81974   0.82243
 Alpha virt. eigenvalues --    0.83084   0.84007   0.84549   0.84994   0.85218
 Alpha virt. eigenvalues --    0.86668   0.87435   0.87931   0.88512   0.88832
 Alpha virt. eigenvalues --    0.89604   0.90253   0.90553   0.91049   0.91661
 Alpha virt. eigenvalues --    0.92595   0.93486   0.93974   0.94470   0.94929
 Alpha virt. eigenvalues --    0.94974   0.96152   0.96950   0.97359   0.97730
 Alpha virt. eigenvalues --    0.98345   0.98911   0.99144   0.99617   0.99723
 Alpha virt. eigenvalues --    1.00037   1.00932   1.01572   1.01991   1.02258
 Alpha virt. eigenvalues --    1.02497   1.03035   1.03568   1.04220   1.04586
 Alpha virt. eigenvalues --    1.05251   1.05456   1.06528   1.06860   1.07419
 Alpha virt. eigenvalues --    1.07541   1.08356   1.09293   1.10159   1.10221
 Alpha virt. eigenvalues --    1.10936   1.11361   1.12108   1.12881   1.13094
 Alpha virt. eigenvalues --    1.13914   1.13968   1.14630   1.15107   1.15550
 Alpha virt. eigenvalues --    1.15800   1.16798   1.17738   1.18105   1.18316
 Alpha virt. eigenvalues --    1.18982   1.19300   1.20097   1.20322   1.21312
 Alpha virt. eigenvalues --    1.22116   1.22537   1.22775   1.23499   1.24439
 Alpha virt. eigenvalues --    1.25240   1.25684   1.26254   1.26754   1.27643
 Alpha virt. eigenvalues --    1.28350   1.28845   1.29641   1.30389   1.30435
 Alpha virt. eigenvalues --    1.31091   1.31423   1.31972   1.32378   1.33484
 Alpha virt. eigenvalues --    1.34054   1.34324   1.34747   1.35071   1.35900
 Alpha virt. eigenvalues --    1.36231   1.36898   1.37104   1.37740   1.38463
 Alpha virt. eigenvalues --    1.38932   1.39237   1.39930   1.40500   1.40790
 Alpha virt. eigenvalues --    1.41333   1.41849   1.42454   1.42975   1.43291
 Alpha virt. eigenvalues --    1.43750   1.44260   1.45265   1.46131   1.46980
 Alpha virt. eigenvalues --    1.47188   1.47950   1.48225   1.48637   1.49316
 Alpha virt. eigenvalues --    1.50087   1.50614   1.50811   1.51505   1.52300
 Alpha virt. eigenvalues --    1.52557   1.53105   1.53606   1.54170   1.54744
 Alpha virt. eigenvalues --    1.55250   1.55922   1.56365   1.57095   1.57416
 Alpha virt. eigenvalues --    1.57986   1.58683   1.59431   1.59617   1.60247
 Alpha virt. eigenvalues --    1.60853   1.61091   1.61849   1.62283   1.62971
 Alpha virt. eigenvalues --    1.63713   1.63855   1.64585   1.65538   1.66289
 Alpha virt. eigenvalues --    1.67124   1.67407   1.67854   1.68085   1.68710
 Alpha virt. eigenvalues --    1.69320   1.70221   1.71063   1.71990   1.72576
 Alpha virt. eigenvalues --    1.72938   1.73418   1.74101   1.74646   1.75622
 Alpha virt. eigenvalues --    1.77579   1.77785   1.78604   1.79714   1.80257
 Alpha virt. eigenvalues --    1.81636   1.82436   1.83034   1.83505   1.84030
 Alpha virt. eigenvalues --    1.84459   1.86036   1.86658   1.87535   1.88516
 Alpha virt. eigenvalues --    1.89688   1.90672   1.91494   1.92599   1.93140
 Alpha virt. eigenvalues --    1.94192   1.94784   1.95031   1.95640   1.96648
 Alpha virt. eigenvalues --    1.97546   1.99421   1.99800   2.01915   2.02113
 Alpha virt. eigenvalues --    2.03927   2.03959   2.04685   2.07379   2.07989
 Alpha virt. eigenvalues --    2.09686   2.10901   2.12487   2.15322   2.15894
 Alpha virt. eigenvalues --    2.17230   2.17524   2.18391   2.19424   2.20066
 Alpha virt. eigenvalues --    2.20611   2.21928   2.22300   2.23297   2.24238
 Alpha virt. eigenvalues --    2.25532   2.26127   2.27228   2.27608   2.28706
 Alpha virt. eigenvalues --    2.29567   2.31013   2.32910   2.35899   2.36227
 Alpha virt. eigenvalues --    2.37046   2.39001   2.40266   2.40826   2.44450
 Alpha virt. eigenvalues --    2.46946   2.47473   2.47923   2.51633   2.53447
 Alpha virt. eigenvalues --    2.54226   2.55506   2.55980   2.56900   2.58085
 Alpha virt. eigenvalues --    2.58624   2.59191   2.59589   2.60974   2.61688
 Alpha virt. eigenvalues --    2.62989   2.63679   2.63950   2.65057   2.65876
 Alpha virt. eigenvalues --    2.66775   2.67927   2.68669   2.69576   2.69691
 Alpha virt. eigenvalues --    2.69919   2.71740   2.71928   2.73706   2.74078
 Alpha virt. eigenvalues --    2.74996   2.75448   2.76555   2.77292   2.77823
 Alpha virt. eigenvalues --    2.78303   2.78979   2.80273   2.80564   2.81892
 Alpha virt. eigenvalues --    2.82013   2.82829   2.83382   2.83514   2.83894
 Alpha virt. eigenvalues --    2.84522   2.85118   2.85310   2.86304   2.86590
 Alpha virt. eigenvalues --    2.87443   2.87613   2.88073   2.88464   2.88787
 Alpha virt. eigenvalues --    2.90030   2.90861   2.91161   2.91898   2.92349
 Alpha virt. eigenvalues --    2.92638   2.93054   2.93566   2.94046   2.94416
 Alpha virt. eigenvalues --    2.94969   2.95761   2.95981   2.96530   2.97182
 Alpha virt. eigenvalues --    2.97647   2.98084   2.98499   2.98795   2.99597
 Alpha virt. eigenvalues --    2.99986   3.00501   3.01234   3.01465   3.02084
 Alpha virt. eigenvalues --    3.02841   3.03796   3.04394   3.05019   3.05685
 Alpha virt. eigenvalues --    3.06113   3.06862   3.07149   3.07656   3.07910
 Alpha virt. eigenvalues --    3.09341   3.09638   3.10313   3.10890   3.11077
 Alpha virt. eigenvalues --    3.12712   3.12912   3.13700   3.14061   3.14499
 Alpha virt. eigenvalues --    3.14832   3.15332   3.15590   3.16617   3.17310
 Alpha virt. eigenvalues --    3.17880   3.18355   3.18537   3.18880   3.19986
 Alpha virt. eigenvalues --    3.20415   3.20646   3.21208   3.21811   3.22579
 Alpha virt. eigenvalues --    3.23204   3.23759   3.24415   3.25200   3.25961
 Alpha virt. eigenvalues --    3.26530   3.27534   3.28022   3.28389   3.29222
 Alpha virt. eigenvalues --    3.30142   3.30974   3.31257   3.32102   3.33001
 Alpha virt. eigenvalues --    3.33301   3.34083   3.34513   3.34937   3.35362
 Alpha virt. eigenvalues --    3.36070   3.36534   3.37048   3.37424   3.38438
 Alpha virt. eigenvalues --    3.38696   3.39097   3.39744   3.40318   3.41160
 Alpha virt. eigenvalues --    3.41484   3.42035   3.42673   3.43608   3.43647
 Alpha virt. eigenvalues --    3.43851   3.44626   3.44934   3.45643   3.46131
 Alpha virt. eigenvalues --    3.47104   3.48048   3.48462   3.48549   3.49510
 Alpha virt. eigenvalues --    3.50559   3.51044   3.51295   3.51774   3.52203
 Alpha virt. eigenvalues --    3.52578   3.52745   3.53954   3.54785   3.55047
 Alpha virt. eigenvalues --    3.55874   3.56147   3.56415   3.56632   3.57684
 Alpha virt. eigenvalues --    3.58045   3.58722   3.59196   3.59295   3.60416
 Alpha virt. eigenvalues --    3.62120   3.62453   3.63025   3.63927   3.64232
 Alpha virt. eigenvalues --    3.64305   3.64826   3.65586   3.66473   3.66728
 Alpha virt. eigenvalues --    3.67204   3.67886   3.68470   3.69002   3.70824
 Alpha virt. eigenvalues --    3.71056   3.71263   3.71714   3.71976   3.72844
 Alpha virt. eigenvalues --    3.73506   3.73862   3.73970   3.74582   3.75412
 Alpha virt. eigenvalues --    3.76172   3.76905   3.77265   3.77788   3.78597
 Alpha virt. eigenvalues --    3.79336   3.79916   3.80376   3.80992   3.81316
 Alpha virt. eigenvalues --    3.81494   3.82053   3.83444   3.83773   3.84711
 Alpha virt. eigenvalues --    3.86058   3.86299   3.86588   3.87760   3.88264
 Alpha virt. eigenvalues --    3.88943   3.89821   3.90234   3.90779   3.91375
 Alpha virt. eigenvalues --    3.92231   3.93168   3.93960   3.94499   3.94978
 Alpha virt. eigenvalues --    3.95950   3.96094   3.96434   3.98033   3.99068
 Alpha virt. eigenvalues --    3.99447   4.00136   4.00389   4.00934   4.01228
 Alpha virt. eigenvalues --    4.02038   4.02612   4.03543   4.04845   4.04881
 Alpha virt. eigenvalues --    4.06029   4.06311   4.07062   4.07312   4.08398
 Alpha virt. eigenvalues --    4.09045   4.09406   4.10580   4.11101   4.11847
 Alpha virt. eigenvalues --    4.12687   4.13757   4.14064   4.14671   4.15391
 Alpha virt. eigenvalues --    4.15572   4.16040   4.16392   4.16925   4.17171
 Alpha virt. eigenvalues --    4.17691   4.18978   4.19259   4.19550   4.20244
 Alpha virt. eigenvalues --    4.20506   4.20636   4.21690   4.22181   4.23160
 Alpha virt. eigenvalues --    4.23626   4.23704   4.24424   4.24544   4.24792
 Alpha virt. eigenvalues --    4.25585   4.26391   4.27262   4.27434   4.27700
 Alpha virt. eigenvalues --    4.28040   4.28650   4.29182   4.29582   4.30078
 Alpha virt. eigenvalues --    4.31043   4.31367   4.31844   4.32956   4.33076
 Alpha virt. eigenvalues --    4.33283   4.34314   4.34929   4.35227   4.36216
 Alpha virt. eigenvalues --    4.36774   4.37137   4.37752   4.38792   4.39192
 Alpha virt. eigenvalues --    4.40207   4.40572   4.41663   4.42177   4.42817
 Alpha virt. eigenvalues --    4.43300   4.44350   4.45853   4.46190   4.47192
 Alpha virt. eigenvalues --    4.47914   4.48171   4.48856   4.49346   4.50398
 Alpha virt. eigenvalues --    4.51725   4.52765   4.54022   4.55433   4.56660
 Alpha virt. eigenvalues --    4.57748   4.58471   4.59499   4.60050   4.60277
 Alpha virt. eigenvalues --    4.62179   4.62519   4.63357   4.66355   4.67666
 Alpha virt. eigenvalues --    4.68722   4.69091   4.69926   4.71129   4.71553
 Alpha virt. eigenvalues --    4.72671   4.73662   4.74226   4.74897   4.75461
 Alpha virt. eigenvalues --    4.75668   4.76236   4.77395   4.77806   4.78725
 Alpha virt. eigenvalues --    4.79122   4.80030   4.80783   4.83695   4.84639
 Alpha virt. eigenvalues --    4.86423   4.86500   4.87344   4.88746   4.89329
 Alpha virt. eigenvalues --    4.91181   4.91806   4.92205   4.93718   4.95179
 Alpha virt. eigenvalues --    4.97184   4.98264   4.99681   5.02205   5.03549
 Alpha virt. eigenvalues --    5.03907   5.05084   5.05595   5.07066   5.07371
 Alpha virt. eigenvalues --    5.08866   5.09341   5.11519   5.11958   5.12893
[...]
 ,-0.00008991,0.00012176,-0.00004402,-0.00011509,-0.00008430,-0.0000165
 2,0.00035013,-0.00060345,-0.00024016,-0.00015648,0.00029013,0.00004504
 ,-0.00019040,-0.00029103,0.00071046,0.00005424,0.00044054,-0.00003948,
 0.00017291,-0.00007515,0.00018004,0.00011265,-0.00001096,0.00016999,-0
 .00006023,0.00001032,-0.00003667,0.00016562,-0.00015068,0.00004110,-0.
 00003790,-0.00001477,-0.00000212,0.00000483,-0.00000049,-0.00000373,0.
 00000626,-0.00000516,-0.00000069,0.00000885,0.00001024,0.55700535,0.00
 112880,-0.04203816,0.00643128,-0.00008706,0.00074094,0.00013242,0.0004
 7028,-0.00026516,-0.00032578,0.00017547,-0.00020804,-0.00009224,-0.000
 29490,-0.00015685,0.00001090,0.00005101,0.00031097,-0.00000244,-0.0000
 3280,-0.00000681,-0.00001047,-0.00000832,0.00000256,-0.00000385,-0.000
 05790,-0.00004343,0.00002171,-0.00156437,-0.00033900,0.00047723,-0.000
 44181,0.00036212,-0.00023837,-0.00056137,-0.00023086,-0.00019133,0.000
 23385,0.00012107,0.00006553,0.00010512,0.00034505,0.00044192,0.0001230
 0,-0.00012303,-0.00018097,-0.00025230,0.00005553,-0.00009513,-0.001817
 20,0.00359776,0.00521689,0.00137782,0.00328852,-0.00600593,-0.00015672
 ,-0.00071568,0.00085936,0.00001366,-0.00003695,0.00019250,-0.00026487,
 0.00025773,0.00003377,-0.00041086,0.00012438,-0.00075581,0.00071580,0.
 00019798,-0.00124978,-0.00003648,-0.00000947,0.00003853,-0.00013067,0.
 00030399,0.00018589,0.00015045,-0.00166880,0.00113203,-0.00008263,-0.0
 0017812,-0.00035822,0.00012969,-0.00014415,-0.00009457,-0.00009996,0.0
 0009983,-0.00023222,0.00028074,-0.00004859,-0.00039533,-0.00029041,-0.
 00120857,0.00088998,0.00023712,0.00032255,-0.00056754,0.00001617,0.000
 07426,0.00004890,0.00022134,-0.00228352,-0.00097932,0.00027291,0.00103
 021,-0.00001411,0.00014272,0.00017497,0.00018181,-0.00010923,-0.000278
 98,0.00018653,-0.00031922,-0.00028601,0.00038527,0.00001585,-0.0000180
 9,-0.00001382,-0.00000104,-0.00000139,0.00000012,0.00000360,0.00000183
 ,0.00000050,0.00000410,0.00000420,0.00000217,-0.00252799,0.57875209,0.
 02146212,0.00361683,-0.11305812,0.00073134,0.00103361,-0.00023198,0.00
 054702,-0.00114355,-0.00000982,-0.00068327,0.00036890,0.00019826,-0.00
 069239,-0.00045467,0.00019324,0.00124928,0.00027342,-0.00006219,-0.000
 03071,-0.00000773,0.00004940,-0.00004848,0.00000547,0.00005618,-0.0014
 8798,-0.00005825,0.00013788,0.00348740,0.00078030,0.00013593,0.0008381
 8,0.00005920,0.00095768,-0.00091277,-0.00054764,-0.00005057,-0.0003267
 5,-0.00019323,-0.00010731,0.00106501,-0.00006531,0.00112016,-0.0002544
 5,0.00050837,-0.00009677,-0.00039030,0.00019931,-0.00028415,-0.0002700
 6,0.00270513,0.00017831,0.00030529,-0.00194253,-0.00088751,-0.00254063
 ,0.00048432,-0.00529977,0.00032753,-0.00004180,0.00036947,0.00149064,-
 0.00041700,0.00052862,0.00134587,0.00044885,0.00075879,-0.00134402,0.0
 0039877,0.00146215,0.00006229,0.00010292,-0.00027028,0.00041942,-0.000
 46654,-0.00044590,0.00020226,-0.00059118,-0.00064355,-0.00024275,0.000
 26822,-0.00135192,0.00006834,-0.00051288,0.00015211,-0.00012096,0.0001
 6491,-0.00005765,0.00043833,0.00015770,-0.00023468,-0.00104534,-0.0008
 0091,0.00146861,0.00037710,0.00056016,-0.00053219,0.00006457,-0.000006
 90,-0.00008796,-0.00003971,0.00088665,-0.00053820,-0.00011657,-0.00122
 886,-0.00058308,-0.00006030,-0.00015816,-0.00000666,-0.00002521,0.0004
 7677,0.00013888,0.00028921,0.00031334,-0.00020366,0.00031787,-0.000353
 91,-0.00004192,-0.00004218,0.00001363,0.00000834,-0.00001589,0.0000720
 9,-0.00000667,-0.00000038,0.00005876,0.00000290,0.06418426,0.02335112,
 0.32416178,-0.00081533,0.00468687,0.00480847,-0.00028109,0.00014548,0.
 00008185,0.00021540,0.00007649,-0.00011815,0.00004789,-0.00009658,0.00
 000852,-0.00001721,-0.00009632,0.00001110,-0.00002886,0.00007388,0.000
 01749,-0.00000733,-0.00000236,0.00000148,0.00000641,0.00000085,0.00000
 778,0.00001456,-0.00001985,-0.00000580,0.00022581,-0.00016684,-0.00016
 945,0.00008554,0.00010039,0.00053560,-0.00098271,-0.00077160,-0.000152
 54,0.00001949,-0.00004891,-0.00025789,0.00003409,0.00006865,-0.0001600
 6,0.00001063,-0.00013374,0.00005197,0.00000691,-0.00001964,0.00008594,
 -0.00003814,-0.00032211,0.00014181,-0.00005807,-0.00047274,0.00018836,
 -0.00014769,-0.00017538,0.00030279,0.00012061,0.00014308,0.00002389,-0
 .00020662,-0.00003740,-0.00014130,0.00015656,0.00014138,0.00006390,0.0
 0004540,-0.00007466,-0.00029160,-0.00003259,0.00006718,-0.00011173,-0.
 00000334,-0.00004735,0.00005549,-0.00025241,0.00040678,-0.00040451,-0.
 00013212,-0.00002319,0.00003230,0.00001657,-0.00000584,0.00000571,-0.0
 0000607,0.00001149,-0.00003001,0.00001418,0.00000999,0.00001935,0.0001
 2796,-0.00018227,0.00008514,0.00007597,0.00001798,-0.00008795,-0.00000
 295,0.00008155,0.00014308,-0.00020471,0.00003429,-0.00014082,-0.000000
 22,-0.00007908,-0.00006066,-0.00001165,-0.00002114,0.00000116,0.000001
 74,0.00004170,-0.00000158,0.00004043,0.00004051,-0.00003772,-0.0000036
 1,0.00000543,0.00000214,0.00000123,-0.00000064,-0.00000008,0.00000030,
 -0.00000024,-0.00000018,0.00000177,-0.00000128,-0.00000089,-0.05506140
 ,0.03934109,0.01032486,0.05144596,-0.00060620,0.00636041,0.00102451,0.
 00003892,0.00007013,-0.00003503,-0.00013992,-0.00014937,0.00005330,-0.
 00003835,-0.00000759,0.00000513,0.00005346,0.00006494,-0.00001155,-0.0
 0002984,-0.00006575,0.00001077,-0.00000383,0.00000187,-0.00000264,-0.0
 0000789,-0.00000340,0.00000069,0.00004387,0.00000435,-0.00000651,-0.00
 006976,0.00016968,0.00000074,0.00007191,-0.00005442,0.00032113,-0.0002
 5012,-0.00030072,0.00026967,0.00001990,-0.00002830,-0.00017524,-0.0000
 9146,-0.00002720,0.00003961,-0.00006791,0.00009894,0.00000035,0.000027
 53,0.00001045,-0.00001385,0.00033371,-0.00171258,0.00019668,-0.0001673
 8,-0.00078023,0.00073516,0.00003488,0.00000456,0.00032095,0.00014829,0
 .00015787,-0.00003483,-0.00012353,0.00003498,-0.00007750,0.00013757,0.
 00009162,0.00016011,-0.00088899,-0.00098213,0.00216358,0.00007670,0.00
 008736,-0.00018592,-0.00001814,0.00012146,-0.00039161,0.00044544,-0.00
 241044,0.00062344,0.00005576,-0.00021356,0.00012545,-0.00001723,0.0000
 8358,0.00010199,0.00000736,0.00001307,0.00002354,0.00001704,0.00002005
 ,-0.00003147,0.00012543,-0.00010599,0.00040263,0.00004903,0.00000526,-
 0.00015655,-0.00000040,0.00003117,-0.00000828,-0.00003746,0.00019250,-
 0.00032326,-0.00003941,-0.00002231,0.00012532,-0.00002915,-0.00003515,
 -0.00002258,0.00001261,0.00007164,-0.00003748,0.00006281,0.00005443,-0
 .00008387,-0.00001093,0.00001248,0.00000430,0.00000223,0.00000013,-0.0
 0000044,-0.00000043,-0.00000226,-0.00000137,-0.00000076,-0.00000249,0.
 00000087,0.03601666,-0.29885890,-0.09069663,-0.03974700,0.31955432,0.0
 0646822,-0.01675286,-0.01599610,0.00003760,-0.00024623,-0.00003492,-0.
 00000375,0.00025449,-0.00003212,0.00010264,0.00003342,-0.00002387,0.00
 003726,0.00002303,-0.00000857,-0.00014666,-0.00000354,-0.00000002,0.00
 001402,-0.00000129,0.00000043,0.00001398,0.00000168,-0.00000819,0.0001
 5487,0.00001284,-0.00001308,-0.00035585,-0.00025183,-0.00011527,0.0000
 4432,0.00022920,-0.00043815,0.00005394,0.00055491,-0.00025398,0.000074
 89,0.00006459,0.00019262,-0.00019394,0.00005878,-0.00017611,0.00010308
 ,-0.00013096,-0.00001559,0.00002983,-0.00002154,0.00003497,-0.00017637
 ,0.00125382,0.00036790,0.00004265,0.00133263,-0.00095293,0.00071836,-0
 .00034543,-0.00007958,-0.00035824,-0.00009735,0.00007129,-0.00046201,0
 .00002585,-0.00008399,-0.00034096,0.00005662,-0.00023358,0.00078932,0.
 00020548,-0.00179924,-0.00004827,-0.00001389,0.00009009,-0.00025153,-0
 .00001904,0.00067910,-0.00035356,0.00112071,0.00038904,-0.00004088,0.0
 0017874,-0.00012515,0.00002331,-0.00000949,-0.00005202,0.00002868,-0.0
 0004403,-0.00001972,-0.00008153,-0.00003791,0.00004203,0.00004338,0.00
 013983,-0.00008327,-0.00003218,-0.00004391,0.00007044,0.00000032,0.000
 03483,0.00006630,-0.00004679,-0.00036298,0.00003638,0.00009585,0.00037
 993,0.00013324,0.00005922,0.00008998,0.00005532,-0.00001789,-0.0001813
 2,0.00004076,-0.00014395,-0.00011669,0.00014822,-0.00003419,0.00003432
 ,0.00000045,0.00000389,-0.00000085,-0.00000065,0.00000177,-0.00000739,
 0.00000135,0.00000068,-0.00000576,0.00000024,0.01062974,-0.09987256,-0
 .07018489,-0.01374494,0.09629229,0.07745007,0.00424805,-0.00434290,0.0
 0609840,-0.00040622,-0.00012349,0.00012689,-0.00061138,0.00015248,-0.0
 0017520,0.00012801,-0.00014537,-0.00008676,-0.00008971,0.00006617,-0.0
 0010815,-0.00010354,0.00007703,0.00004299,-0.00002211,0.00000021,-0.00
 000204,-0.00001195,-0.00000420,-0.00001959,0.00012978,-0.00000122,-0.0
 0001448,-0.00053512,-0.00070897,0.00156427,0.00010677,0.00002753,0.000
 12497,-0.00003234,-0.00003682,-0.00004996,-0.00000846,-0.00001745,-0.0
 0003309,0.00025202,-0.00000086,0.00054302,-0.00005071,0.00020773,-0.00
 010280,-0.00004392,0.00003149,-0.00021098,-0.00010706,0.00040703,0.000
 36099,0.00020918,0.00073779,-0.00002532,-0.00010223,0.00010553,-0.0002
 0136,0.00010435,-0.00003951,-0.00028014,0.00041648,-0.00011084,0.00015
 369,0.00015444,0.00006013,0.00009988,-0.00005536,-0.00005294,0.0000985
 5,0.00000518,0.00000158,-0.00000566,0.00002649,-0.00002389,-0.00001494
 ,0.00000968,-0.00010314,-0.00003978,0.00006622,0.00004598,-0.00017753,
 -0.00001309,-0.00005996,-0.00000728,-0.00005737,0.00002558,-0.00003778
 ,0.00004677,0.00003001,-0.00003302,-0.00021212,0.00024166,-0.00007754,
 0.00002275,0.00002568,0.00009386,-0.00001128,0.00004252,0.00013704,-0.
 00021251,-0.00085418,-0.00021285,-0.00016110,0.00010627,0.00002151,-0.
 00001892,-0.00001343,-0.00001496,0.00000351,-0.00002798,0.00007163,0.0
 0000267,-0.00002386,0.00005170,-0.00002594,0.00002959,0.00001336,0.000
 00360,-0.00000194,-0.00000018,0.00000319,-0.00000495,-0.00000004,0.000
 00001,-0.00000546,-0.00000310,-0.20964209,0.09496184,-0.10345933,-0.00
 085618,0.00005650,-0.00233947,0.22221248,-0.00055817,0.00087191,0.0013
 5891,-0.00019108,-0.00035878,0.00008094,-0.00009091,0.00048156,-0.0001
 6886,0.00010763,-0.00002183,0.00004092,0.00004442,-0.00006772,0.000051
 39,-0.00012397,0.00003269,0.00001496,0.00001495,-0.00000242,0.00000825
 ,0.00002057,0.00000256,0.00001705,0.00010807,-0.00000754,-0.00002121,0
 .00063574,0.00002769,-0.00037020,0.00015570,0.00004121,0.00006632,0.00
 012291,-0.00003264,-0.00003179,-0.00003103,0.00000187,-0.00003548,0.00
 007224,0.00005054,-0.00038908,-0.00029207,-0.00076644,-0.00027115,-0.0
 0004473,-0.00004443,0.00015296,0.00005471,-0.00013968,-0.00009226,-0.0
 0007769,-0.00017759,-0.00029790,0.00003899,0.00003489,-0.00008210,0.00
 009685,0.00002325,-0.00004965,-0.00007942,-0.00010513,-0.00004876,0.00
 002432,0.00007098,0.00011140,0.00005792,-0.00031762,-0.00044919,-0.000
 01251,0.00002041,0.00003035,-0.00005762,-0.00002799,0.00022114,-0.0000
 1181,0.00022457,0.00032378,-0.00006859,0.00004695,-0.00012914,0.000016
 87,-0.00001107,0.00001318,0.00000475,-0.00000275,-0.00000191,-0.000005
 01,0.00000692,0.00003093,0.00001265,-0.00005585,-0.00060643,-0.0000104
 6,0.00006017,0.00019866,0.00003041,0.00001975,0.00006707,-0.00048777,-
 0.00153399,-0.00065258,0.00000113,-0.00009650,-0.00012098,0.00000035,0
 .00000747,0.00001818,-0.00000585,0.00002632,-0.00000902,-0.00000542,0.
 00000825,0.00003623,-0.00002527,0.00002697,0.00000605,0.00000289,-0.00
 000099,-0.00000040,-0.00000067,-0.00000340,0.00000194,0.00000211,-0.00
 000525,-0.00000357,0.09587343,-0.10831410,0.05786005,0.02190626,-0.009
 58763,0.01446045,-0.10414663,0.10997426,-0.00860886,0.00947730,-0.0199
 7350,0.00036883,0.00018387,-0.00008892,0.00061432,0.00020280,-0.000496
 84,-0.00007099,0.00004884,-0.00003363,-0.00003775,-0.00020668,-0.00002
 817,0.00007324,0.00004454,-0.00002259,0.00001668,-0.00000483,-0.000010
 14,0.00002641,0.00001233,0.00000267,-0.00008910,-0.00001827,0.00001636
 ,0.00052543,0.00017442,0.00087668,-0.00021255,-0.00000316,-0.00018396,
 0.00006151,0.00006861,0.00003751,0.00005034,0.00002548,0.00005164,-0.0
 0001382,-0.00012733,-0.00074614,-0.00047401,-0.00100782,0.00001702,0.0
 0007979,-0.00008487,0.00033761,0.00006028,-0.00082611,-0.00043453,-0.0
 0030845,-0.00048662,0.00007225,0.00082420,0.00009652,0.00028159,-0.000
 01170,0.00005052,0.00016302,-0.00036042,-0.00003480,-0.00011317,-0.000
 18962,-0.00001990,-0.00001196,0.00015833,-0.00007989,-0.00014496,0.000
 00487,-0.00003288,0.00002972,-0.00006151,0.00005356,0.00007527,-0.0000
 2164,0.00022936,0.00003858,-0.00012773,-0.00011949,0.00040526,0.000025
 34,0.00010729,0.00000996,0.00010324,-0.00006692,0.00007373,-0.00010170
 ,-0.00006254,0.00005732,0.00041362,-0.00006088,-0.00072892,-0.00008343
 ,-0.00006138,0.00031766,0.00001589,0.00005851,0.00008189,0.00025556,-0
 .00072486,0.00079587,0.00015008,-0.00005410,-0.00016565,0.00005520,0.0
 0007106,0.00003797,0.00002109,-0.00002474,-0.00002750,-0.00007481,0.00
 000423,0.00001157,0.00002110,-0.00002084,-0.00000771,-0.00000269,0.000
 00084,0.00000009,0.00000027,0.00000320,0.00000088,-0.00000035,0.000005
 14,0.00000150,-0.11307583,0.06234823,-0.10235071,0.00817632,-0.0053825
 3,0.00783144,0.11010441,-0.06297813,0.11067547,-0.00347790,-0.00086020
 ,0.00369830,0.00010322,0.00020050,-0.00003788,0.00021654,-0.00016790,-
 0.00009547,-0.00009089,0.00001179,-0.00000878,-0.00004767,0.00000396,-
 0.00001413,0.00012740,-0.00000596,-0.00001247,-0.00001016,0.00000020,-
 0.00000137,-0.00001024,-0.00000119,-0.00000274,-0.00012640,0.00000144,
 0.00001581,0.00041743,-0.00008446,0.00028440,0.00002648,0.00004627,0.0
 0002379,-0.00004270,-0.00001547,0.00000978,0.00000129,-0.00001268,-0.0
 0001505,-0.00012813,0.00004775,-0.00009598,-0.00000345,-0.00008227,0.0
 0001869,0.00001472,-0.00000403,0.00005517,0.00004841,-0.00000663,-0.00
 009367,-0.00005963,-0.00064026,0.00000927,0.00068261,0.00057529,-0.001
 96228,-0.00032583,-0.00003787,-0.00014888,0.00035627,0.00013209,0.0001
 8071,0.00014620,-0.00000651,-0.00017496,-0.00009612,0.00001086,0.00003
 314,0.00000174,0.00001336,-0.00002102,0.00000555,-0.00000441,-0.000026
 23,0.00004354,-0.00007068,0.00003479,0.00000497,0.00002632,-0.00003230
 ,-0.00000198,-0.00000240,-0.00000068,-0.00000292,0.00000329,-0.0000039
 3,0.00001188,0.00000789,-0.00001082,0.00053050,-0.00061107,0.00044543,
 0.00009705,-0.00000743,-0.00034587,0.00004994,0.00001113,-0.00006117,-
 0.00027631,0.00054033,-0.00046562,0.00008154,0.00000494,0.00003582,-0.
 00000329,-0.00000809,0.00000511,-0.00000597,0.00002258,-0.00002022,0.0
 0001843,0.00001873,-0.00006079,0.00002837,-0.00003121,-0.00000510,-0.0
 0000369,0.00000118,0.00000074,-0.00000073,0.00000576,-0.00000085,-0.00
 000121,0.00000551,0.00000159,-0.25686168,-0.13062434,0.00455225,0.0064
 3490,0.00454849,-0.00039885,-0.01476091,-0.01307918,0.00172060,0.26688
 880,-0.00099623,0.00098335,0.00132513,0.00004840,-0.00022261,-0.000028
 92,-0.00014724,0.00017932,0.00009992,0.00001766,0.00004720,-0.00000404
 ,0.00000697,-0.00000648,-0.00000589,-0.00001921,-0.00001016,-0.0000004
 0,0.00000999,0.00000168,-0.00000177,0.00000619,-0.00000128,-0.00000098
 ,0.00001474,0.00000534,-0.00000200,0.00040205,0.00007363,-0.00001309,0
 .00007870,-0.00003148,-0.00016413,0.00009319,0.00015195,0.00004325,-0.
 00000551,0.00001252,0.00006412,0.00011001,-0.00014247,0.00003413,0.000
 01266,0.00005330,-0.00001104,0.00001437,0.00003373,-0.00005141,0.00011
 008,0.00005710,-0.00018989,-0.00001251,-0.00033434,0.00015362,0.000027
 69,0.00064540,-0.00064736,-0.00008311,-0.00016995,-0.00021351,0.000356
 71,-0.00018915,0.00020223,-0.00009830,-0.00008876,0.00013194,0.0000925
 3,-0.00012394,-0.00020817,-0.00000420,-0.00002948,0.00008783,-0.000009
 28,-0.00001515,0.00011608,-0.00018150,0.00015361,0.00010380,0.00003742
 ,0.00008038,-0.00013719,-0.00001690,-0.00000217,0.00000064,-0.00000369
 ,-0.00000319,0.00000535,-0.00001647,0.00001308,0.00002257,0.00056028,-
 0.00029896,-0.00052045,-0.00012537,0.00005796,0.00014375,-0.00008234,-
 0.00004439,-0.00024196,0.00041675,-0.00064324,-0.00032478,-0.00004858,
 -0.00007685,-0.00012449,-0.00000600,0.00000841,-0.00001825,-0.00000409
 ,0.00001829,-0.00000480,-0.00003246,-0.00002148,0.00003638,-0.00000261
 ,0.00000245,0.00000161,-0.00000022,0.00000005,0.00000004,0.00000017,-0
 .00000038,0.00000046,-0.00000041,-0.00000049,-0.00000103,-0.12919945,-
 0.13270585,0.00451887,-0.02485514,-0.01196681,0.00172842,0.01340966,0.
 00962014,-0.00077709,0.14012460,0.13493018,0.01686420,0.01167974,-0.01
 217964,-0.00025760,-0.00031983,0.00008510,-0.00035591,0.00035698,0.000
 14112,0.00007720,-0.00009454,-0.00008736,0.00016131,0.00014608,-0.0000
 9942,-0.00022326,-0.00010841,0.00001706,-0.00000462,0.00000634,-0.0000
 1626,-0.00000170,-0.00000749,-0.00002019,0.00027897,0.00001786,-0.0000
 2605,-0.00069249,-0.00028140,0.00067779,-0.00018178,0.00001499,-0.0001
 3324,0.00007174,0.00014545,-0.00004800,0.00005616,0.00001157,0.0000091
 3,-0.00019340,-0.00022867,-0.00019406,0.00003816,-0.00011165,-0.000012
 78,0.00011075,-0.00000590,0.00005186,0.00030179,-0.00074136,-0.0007467
 7,0.00003468,-0.00085151,0.00034163,0.00116707,0.00112671,-0.00236695,
 -0.00129060,-0.00043243,0.00024147,-0.00024107,0.00035204,-0.00012438,
 -0.00074131,-0.00067902,-0.00086580,0.00018913,-0.00009757,-0.00012715
 ,-0.00002755,0.00000605,0.00003514,-0.00006408,0.00004456,0.00004820,-
 0.00011480,0.00019536,0.00002890,0.00021354,0.00016657,0.00030653,-0.0
 0008283,0.00011833,-0.00004178,0.00001385,-0.00004827,0.00001668,-0.00
 016250,-0.00001671,0.00012456,0.00048013,0.00013439,-0.00049803,-0.000
 27414,-0.00003861,0.00022280,-0.00014315,-0.00014255,-0.00032474,-0.00
 015669,-0.00041354,0.00031983,0.00013318,-0.00008321,-0.00003136,-0.00
 001412,0.00002540,-0.00004925,-0.00003806,-0.00002264,-0.00009153,-0.0
 0009490,-0.00009545,0.00005082,-0.00005934,0.00006642,0.00001180,0.000
 00749,-0.00000289,-0.00000129,0.00000374,-0.00001359,0.00000126,-0.000
 00201,-0.00001091,-0.00000156,0.01345560,0.00904520,-0.03445060,-0.009
 25860,-0.00532305,0.00302929,-0.01197385,-0.00836132,0.00326847,-0.007
 00829,-0.00512752,0.04350874\\0.00001440,-0.00000443,-0.00003791,0.000
 00441,0.00001230,-0.00001833,-0.00000758,0.00001278,0.00004436,-0.0000
 0884,0.00000441,0.00000784,0.00000060,0.00001229,0.00006763,-0.0000043
 5,0.00000620,0.00005451,-0.00000721,0.00001034,-0.00000825,-0.00000024
 ,0.00000133,0.00010078,-0.00000051,0.00001084,0.00005777,-0.00001211,0
 .00000289,0.00001050,-0.00000807,0.00001577,-0.00005466,-0.00003635,0.
 00003794,-0.00006304,-0.00001091,0.00000677,-0.00007473,0.00000096,0.0
 0000944,0.00006300,-0.00002603,0.00003746,0.00006783,0.00000452,0.0000
 0160,0.00009221,-0.00000478,-0.00000316,-0.00006513,0.00000687,-0.0000
 0446,0.00002290,0.00000850,-0.00001848,-0.00002619,0.00003652,-0.00004
 292,-0.00006658,-0.00000427,-0.00000779,-0.00008170,0.00000630,-0.0000
 1289,-0.00003685,-0.00000640,0.00000640,-0.00010709,-0.00000252,-0.000
 00994,-0.00012084,-0.00000946,0.00000391,-0.00012898,-0.00003300,0.000
 03063,-0.00010600,0.00001772,-0.00004230,-0.00007828,0.00002460,-0.000
 04366,-0.00009673,0.00003478,-0.00005211,-0.00008521,0.00003445,-0.000
 04792,-0.00004872,-0.00000528,0.00000926,0.00005139,-0.00000141,0.0000
 0873,0.00007456,0.00000323,0.00000030,0.00002435,-0.00002375,0.0000336
 8,0.00003889,0.00003623,-0.00003590,0.00003804,0.00003909,-0.00005014,
 0.00002578,0.00003358,-0.00004032,0.00007628,0.00003414,-0.00005661,0.
 00004165,0.00000601,-0.00000442,0.00011193,0.00000918,0.00000228,0.000
 11327,-0.00001125,0.00002288,0.00012415,0.00002394,-0.00001880,0.00011
 281,-0.00003903,0.00004814,-0.00002296,-0.00004434,0.00005269,-0.00005
 695,-0.00003833,0.00005444,-0.00000371,-0.00003399,0.00004058,-0.00003
 358\\\@
 The archive entry for this job was punched.


 POCKETA-POCKETA
 BARON VON RICHTOFEN
 SLAUGHTERED THE ALLIES WITH
 HARDLY A CARE.
 KILLED EIGHTY-ONE WITH HIS
 BLOOD-COLORED TRIPLANE, THEN
 UN-AEROBATICALLY
 PLUNGED FROM THE AIR.
   -- TONY HOFFMAN
 Job cpu time:       4 days 22 hours 56 minutes 38.2 seconds.
 Elapsed time:       0 days  2 hours 29 minutes 47.4 seconds.
 File lengths (MBytes):  RWF=   2847 Int=      0 D2E=      0 Chk=     92 Scr=      1
 Normal termination of Gaussian 16 at Wed May 29 21:25:58 2024.
