 Entering Gaussian System, Link 0=/cm/shared/apps//g16/g16
 Input=scan_reverse_YPtMeH.gjf
 Output=scan_reverse_YPtMeH.log
 Initial command:
 /cm/shared/apps//g16/l1.exe "/local/mvanvleet/pbs.15193.josephine/Gau-1623306.inp" -scrdir="/local/mvanvleet/pbs.15193.josephine/"
 Entering Link 1 = /cm/shared/apps//g16/l1.exe PID=   1623309.
  
 Copyright (c) 1988-2019, Gaussian, Inc.  All Rights Reserved.
  
 This is part of the Gaussian(R) 16 program.  It is based on
 the Gaussian(R) 09 system (copyright 2009, Gaussian, Inc.),
 the Gaussian(R) 03 system (copyright 2003, Gaussian, Inc.),
 the Gaussian(R) 98 system (copyright 1998, Gaussian, Inc.),
 the Gaussian(R) 94 system (copyright 1995, Gaussian, Inc.),
 the Gaussian 92(TM) system (copyright 1992, Gaussian, Inc.),
 the Gaussian 90(TM) system (copyright 1990, Gaussian, Inc.),
 the Gaussian 88(TM) system (copyright 1988, Gaussian, Inc.),
 the Gaussian 86(TM) system (copyright 1986, Carnegie Mellon
 University), and the Gaussian 82(TM) system (copyright 1983,
 Carnegie Mellon University). Gaussian is a federally registered
 trademark of Gaussian, Inc.
  
 This software contains proprietary and confidential information,
 including trade secrets, belonging to Gaussian, Inc.
  
 This software is provided under written license and may be
 used, copied, transmitted, or stored only in accord with that
 written license.
  
 The following legend is applicable only to US Government
 contracts under FAR:
  
                    RESTRICTED RIGHTS LEGEND
  
 Use, reproduction and disclosure by the US Government is
 subject to restrictions as set forth in subparagraphs (a)
 and (c) of the Commercial Computer Software - Restricted
 Rights clause in FAR 52.227-19.
  
 Gaussian, Inc.
 340 Quinnipiac St., Bldg. 40, Wallingford CT 06492
  
  
 ---------------------------------------------------------------
 Warning -- This program may not be used in any manner that
 competes with the business of Gaussian, Inc. or will provide
 assistance to any competitor of Gaussian, Inc.  The licensee
 of this program is prohibited from giving any competitor of
 Gaussian, Inc. access to this program.  By using this program,
 the user acknowledges that Gaussian, Inc. is engaged in the
 business of creating and licensing software in the field of
 computational chemistry and represents and warrants to the
 licensee that it is not a competitor of Gaussian, Inc. and that
 it will not use this program in any manner prohibited above.
 ---------------------------------------------------------------
  

 Cite this work as:
 Gaussian 16, Revision C.01,
 M. J. Frisch, G. W. Trucks, H. B. Schlegel, G. E. Scuseria, 
 M. A. Robb, J. R. Cheeseman, G. Scalmani, V. Barone, 
 G. A. Petersson, H. Nakatsuji, X. Li, M. Caricato, A. V. Marenich, 
 J. Bloino, B. G. Janesko, R. Gomperts, B. Mennucci, H. P. Hratchian, 
 J. V. Ortiz, A. F. Izmaylov, J. L. Sonnenberg, D. Williams-Young, 
 F. Ding, F. Lipparini, F. Egidi, J. Goings, B. Peng, A. Petrone, 
 T. Henderson, D. Ranasinghe, V. G. Zakrzewski, J. Gao, N. Rega, 
 G. Zheng, W. Liang, M. Hada, M. Ehara, K. Toyota, R. Fukuda, 
 J. Hasegawa, M. Ishida, T. Nakajima, Y. Honda, O. Kitao, H. Nakai, 
 T. Vreven, K. Throssell, J. A. Montgomery, Jr., J. E. Peralta, 
 F. Ogliaro, M. J. Bearpark, J. J. Heyd, E. N. Brothers, K. N. Kudin, 
 V. N. Staroverov, T. A. Keith, R. Kobayashi, J. Normand, 
 K. Raghavachari, A. P. Rendell, J. C. Burant, S. S. Iyengar, 
 J. Tomasi, M. Cossi, J. M. Millam, M. Klene, C. Adamo, R. Cammi, 
 J. W. Ochterski, R. L. Martin, K. Morokuma, O. Farkas, 
 J. B. Foresman, and D. J. Fox, Gaussian, Inc., Wallingford CT, 2019.
 
 ******************************************
 Gaussian 16:  ES64L-G16RevC.01  3-Jul-2019
                 6-May-2024 
 ******************************************
 %nprocshared=48
 Will use up to   48 processors via shared memory.
 %chk=scan_YPtMeH_reverse.chk
 %mem=16GB
 ------------------------------------------------------------------
 # wb97xd def2TZVPP SCRF=(solvent=dichloromethane) opt=modredundant
 ------------------------------------------------------------------
 1/18=120,19=15,26=3,38=1/1,3;
 2/9=110,12=2,17=6,18=5,40=1/2;
 3/5=44,7=202,11=2,25=1,30=1,70=2201,71=1,72=9,74=-58/1,2,3;
 4//1;
 5/5=2,38=5,53=9/2;
 6/7=2,8=2,9=2,10=2,28=1/1;
 7//1,2,3,16;
 1/18=20,19=15,26=3/3(2);
 2/9=110/2;
 99//99;
 2/9=110/2;
 3/5=44,7=202,11=2,25=1,30=1,70=2205,71=1,72=9,74=-58/1,2,3;
 4/5=5,16=3,69=1/1;
 5/5=2,38=5,53=9/2;
 7//1,2,3,16;
 1/18=20,19=15,26=3/3(-5);
 2/9=110/2;
 6/7=2,8=2,9=2,10=2,19=2,28=1/1;
 99/9=1/99;
 -----------
 scan_YPtMeH
 -----------
 Symbolic Z-matrix:
 Charge =  1 Multiplicity = 1
 C                    -1.93367  -1.22508  -0.16734 
 C                    -1.9323    1.23505  -0.11768 
 C                    -3.32136  -1.23166   0.02139 
 C                    -3.32076   1.23418   0.07247 
 C                    -3.99238  -0.00021   0.14818 
 H                    -3.89094  -2.16617   0.06425 
 H                    -3.88985   2.16647   0.15341 
 C                    -1.00877  -2.39292  -0.43893 
 H                    -0.92109  -2.55793  -1.52878 
 H                    -1.31629  -3.3507    0.023 
 C                    -1.01602   2.41426  -0.36284 
 H                    -0.97969   2.63707  -1.44516 
 H                    -1.30335   3.34673   0.1597 
 N                     0.4009   -2.06894   0.05039 
 N                     0.41864   2.07664   0.04357 
 C                     2.83625  -0.0494    0.1902 
 H                     3.11436  -0.74356   1.0115 
 H                     3.38161  -0.41274  -0.70166 
 H                     3.29231   0.92349   0.45372 
 C                     1.39001  -2.93709  -0.64137 
 H                     2.38531  -2.75768  -0.21057 
 H                     1.10424  -3.99625  -0.50271 
 H                     1.39822  -2.69022  -1.71306 
 C                     0.45983  -2.32734   1.51953 
 H                     0.27845  -3.40134   1.70832 
 H                     1.45458  -2.05238   1.90001 
 H                    -0.3249   -1.73585   2.0203 
 C                     1.35785   2.95079  -0.70886 
 H                     1.07      4.00722  -0.55387 
 H                     2.37946   2.78595  -0.34205 
 H                     1.30074   2.70387  -1.77881 
 C                     0.57458   2.32701   1.5066 
 H                     1.58885   2.03372   1.81888 
 H                     0.41948   3.40148   1.71575 
 H                    -0.18499   1.7415    2.05268 
 H                    -5.07524  -0.00295   0.29981 
 C                    -1.27454   0.00648  -0.20604 
 Pt                    0.70958   0.00053  -0.10941 
 H                     0.72279   0.00031  -1.62004 
 
 The following ModRedundant input section has been read:
 A      16      38      39 S   3 -5.000                                        
 

 GradGradGradGradGradGradGradGradGradGradGradGradGradGradGradGradGradGrad
 Berny optimization.
 Initialization pass.
                           ----------------------------
                           !    Initial Parameters    !
                           ! (Angstroms and Degrees)  !
 --------------------------                            --------------------------
 ! Name  Definition              Value          Derivative Info.                !
 --------------------------------------------------------------------------------
 ! R1    R(1,3)                  1.4005         estimate D2E/DX2                !
 ! R2    R(1,8)                  1.5143         estimate D2E/DX2                !
 ! R3    R(1,37)                 1.3974         estimate D2E/DX2                !
 ! R4    R(2,4)                  1.4014         estimate D2E/DX2                !
 ! R5    R(2,11)                 1.5133         estimate D2E/DX2                !
 ! R6    R(2,37)                 1.3964         estimate D2E/DX2                !
 ! R7    R(3,5)                  1.4081         estimate D2E/DX2                !
 ! R8    R(3,6)                  1.0952         estimate D2E/DX2                !
 ! R9    R(4,5)                  1.4073         estimate D2E/DX2                !
 ! R10   R(4,7)                  1.0953         estimate D2E/DX2                !
 ! R11   R(5,36)                 1.0934         estimate D2E/DX2                !
 ! R12   R(8,9)                  1.1057         estimate D2E/DX2                !
 ! R13   R(8,10)                 1.1069         estimate D2E/DX2                !
 ! R14   R(8,14)                 1.527          estimate D2E/DX2                !
 ! R15   R(11,12)                1.1056         estimate D2E/DX2                !
 ! R16   R(11,13)                1.1068         estimate D2E/DX2                !
 ! R17   R(11,15)                1.5289         estimate D2E/DX2                !
 ! R18   R(14,20)                1.4868         estimate D2E/DX2                !
 ! R19   R(14,24)                1.4929         estimate D2E/DX2                !
 ! R20   R(14,38)                2.0985         estimate D2E/DX2                !
 ! R21   R(15,28)                1.4874         estimate D2E/DX2                !
 ! R22   R(15,32)                1.4925         estimate D2E/DX2                !
 ! R23   R(15,38)                2.102          estimate D2E/DX2                !
 ! R24   R(16,17)                1.1107         estimate D2E/DX2                !
 ! R25   R(16,18)                1.1067         estimate D2E/DX2                !
 ! R26   R(16,19)                1.1063         estimate D2E/DX2                !
 ! R27   R(16,38)                2.1483         estimate D2E/DX2                !
 ! R28   R(20,21)                1.0993         estimate D2E/DX2                !
 ! R29   R(20,22)                1.1058         estimate D2E/DX2                !
 ! R30   R(20,23)                1.0998         estimate D2E/DX2                !
 ! R31   R(24,25)                1.1054         estimate D2E/DX2                !
 ! R32   R(24,26)                1.1            estimate D2E/DX2                !
 ! R33   R(24,27)                1.1029         estimate D2E/DX2                !
 ! R34   R(28,29)                1.1059         estimate D2E/DX2                !
 ! R35   R(28,30)                1.0979         estimate D2E/DX2                !
 ! R36   R(28,31)                1.0996         estimate D2E/DX2                !
 ! R37   R(32,33)                1.101          estimate D2E/DX2                !
 ! R38   R(32,34)                1.1056         estimate D2E/DX2                !
 ! R39   R(32,35)                1.1036         estimate D2E/DX2                !
 ! R40   R(37,38)                1.9865         estimate D2E/DX2                !
 ! R41   R(38,39)                1.5107         estimate D2E/DX2                !
 ! A1    A(3,1,8)              128.7378         estimate D2E/DX2                !
 ! A2    A(3,1,37)             118.3756         estimate D2E/DX2                !
 ! A3    A(8,1,37)             112.7448         estimate D2E/DX2                !
 ! A4    A(4,2,11)             128.4867         estimate D2E/DX2                !
 ! A5    A(4,2,37)             118.342          estimate D2E/DX2                !
 ! A6    A(11,2,37)            112.9617         estimate D2E/DX2                !
 ! A7    A(1,3,5)              118.6989         estimate D2E/DX2                !
 ! A8    A(1,3,6)              121.6399         estimate D2E/DX2                !
 ! A9    A(5,3,6)              119.6595         estimate D2E/DX2                !
 ! A10   A(2,4,5)              118.7288         estimate D2E/DX2                !
 ! A11   A(2,4,7)              121.6203         estimate D2E/DX2                !
 ! A12   A(5,4,7)              119.6486         estimate D2E/DX2                !
 ! A13   A(3,5,4)              122.3316         estimate D2E/DX2                !
 ! A14   A(3,5,36)             118.8304         estimate D2E/DX2                !
 ! A15   A(4,5,36)             118.8345         estimate D2E/DX2                !
 ! A16   A(1,8,9)              109.8951         estimate D2E/DX2                !
 ! A17   A(1,8,10)             115.0098         estimate D2E/DX2                !
 ! A18   A(1,8,14)             110.0459         estimate D2E/DX2                !
 ! A19   A(9,8,10)             107.7105         estimate D2E/DX2                !
 ! A20   A(9,8,14)             105.9205         estimate D2E/DX2                !
 ! A21   A(10,8,14)            107.8381         estimate D2E/DX2                !
 ! A22   A(2,11,12)            109.6043         estimate D2E/DX2                !
 ! A23   A(2,11,13)            115.0112         estimate D2E/DX2                !
 ! A24   A(2,11,15)            110.6725         estimate D2E/DX2                !
 ! A25   A(12,11,13)           107.5118         estimate D2E/DX2                !
 ! A26   A(12,11,15)           105.8961         estimate D2E/DX2                !
 ! A27   A(13,11,15)           107.7061         estimate D2E/DX2                !
 ! A28   A(8,14,20)            109.949          estimate D2E/DX2                !
 ! A29   A(8,14,24)            108.3657         estimate D2E/DX2                !
 ! A30   A(8,14,38)            108.7012         estimate D2E/DX2                !
 ! A31   A(20,14,24)           109.3022         estimate D2E/DX2                !
 ! A32   A(20,14,38)           116.2669         estimate D2E/DX2                !
 ! A33   A(24,14,38)           103.8769         estimate D2E/DX2                !
 ! A34   A(11,15,28)           109.1645         estimate D2E/DX2                !
 ! A35   A(11,15,32)           108.759          estimate D2E/DX2                !
 ! A36   A(11,15,38)           109.1867         estimate D2E/DX2                !
 ! A37   A(28,15,32)           109.3489         estimate D2E/DX2                !
 ! A38   A(28,15,38)           117.1453         estimate D2E/DX2                !
 ! A39   A(32,15,38)           102.8604         estimate D2E/DX2                !
 ! A40   A(17,16,18)           105.5041         estimate D2E/DX2                !
 ! A41   A(17,16,19)           105.6784         estimate D2E/DX2                !
 ! A42   A(17,16,38)           111.4397         estimate D2E/DX2                !
 ! A43   A(18,16,19)           106.1119         estimate D2E/DX2                !
 ! A44   A(18,16,38)           112.5235         estimate D2E/DX2                !
 ! A45   A(19,16,38)           114.8896         estimate D2E/DX2                !
 ! A46   A(14,20,21)           108.9482         estimate D2E/DX2                !
 ! A47   A(14,20,22)           109.21           estimate D2E/DX2                !
 ! A48   A(14,20,23)           109.1044         estimate D2E/DX2                !
 ! A49   A(21,20,22)           109.9487         estimate D2E/DX2                !
 ! A50   A(21,20,23)           109.7843         estimate D2E/DX2                !
 ! A51   A(22,20,23)           109.8233         estimate D2E/DX2                !
 ! A52   A(14,24,25)           109.2542         estimate D2E/DX2                !
 ! A53   A(14,24,26)           109.4414         estimate D2E/DX2                !
 ! A54   A(14,24,27)           109.0211         estimate D2E/DX2                !
 ! A55   A(25,24,26)           109.4007         estimate D2E/DX2                !
 ! A56   A(25,24,27)           109.0721         estimate D2E/DX2                !
 ! A57   A(26,24,27)           110.63           estimate D2E/DX2                !
 ! A58   A(15,28,29)           109.0363         estimate D2E/DX2                !
 ! A59   A(15,28,30)           109.2878         estimate D2E/DX2                !
 ! A60   A(15,28,31)           109.1155         estimate D2E/DX2                !
 ! A61   A(29,28,30)           109.8045         estimate D2E/DX2                !
 ! A62   A(29,28,31)           109.7174         estimate D2E/DX2                !
 ! A63   A(30,28,31)           109.8596         estimate D2E/DX2                !
 ! A64   A(15,32,33)           109.2443         estimate D2E/DX2                !
 ! A65   A(15,32,34)           109.5008         estimate D2E/DX2                !
 ! A66   A(15,32,35)           108.913          estimate D2E/DX2                !
 ! A67   A(33,32,34)           109.54           estimate D2E/DX2                !
 ! A68   A(33,32,35)           110.6316         estimate D2E/DX2                !
 ! A69   A(34,32,35)           108.9929         estimate D2E/DX2                !
 ! A70   A(1,37,2)             123.4688         estimate D2E/DX2                !
 ! A71   A(1,37,38)            117.8489         estimate D2E/DX2                !
 ! A72   A(2,37,38)            118.0374         estimate D2E/DX2                !
 ! A73   A(14,38,15)           161.469          estimate D2E/DX2                !
 ! A74   A(14,38,16)            96.4348         estimate D2E/DX2                !
 ! A75   A(14,38,37)            81.937          estimate D2E/DX2                !
 ! A76   A(14,38,39)            94.4329         estimate D2E/DX2                !
 ! A77   A(15,38,16)            98.6169         estimate D2E/DX2                !
 ! A78   A(15,38,37)            82.0873         estimate D2E/DX2                !
 ! A79   A(15,38,39)            94.2514         estimate D2E/DX2                !
 ! A80   A(16,38,39)            97.5158         Scan                            !
 ! A81   A(37,38,39)            87.7131         estimate D2E/DX2                !
 ! A82   L(16,38,37,14,-1)     178.3718         estimate D2E/DX2                !
 ! A83   L(16,38,37,14,-2)     174.8543         estimate D2E/DX2                !
 ! D1    D(8,1,3,5)           -174.6078         estimate D2E/DX2                !
 ! D2    D(8,1,3,6)              4.918          estimate D2E/DX2                !
 ! D3    D(37,1,3,5)             0.7199         estimate D2E/DX2                !
 ! D4    D(37,1,3,6)          -179.7542         estimate D2E/DX2                !
 ! D5    D(3,1,8,9)             89.8244         estimate D2E/DX2                !
 ! D6    D(3,1,8,10)           -31.8991         estimate D2E/DX2                !
 ! D7    D(3,1,8,14)          -153.9074         estimate D2E/DX2                !
 ! D8    D(37,1,8,9)           -85.7185         estimate D2E/DX2                !
 ! D9    D(37,1,8,10)          152.558          estimate D2E/DX2                !
 ! D10   D(37,1,8,14)           30.5497         estimate D2E/DX2                !
 ! D11   D(3,1,37,2)            -2.542          estimate D2E/DX2                !
 ! D12   D(3,1,37,38)          168.0578         estimate D2E/DX2                !
 ! D13   D(8,1,37,2)           173.5075         estimate D2E/DX2                !
 ! D14   D(8,1,37,38)          -15.8927         estimate D2E/DX2                !
 ! D15   D(11,2,4,5)           173.5067         estimate D2E/DX2                !
 ! D16   D(11,2,4,7)            -5.9275         estimate D2E/DX2                !
 ! D17   D(37,2,4,5)            -0.8281         estimate D2E/DX2                !
 ! D18   D(37,2,4,7)           179.7377         estimate D2E/DX2                !
 ! D19   D(4,2,11,12)          -86.6338         estimate D2E/DX2                !
 ! D20   D(4,2,11,13)           34.6073         estimate D2E/DX2                !
 ! D21   D(4,2,11,15)          156.9335         estimate D2E/DX2                !
 ! D22   D(37,2,11,12)          87.9518         estimate D2E/DX2                !
 ! D23   D(37,2,11,13)        -150.8071         estimate D2E/DX2                !
 ! D24   D(37,2,11,15)         -28.4809         estimate D2E/DX2                !
 ! D25   D(4,2,37,1)             2.5964         estimate D2E/DX2                !
 ! D26   D(4,2,37,38)         -167.9868         estimate D2E/DX2                !
 ! D27   D(11,2,37,1)         -172.5897         estimate D2E/DX2                !
 ! D28   D(11,2,37,38)          16.827          estimate D2E/DX2                !
 ! D29   D(1,3,5,4)              0.9447         estimate D2E/DX2                !
 ! D30   D(1,3,5,36)          -179.7461         estimate D2E/DX2                !
 ! D31   D(6,3,5,4)           -178.5907         estimate D2E/DX2                !
 ! D32   D(6,3,5,36)             0.7185         estimate D2E/DX2                !
 ! D33   D(2,4,5,3)             -0.8897         estimate D2E/DX2                !
 ! D34   D(2,4,5,36)           179.8011         estimate D2E/DX2                !
 ! D35   D(7,4,5,3)            178.5559         estimate D2E/DX2                !
 ! D36   D(7,4,5,36)            -0.7533         estimate D2E/DX2                !
 ! D37   D(1,8,14,20)         -158.7754         estimate D2E/DX2                !
 ! D38   D(1,8,14,24)           81.8168         estimate D2E/DX2                !
 ! D39   D(1,8,14,38)          -30.4658         estimate D2E/DX2                !
 ! D40   D(9,8,14,20)          -40.0395         estimate D2E/DX2                !
 ! D41   D(9,8,14,24)         -159.4474         estimate D2E/DX2                !
 ! D42   D(9,8,14,38)           88.27           estimate D2E/DX2                !
 ! D43   D(10,8,14,20)          75.0547         estimate D2E/DX2                !
 ! D44   D(10,8,14,24)         -44.3532         estimate D2E/DX2                !
 ! D45   D(10,8,14,38)        -156.6358         estimate D2E/DX2                !
 ! D46   D(2,11,15,28)         155.834          estimate D2E/DX2                !
 ! D47   D(2,11,15,32)         -84.9257         estimate D2E/DX2                !
 ! D48   D(2,11,15,38)          26.6093         estimate D2E/DX2                !
 ! D49   D(12,11,15,28)         37.1273         estimate D2E/DX2                !
 ! D50   D(12,11,15,32)        156.3675         estimate D2E/DX2                !
 ! D51   D(12,11,15,38)        -92.0974         estimate D2E/DX2                !
 ! D52   D(13,11,15,28)        -77.6659         estimate D2E/DX2                !
 ! D53   D(13,11,15,32)         41.5744         estimate D2E/DX2                !
 ! D54   D(13,11,15,38)        153.1095         estimate D2E/DX2                !
 ! D55   D(8,14,20,21)        -174.7318         estimate D2E/DX2                !
 ! D56   D(8,14,20,22)         -54.6247         estimate D2E/DX2                !
 ! D57   D(8,14,20,23)          65.4239         estimate D2E/DX2                !
 ! D58   D(24,14,20,21)        -55.8973         estimate D2E/DX2                !
 ! D59   D(24,14,20,22)         64.2098         estimate D2E/DX2                !
 ! D60   D(24,14,20,23)       -175.7416         estimate D2E/DX2                !
 ! D61   D(38,14,20,21)         61.2468         estimate D2E/DX2                !
 ! D62   D(38,14,20,22)       -178.6461         estimate D2E/DX2                !
 ! D63   D(38,14,20,23)        -58.5975         estimate D2E/DX2                !
 ! D64   D(8,14,24,25)          62.9989         estimate D2E/DX2                !
 ! D65   D(8,14,24,26)        -177.2377         estimate D2E/DX2                !
 ! D66   D(8,14,24,27)         -56.1135         estimate D2E/DX2                !
 ! D67   D(20,14,24,25)        -56.8148         estimate D2E/DX2                !
 ! D68   D(20,14,24,26)         62.9486         estimate D2E/DX2                !
 ! D69   D(20,14,24,27)       -175.9272         estimate D2E/DX2                !
 ! D70   D(38,14,24,25)        178.4674         estimate D2E/DX2                !
 ! D71   D(38,14,24,26)        -61.7692         estimate D2E/DX2                !
 ! D72   D(38,14,24,27)         59.3551         estimate D2E/DX2                !
 ! D73   D(8,14,38,15)          48.6443         estimate D2E/DX2                !
 ! D74   D(8,14,38,16)        -167.1734         estimate D2E/DX2                !
 ! D75   D(8,14,38,37)          17.9723         estimate D2E/DX2                !
 ! D76   D(8,14,38,39)         -69.0812         estimate D2E/DX2                !
 ! D77   D(20,14,38,15)        173.3062         estimate D2E/DX2                !
 ! D78   D(20,14,38,16)        -42.5115         estimate D2E/DX2                !
 ! D79   D(20,14,38,37)        142.6342         estimate D2E/DX2                !
 ! D80   D(20,14,38,39)         55.5808         estimate D2E/DX2                !
 ! D81   D(24,14,38,15)        -66.5868         estimate D2E/DX2                !
 ! D82   D(24,14,38,16)         77.5955         estimate D2E/DX2                !
 ! D83   D(24,14,38,37)        -97.2588         estimate D2E/DX2                !
 ! D84   D(24,14,38,39)        175.6877         estimate D2E/DX2                !
 ! D85   D(11,15,28,29)         53.985          estimate D2E/DX2                !
 ! D86   D(11,15,28,30)        174.0163         estimate D2E/DX2                !
 ! D87   D(11,15,28,31)        -65.8373         estimate D2E/DX2                !
 ! D88   D(32,15,28,29)        -64.8886         estimate D2E/DX2                !
 ! D89   D(32,15,28,30)         55.1427         estimate D2E/DX2                !
 ! D90   D(32,15,28,31)        175.2891         estimate D2E/DX2                !
 ! D91   D(38,15,28,29)        178.6788         estimate D2E/DX2                !
 ! D92   D(38,15,28,30)        -61.2899         estimate D2E/DX2                !
 ! D93   D(38,15,28,31)         58.8565         estimate D2E/DX2                !
 ! D94   D(11,15,32,33)        176.9008         estimate D2E/DX2                !
 ! D95   D(11,15,32,34)        -63.1356         estimate D2E/DX2                !
 ! D96   D(11,15,32,35)         55.9618         estimate D2E/DX2                !
 ! D97   D(28,15,32,33)        -63.9743         estimate D2E/DX2                !
 ! D98   D(28,15,32,34)         55.9893         estimate D2E/DX2                !
 ! D99   D(28,15,32,35)        175.0868         estimate D2E/DX2                !
 ! D100  D(38,15,32,33)         61.2076         estimate D2E/DX2                !
 ! D101  D(38,15,32,34)       -178.8289         estimate D2E/DX2                !
 ! D102  D(38,15,32,35)        -59.7314         estimate D2E/DX2                !
 ! D103  D(11,15,38,14)        -45.1701         estimate D2E/DX2                !
 ! D104  D(11,15,38,16)        170.8565         estimate D2E/DX2                !
 ! D105  D(11,15,38,37)        -14.5106         estimate D2E/DX2                !
 ! D106  D(11,15,38,39)         72.5815         estimate D2E/DX2                !
 ! D107  D(28,15,38,14)       -169.8528         estimate D2E/DX2                !
 ! D108  D(28,15,38,16)         46.1738         estimate D2E/DX2                !
 ! D109  D(28,15,38,37)       -139.1933         estimate D2E/DX2                !
 ! D110  D(28,15,38,39)        -52.1011         estimate D2E/DX2                !
 ! D111  D(32,15,38,14)         70.2155         estimate D2E/DX2                !
 ! D112  D(32,15,38,16)        -73.7579         estimate D2E/DX2                !
 ! D113  D(32,15,38,37)        100.875          estimate D2E/DX2                !
 ! D114  D(32,15,38,39)       -172.0329         estimate D2E/DX2                !
 ! D115  D(17,16,38,14)        -42.972          estimate D2E/DX2                !
 ! D116  D(17,16,38,15)        126.1853         estimate D2E/DX2                !
 ! D117  D(17,16,38,39)       -138.3276         estimate D2E/DX2                !
 ! D118  D(18,16,38,14)         75.3054         estimate D2E/DX2                !
 ! D119  D(18,16,38,15)       -115.5373         estimate D2E/DX2                !
 ! D120  D(18,16,38,39)        -20.0502         estimate D2E/DX2                !
 ! D121  D(19,16,38,14)       -163.121          estimate D2E/DX2                !
 ! D122  D(19,16,38,15)          6.0363         estimate D2E/DX2                !
 ! D123  D(19,16,38,39)        101.5235         estimate D2E/DX2                !
 ! D124  D(1,37,38,14)          -1.5404         estimate D2E/DX2                !
 ! D125  D(1,37,38,15)        -172.1196         estimate D2E/DX2                !
 ! D126  D(1,37,38,39)          93.2657         estimate D2E/DX2                !
 ! D127  D(2,37,38,14)         169.5797         estimate D2E/DX2                !
 ! D128  D(2,37,38,15)          -0.9994         estimate D2E/DX2                !
 ! D129  D(2,37,38,39)         -95.6142         estimate D2E/DX2                !
 --------------------------------------------------------------------------------
 Trust Radius=3.00D-01 FncErr=1.00D-07 GrdErr=1.00D-06 EigMax=2.50D+02 EigMin=1.00D-04
 Number of optimizations in scan=   4
 Number of steps in this run=    234 maximum allowed number of steps=    234.
 GradGradGradGradGradGradGradGradGradGradGradGradGradGradGradGradGradGrad

                          Input orientation:                          
 ---------------------------------------------------------------------
 Center     Atomic      Atomic             Coordinates (Angstroms)
 Number     Number       Type             X           Y           Z
 ---------------------------------------------------------------------
      1          6           0       -1.933675   -1.225082   -0.167341
      2          6           0       -1.932302    1.235048   -0.117679
      3          6           0       -3.321360   -1.231658    0.021390
      4          6           0       -3.320765    1.234177    0.072473
      5          6           0       -3.992375   -0.000207    0.148179
      6          1           0       -3.890943   -2.166168    0.064249
      7          1           0       -3.889853    2.166469    0.153413
      8          6           0       -1.008771   -2.392917   -0.438931
      9          1           0       -0.921088   -2.557932   -1.528777
     10          1           0       -1.316287   -3.350698    0.022997
     11          6           0       -1.016024    2.414256   -0.362844
     12          1           0       -0.979692    2.637073   -1.445156
     13          1           0       -1.303348    3.346728    0.159702
     14          7           0        0.400904   -2.068943    0.050390
     15          7           0        0.418641    2.076639    0.043571
     16          6           0        2.836246   -0.049399    0.190197
     17          1           0        3.114361   -0.743563    1.011499
     18          1           0        3.381611   -0.412736   -0.701665
     19          1           0        3.292307    0.923487    0.453716
     20          6           0        1.390007   -2.937085   -0.641365
     21          1           0        2.385314   -2.757679   -0.210571
     22          1           0        1.104239   -3.996249   -0.502711
     23          1           0        1.398224   -2.690225   -1.713063
     24          6           0        0.459830   -2.327343    1.519529
     25          1           0        0.278453   -3.401344    1.708319
     26          1           0        1.454577   -2.052381    1.900012
     27          1           0       -0.324903   -1.735848    2.020303
     28          6           0        1.357853    2.950786   -0.708860
     29          1           0        1.070000    4.007216   -0.553872
     30          1           0        2.379462    2.785947   -0.342051
     31          1           0        1.300741    2.703867   -1.778814
     32          6           0        0.574584    2.327010    1.506603
     33          1           0        1.588848    2.033724    1.818882
     34          1           0        0.419479    3.401484    1.715747
     35          1           0       -0.184991    1.741496    2.052682
     36          1           0       -5.075237   -0.002950    0.299808
     37          6           0       -1.274544    0.006482   -0.206037
     38         78           0        0.709576    0.000535   -0.109413
     39          1           0        0.722788    0.000314   -1.620035
 ---------------------------------------------------------------------
                    Distance matrix (angstroms):
                    1          2          3          4          5
     1  C    0.000000
     2  C    2.460631   0.000000
     3  C    1.400476   2.834336   0.000000
     4  C    2.833634   1.401423   2.466364   0.000000
     5  C    2.416220   2.416699   1.408122   1.407301   0.000000
     6  H    2.184073   3.929076   1.095249   3.447828   2.169959
     7  H    3.928376   2.184729   3.447881   1.095254   2.169107
     8  C    1.514281   3.757425   2.628400   4.331589   3.869322
     9  H    2.157621   4.171385   3.150131   4.764719   4.334391
    10  H    2.221630   4.629074   2.917302   5.004144   4.289861
    11  C    3.758335   1.513341   4.330692   2.625627   3.866450
    12  H    4.178413   2.152983   4.754077   3.122809   4.309318
    13  H    4.626631   2.220747   5.005310   2.922405   4.293364
    14  N    2.491941   4.048266   3.815382   4.976134   4.856968
    15  N    4.059462   2.502241   4.993288   3.833240   4.876607
    16  C    4.925668   4.948095   6.272347   6.290485   6.828927
    17  H    5.206168   5.537034   6.529705   6.797357   7.197471
    18  H    5.403487   5.594096   6.791411   6.945031   7.434251
    19  H    5.684448   5.264988   6.969372   6.631334   7.349364
    20  C    3.768622   5.358981   5.054177   6.332485   6.182125
    21  H    4.583054   5.881522   5.911740   6.969531   6.957533
    22  H    4.125623   6.060966   5.244385   6.875235   6.509032
    23  H    3.954422   5.389380   5.235477   6.392020   6.305472
    24  C    3.128798   4.592753   4.212166   5.391780   5.207523
    25  H    3.625980   5.451407   4.529009   6.092488   5.678181
    26  H    4.054457   5.133149   5.197344   6.078261   6.078620
    27  H    2.763117   3.997615   3.637116   4.646534   4.468517
    28  C    5.344648   3.757442   6.318317   5.044471   6.169911
    29  H    6.045528   4.109623   6.860086   5.230762   6.494610
    30  H    5.892540   4.587695   6.983739   5.922196   6.971606
    31  H    5.338064   3.920378   6.331896   5.190912   6.248391
    32  C    4.659485   3.180433   5.481638   4.292407   5.302675
    33  H    5.193560   4.097152   6.164726   5.271956   6.170752
    34  H    5.521636   3.685888   6.191181   4.624607   5.787333
    35  H    4.097192   2.831970   4.775207   3.743217   4.599656
    36  H    3.403123   3.403671   2.159473   2.158781   1.093430
    37  C    1.397390   1.396363   2.402950   2.402462   2.740825
    38  Pt   2.914149   2.916095   4.217090   4.218839   4.709001
    39  H    3.266299   3.291071   4.535104   4.553825   5.035807
                    6          7          8          9         10
     6  H    0.000000
     7  H    4.333555   0.000000
     8  C    2.934539   5.425819   0.000000
     9  H    3.392823   5.827804   1.105749   0.000000
    10  H    2.834372   6.089285   1.106927   1.786802   0.000000
    11  C    5.424744   2.930326   4.807780   5.107941   5.785648
    12  H    5.815910   3.353495   5.129730   5.196009   6.174315
    13  H    6.090713   2.843072   5.778293   6.153219   6.698834
    14  N    4.292970   6.029920   1.526951   2.116729   2.142987
    15  N    6.047673   4.310830   4.716699   5.074092   5.697929
    16  C    7.053484   7.081796   4.546651   4.833753   5.307548
    17  H    7.210781   7.633060   4.671652   5.101939   5.234972
    18  H    7.520052   7.762580   4.823443   4.878442   5.588113
    19  H    7.829222   7.295108   5.504056   5.814057   6.300263
    20  C    5.383366   7.386126   2.468043   2.504479   2.817176
    21  H    6.310056   7.984825   3.421259   3.565089   3.756072
    22  H    5.349999   7.959307   2.653216   2.687660   2.559698
    23  H    5.604352   7.418556   2.739604   2.330380   3.289180
    24  C    4.590538   6.401591   2.448807   3.354440   2.538002
    25  H    4.648923   7.126925   2.698991   3.553734   2.320791
    26  H    5.653101   7.029384   3.413899   4.201899   3.589778
    27  H    4.089982   5.605554   2.635763   3.691507   2.753146
    28  C    7.370940   5.375600   5.850549   6.017625   6.884427
    29  H    7.943784   5.337485   6.730246   6.929361   7.756678
    30  H    8.000406   6.319300   6.189519   6.392104   7.172882
    31  H    7.353074   5.564581   5.753811   5.717130   6.837625
    32  C    6.496919   4.667772   5.345075   5.942493   6.165456
    33  H    7.123618   5.727790   5.607183   6.212077   6.376285
    34  H    7.232283   4.747261   6.344889   6.916552   7.174277
    35  H    5.740886   4.184953   4.896951   5.643915   5.597311
    36  H    2.477408   2.476479   4.774288   5.208513   5.041205
    37  C    3.411598   3.410952   2.425281   2.907024   3.365242
    38  Pt   5.088175   5.090687   2.964778   3.349539   3.918216
    39  H    5.368144   5.395721   3.181330   3.042250   4.252842
                   11         12         13         14         15
    11  C    0.000000
    12  H    1.105607   0.000000
    13  H    1.106849   1.784358   0.000000
    14  N    4.719907   5.127308   5.678550   0.000000
    15  N    1.528863   2.117953   2.142862   4.145626   0.000000
    16  C    4.606021   4.944986   5.354517   3.166859   3.222787
    17  H    5.377798   5.850223   6.080476   3.169102   4.019618
    18  H    5.238881   5.373553   6.068309   3.491879   3.941010
    19  H    4.631509   4.979162   5.203709   4.180613   3.123449
    20  C    5.873960   6.110056   6.883472   1.486781   5.152681
    21  H    6.192026   6.476944   7.141927   2.116681   5.225230
    22  H    6.753492   7.016547   7.755939   2.124879   6.135833
    23  H    5.805808   5.840065   6.873903   2.119057   5.173813
    24  C    5.310766   5.958775   6.095327   1.492854   4.644912
    25  H    6.307661   6.927468   7.101887   2.130496   5.727071
    26  H    5.583478   6.253542   6.307552   2.128756   4.644173
    27  H    4.835328   5.617882   5.500162   2.125631   4.358370
    28  C    2.458227   2.470761   2.827218   5.166226   1.487415
    29  H    2.631637   2.621624   2.564803   6.142682   2.123284
    30  H    3.415833   3.538773   3.758900   5.257248   2.120529
    31  H    2.730613   2.305680   3.309440   5.189934   2.119576
    32  C    2.456110   3.350342   2.525984   4.634126   1.492470
    33  H    3.419078   4.197067   3.583526   4.622840   2.126724
    34  H    2.712163   3.540242   2.322156   5.718333   2.133398
    35  H    2.641588   3.697091   2.722291   4.344180   2.124434
    36  H    4.770660   5.175723   5.046496   5.858213   5.879884
    37  C    2.426684   2.922732   3.360334   2.679603   2.686025
    38  Pt   2.977914   3.404286   3.914243   2.098465   2.101965
    39  H    3.229723   3.143488   4.297812   2.678760   2.677913
                   16         17         18         19         20
    16  C    0.000000
    17  H    1.110742   0.000000
    18  H    1.106732   1.765163   0.000000
    19  H    1.106319   1.766874   1.768721   0.000000
    20  C    3.334941   3.242976   3.215970   4.440942   0.000000
    21  H    2.774659   2.466096   2.594713   3.849012   1.099275
    22  H    4.365501   4.112589   4.250597   5.468656   1.105765
    23  H    3.558688   3.762692   3.184918   4.619674   1.099793
    24  C    3.550141   3.132569   4.139592   4.441484   2.430324
    25  H    4.481354   3.948637   4.936536   5.418626   2.640474
    26  H    2.973955   2.292889   3.629134   3.784814   2.691740
    27  H    4.023216   3.718986   4.785184   4.755047   3.386498
    28  C    3.463388   4.437698   3.925421   3.033749   5.888346
    29  H    4.486579   5.403675   4.990127   3.932336   6.952222
    30  H    2.920809   3.850923   3.371231   2.221550   5.815643
    31  H    3.716888   4.791642   3.899165   3.481418   5.755180
    32  C    3.534877   4.015471   4.501339   3.234882   5.743638
    33  H    2.923699   3.269919   3.943643   2.449097   5.549891
    34  H    4.480698   4.993973   5.400591   3.998291   6.831937
    35  H    3.975429   4.259730   4.994777   3.913750   5.623845
    36  H    7.912378   8.253758   8.525793   8.420081   7.162006
    37  C    4.130220   4.615999   4.701188   4.704498   3.994237
    38  Pt   2.148252   2.755561   2.767911   2.799903   3.061955
    39  H    2.783184   3.632897   2.843124   3.428574   3.167221
                   21         22         23         24         25
    21  H    0.000000
    22  H    1.805701   0.000000
    23  H    1.798994   1.804738   0.000000
    24  C    2.624104   2.699994   3.385545   0.000000
    25  H    2.921524   2.434027   3.669527   1.105449   0.000000
    26  H    2.412110   3.110376   3.669377   1.099952   1.799921
    27  H    3.655983   3.676611   4.221140   1.102927   1.798680
    28  C    5.821558   6.954719   5.729839   5.799207   6.881672
    29  H    6.900124   8.003703   6.804937   6.693127   7.786580
    30  H    5.545188   6.902912   5.729830   5.770286   6.848418
    31  H    5.784822   6.823387   5.395373   6.074477   7.104841
    32  C    5.664052   6.655936   6.018079   4.655785   5.739549
    33  H    5.264083   6.479600   5.901412   4.514776   5.591898
    34  H    6.746146   7.753510   7.058583   5.732328   6.804293
    35  H    5.654322   6.412010   6.027235   4.153974   5.175149
    36  H    7.969243   7.401109   7.292379   6.125969   6.495767
    37  C    4.586410   4.665670   4.084977   3.381179   4.205929
    38  Pt   3.228943   4.035434   3.207197   2.852164   3.881082
    39  H    3.515267   4.167306   2.775584   3.917141   4.779817
                   26         27         28         29         30
    26  H    0.000000
    27  H    1.811412   0.000000
    28  C    5.643336   5.678427   0.000000
    29  H    6.548906   6.446311   1.105860   0.000000
    30  H    5.412178   5.774162   1.097910   1.803069   0.000000
    31  H    6.014925   6.065236   1.099560   1.803453   1.798517
    32  C    4.484219   4.192825   2.431230   2.704457   2.624067
    33  H    4.089115   4.232339   2.698859   3.129511   2.420856
    34  H    5.554280   5.199908   2.638635   2.437471   2.907741
    35  H    4.135819   3.480309   3.386571   3.674591   3.660881
    36  H    7.028463   5.341227   7.150287   7.387431   7.985141
    37  C    4.015278   2.982302   3.981365   4.650135   4.593004
    38  Pt   2.967706   2.936131   3.079542   4.047339   3.255943
    39  H    4.140024   4.167011   3.152591   4.160832   3.483900
                   31         32         33         34         35
    31  H    0.000000
    32  C    3.385748   0.000000
    33  H    3.670901   1.101030   0.000000
    34  H    3.670865   1.105574   1.802451   0.000000
    35  H    4.220654   1.103623   1.812889   1.798463   0.000000
    36  H    7.231917   6.229410   7.132017   6.617171   5.479978
    37  C    4.047420   3.425969   4.050805   4.253118   3.049461
    38  Pt   3.231777   2.835880   2.936886   3.870636   2.916480
    39  H    2.769195   3.900172   4.087905   4.773615   4.164689
                   36         37         38         39
    36  H    0.000000
    37  C    3.834219   0.000000
    38  Pt   5.799270   1.986480   0.000000
    39  H    6.107610   2.447195   1.510680   0.000000
 Stoichiometry    C13H23N2Pt(1+)
 Framework group  C1[X(C13H23N2Pt)]
 Deg. of freedom   111
 Full point group                 C1      NOp   1
 Largest Abelian subgroup         C1      NOp   1
 Largest concise Abelian subgroup C1      NOp   1
                         Standard orientation:                         
 ---------------------------------------------------------------------
 Center     Atomic      Atomic             Coordinates (Angstroms)
 Number     Number       Type             X           Y           Z
 ---------------------------------------------------------------------
      1          6           0       -1.933675   -1.225082   -0.167341
      2          6           0       -1.932302    1.235048   -0.117679
      3          6           0       -3.321360   -1.231658    0.021390
      4          6           0       -3.320765    1.234177    0.072473
      5          6           0       -3.992375   -0.000207    0.148179
      6          1           0       -3.890943   -2.166168    0.064249
      7          1           0       -3.889853    2.166469    0.153413
      8          6           0       -1.008771   -2.392917   -0.438931
      9          1           0       -0.921088   -2.557932   -1.528777
     10          1           0       -1.316287   -3.350698    0.022997
     11          6           0       -1.016024    2.414256   -0.362844
     12          1           0       -0.979692    2.637073   -1.445156
     13          1           0       -1.303348    3.346728    0.159702
     14          7           0        0.400904   -2.068943    0.050390
     15          7           0        0.418641    2.076639    0.043571
     16          6           0        2.836246   -0.049399    0.190197
     17          1           0        3.114361   -0.743563    1.011499
     18          1           0        3.381611   -0.412736   -0.701665
     19          1           0        3.292307    0.923487    0.453716
     20          6           0        1.390007   -2.937085   -0.641365
     21          1           0        2.385314   -2.757679   -0.210571
     22          1           0        1.104239   -3.996249   -0.502711
     23          1           0        1.398224   -2.690225   -1.713063
     24          6           0        0.459830   -2.327343    1.519529
     25          1           0        0.278453   -3.401344    1.708319
     26          1           0        1.454577   -2.052381    1.900012
     27          1           0       -0.324903   -1.735848    2.020303
     28          6           0        1.357853    2.950786   -0.708860
     29          1           0        1.070000    4.007216   -0.553872
     30          1           0        2.379462    2.785947   -0.342051
     31          1           0        1.300741    2.703867   -1.778814
     32          6           0        0.574584    2.327010    1.506603
     33          1           0        1.588848    2.033724    1.818882
     34          1           0        0.419479    3.401484    1.715747
     35          1           0       -0.184991    1.741496    2.052682
     36          1           0       -5.075237   -0.002950    0.299808
     37          6           0       -1.274544    0.006482   -0.206037
     38         78           0        0.709576    0.000535   -0.109413
     39          1           0        0.722788    0.000314   -1.620035
 ---------------------------------------------------------------------
 Rotational constants (GHZ):           0.5444504           0.4732906           0.2848554
 Standard basis: def2TZVPP (5D, 7F)
 There are   956 symmetry adapted cartesian basis functions of A   symmetry.
 There are   843 symmetry adapted basis functions of A   symmetry.
   843 basis functions,  1256 primitive gaussians,   956 cartesian basis functions
    66 alpha electrons       66 beta electrons
       nuclear repulsion energy      1413.9135030942 Hartrees.
 NAtoms=   39 NActive=   39 NUniq=   39 SFac= 1.00D+00 NAtFMM=   60 NAOKFM=F Big=F
 Integral buffers will be    131072 words long.
 Raffenetti 2 integral format.
 Two-electron integral symmetry is turned on.
 Nuclear repulsion after empirical dispersion term =     1413.8692466972 Hartrees.
 ------------------------------------------------------------------------------
 Polarizable Continuum Model (PCM)
 =================================
 Model                : PCM.
 Atomic radii         : UFF (Universal Force Field).
 Polarization charges : Total charges.
 Charge compensation  : None.
 Solution method      : On-the-fly selection.
 Cavity type          : Scaled VdW (van der Waals Surface) (Alpha=1.100).
 Cavity algorithm     : GePol (No added spheres)
                        Default sphere list used, NSphG=   39.
                        Lebedev-Laikov grids with approx.  5.0 points / Ang**2.
                        Smoothing algorithm: York/Karplus (Gamma=1.0000).
                        Polarization charges: spherical gaussians, with
                                              point-specific exponents (IZeta= 3).
                        Self-potential: point-specific (ISelfS= 7).
                        Self-field    : sphere-specific E.n sum rule (ISelfD= 2).
 1st derivatives      : Analytical E(r).r(x)/FMM algorithm (CHGder, D1EAlg=3).
                        Cavity 1st derivative terms included.
 Solvent              : Dichloromethane, Eps=   8.930000 Eps(inf)=   2.028346
 ------------------------------------------------------------------------------
 One-electron integrals computed using PRISM.
   1 Symmetry operations used in ECPInt.
 ECPInt:  NShTT=   51040 NPrTT=  129700 LenC2=   46861 LenP2D=   92045.
 LDataN:  DoStor=T MaxTD1= 9 Len=  602
 Number of processors reduced to  41 by ecpmxn.
 NBasis=   843 RedAO= T EigKep=  5.90D-06  NBF=   843
 NBsUse=   843 1.00D-06 EigRej= -1.00D+00 NBFU=   843
 Defaulting to unpruned grid for atomic number  78.
 ExpMin= 4.92D-02 ExpMax= 1.97D+04 ExpMxC= 6.73D+02 IAcc=3 IRadAn=         5 AccDes= 0.00D+00
 Harris functional with IExCor= 4639 and IRadAn=       5 diagonalized for initial guess.
 HarFok:  IExCor= 4639 AccDes= 0.00D+00 IRadAn=         5 IDoV= 1 UseB2=F ITyADJ=14
 ICtDFT=  3500011 ScaDFX=  1.000000  1.000000  1.000000  1.000000
 Defaulting to unpruned grid for atomic number  78.
 FoFCou: FMM=F IPFlag=           0 FMFlag=      100000 FMFlg1=           0
         NFxFlg=           0 DoJE=T BraDBF=F KetDBF=T FulRan=T
         wScrn=  0.000000 ICntrl=       500 IOpCl=  0 I1Cent=   200000004 NGrid=           0
         NMat0=    1 NMatS0=      1 NMatT0=    0 NMatD0=    1 NMtDS0=    0 NMtDT0=    0
 Petite list used in FoFCou.
 Requested convergence on RMS density matrix=1.00D-08 within 128 cycles.
 Requested convergence on MAX density matrix=1.00D-06.
 Requested convergence on             energy=1.00D-06.
 No special actions if energy rises.
 Defaulting to unpruned grid for atomic number  78.
 Defaulting to unpruned grid for atomic number  78.
 Defaulting to unpruned grid for atomic number  78.
 Defaulting to unpruned grid for atomic number  78.
 Defaulting to unpruned grid for atomic number  78.
 Defaulting to unpruned grid for atomic number  78.
 Defaulting to unpruned grid for atomic number  78.
 Defaulting to unpruned grid for atomic number  78.
 Defaulting to unpruned grid for atomic number  78.
 Defaulting to unpruned grid for atomic number  78.
 Defaulting to unpruned grid for atomic number  78.
 Defaulting to unpruned grid for atomic number  78.
 Defaulting to unpruned grid for atomic number  78.
 Defaulting to unpruned grid for atomic number  78.
 Defaulting to unpruned grid for atomic number  78.
 Defaulting to unpruned grid for atomic number  78.
 Defaulting to unpruned grid for atomic number  78.
 Defaulting to unpruned grid for atomic number  78.
 Defaulting to unpruned grid for atomic number  78.
 Defaulting to unpruned grid for atomic number  78.
 Defaulting to unpruned grid for atomic number  78.
 Defaulting to unpruned grid for atomic number  78.
 Defaulting to unpruned grid for atomic number  78.
 Defaulting to unpruned grid for atomic number  78.
 Defaulting to unpruned grid for atomic number  78.
 Defaulting to unpruned grid for atomic number  78.
 Defaulting to unpruned grid for atomic number  78.
 Defaulting to unpruned grid for atomic number  78.
 Defaulting to unpruned grid for atomic number  78.
 Defaulting to unpruned grid for atomic number  78.
 Defaulting to unpruned grid for atomic number  78.
 Defaulting to unpruned grid for atomic number  78.
 Defaulting to unpruned grid for atomic number  78.
 Defaulting to unpruned grid for atomic number  78.
 Defaulting to unpruned grid for atomic number  78.
 Defaulting to unpruned grid for atomic number  78.
 Defaulting to unpruned grid for atomic number  78.
 Defaulting to unpruned grid for atomic number  78.
 Defaulting to unpruned grid for atomic number  78.
 Defaulting to unpruned grid for atomic number  78.
 Defaulting to unpruned grid for atomic number  78.
 Defaulting to unpruned grid for atomic number  78.
 Defaulting to unpruned grid for atomic number  78.
 Defaulting to unpruned grid for atomic number  78.
 Defaulting to unpruned grid for atomic number  78.
 Defaulting to unpruned grid for atomic number  78.
 Defaulting to unpruned grid for atomic number  78.
 Defaulting to unpruned grid for atomic number  78.
 Inv3:  Mode=1 IEnd=    18140043.
 Iteration    1 A*A^-1 deviation from unit magnitude is 3.11D-15 for    182.
 Iteration    1 A*A^-1 deviation from orthogonality  is 1.87D-15 for   2264    869.
 Iteration    1 A^-1*A deviation from unit magnitude is 3.11D-15 for    182.
 Iteration    1 A^-1*A deviation from orthogonality  is 5.16D-15 for   2150   2122.
 Error on total polarization charges =  0.01975
 SCF Done:  E(RwB97XD) =  -738.006477401     A.U. after   18 cycles
            NFock= 18  Conv=0.56D-08     -V/T= 2.1272

 **********************************************************************

            Population analysis using the SCF Density.

 **********************************************************************

 Orbital symmetries:
       Occupied  (A) (A) (A) (A) (A) (A) (A) (A) (A) (A) (A) (A)
                 (A) (A) (A) (A) (A) (A) (A) (A) (A) (A) (A) (A)
                 (A) (A) (A) (A) (A) (A) (A) (A) (A) (A) (A) (A)
                 (A) (A) (A) (A) (A) (A) (A) (A) (A) (A) (A) (A)
                 (A) (A) (A) (A) (A) (A) (A) (A) (A) (A) (A) (A)
                 (A) (A) (A) (A) (A) (A)
       Virtual   (A) (A) (A) (A) (A) (A) (A) (A) (A) (A) (A) (A)
                 (A) (A) (A) (A) (A) (A) (A) (A) (A) (A) (A) (A)
                 (A) (A) (A) (A) (A) (A) (A) (A) (A) (A) (A) (A)
                 (A) (A) (A) (A) (A) (A) (A) (A) (A) (A) (A) (A)
                 (A) (A) (A) (A) (A) (A) (A) (A) (A) (A) (A) (A)
                 (A) (A) (A) (A) (A) (A) (A) (A) (A) (A) (A) (A)
                 (A) (A) (A) (A) (A) (A) (A) (A) (A) (A) (A) (A)
                 (A) (A) (A) (A) (A) (A) (A) (A) (A) (A) (A) (A)
                 (A) (A) (A) (A) (A) (A) (A) (A) (A) (A) (A) (A)
                 (A) (A) (A) (A) (A) (A) (A) (A) (A) (A) (A) (A)
                 (A) (A) (A) (A) (A) (A) (A) (A) (A) (A) (A) (A)
                 (A) (A) (A) (A) (A) (A) (A) (A) (A) (A) (A) (A)
                 (A) (A) (A) (A) (A) (A) (A) (A) (A) (A) (A) (A)
                 (A) (A) (A) (A) (A) (A) (A) (A) (A) (A) (A) (A)
                 (A) (A) (A) (A) (A) (A) (A) (A) (A) (A) (A) (A)
                 (A) (A) (A) (A) (A) (A) (A) (A) (A) (A) (A) (A)
                 (A) (A) (A) (A) (A) (A) (A) (A) (A) (A) (A) (A)
                 (A) (A) (A) (A) (A) (A) (A) (A) (A) (A) (A) (A)
                 (A) (A) (A) (A) (A) (A) (A) (A) (A) (A) (A) (A)
                 (A) (A) (A) (A) (A) (A) (A) (A) (A) (A) (A) (A)
                 (A) (A) (A) (A) (A) (A) (A) (A) (A) (A) (A) (A)
                 (A) (A) (A) (A) (A) (A) (A) (A) (A) (A) (A) (A)
                 (A) (A) (A) (A) (A) (A) (A) (A) (A) (A) (A) (A)
                 (A) (A) (A) (A) (A) (A) (A) (A) (A) (A) (A) (A)
                 (A) (A) (A) (A) (A) (A) (A) (A) (A) (A) (A) (A)
                 (A) (A) (A) (A) (A) (A) (A) (A) (A) (A) (A) (A)
                 (A) (A) (A) (A) (A) (A) (A) (A) (A) (A) (A) (A)
                 (A) (A) (A) (A) (A) (A) (A) (A) (A) (A) (A) (A)
                 (A) (A) (A) (A) (A) (A) (A) (A) (A) (A) (A) (A)
                 (A) (A) (A) (A) (A) (A) (A) (A) (A) (A) (A) (A)
                 (A) (A) (A) (A) (A) (A) (A) (A) (A) (A) (A) (A)
                 (A) (A) (A) (A) (A) (A) (A) (A) (A) (A) (A) (A)
                 (A) (A) (A) (A) (A) (A) (A) (A) (A) (A) (A) (A)
                 (A) (A) (A) (A) (A) (A) (A) (A) (A) (A) (A) (A)
                 (A) (A) (A) (A) (A) (A) (A) (A) (A) (A) (A) (A)
                 (A) (A) (A) (A) (A) (A) (A) (A) (A) (A) (A) (A)
                 (A) (A) (A) (A) (A) (A) (A) (A) (A) (A) (A) (A)
                 (A) (A) (A) (A) (A) (A) (A) (A) (A) (A) (A) (A)
                 (A) (A) (A) (A) (A) (A) (A) (A) (A) (A) (A) (A)
                 (A) (A) (A) (A) (A) (A) (A) (A) (A) (A) (A) (A)
                 (A) (A) (A) (A) (A) (A) (A) (A) (A) (A) (A) (A)
                 (A) (A) (A) (A) (A) (A) (A) (A) (A) (A) (A) (A)
                 (A) (A) (A) (A) (A) (A) (A) (A) (A) (A) (A) (A)
                 (A) (A) (A) (A) (A) (A) (A) (A) (A) (A) (A) (A)
                 (A) (A) (A) (A) (A) (A) (A) (A) (A) (A) (A) (A)
                 (A) (A) (A) (A) (A) (A) (A) (A) (A) (A) (A) (A)
                 (A) (A) (A) (A) (A) (A) (A) (A) (A) (A) (A) (A)
                 (A) (A) (A) (A) (A) (A) (A) (A) (A) (A) (A) (A)
                 (A) (A) (A) (A) (A) (A) (A) (A) (A) (A) (A) (A)
                 (A) (A) (A) (A) (A) (A) (A) (A) (A) (A) (A) (A)
                 (A) (A) (A) (A) (A) (A) (A) (A) (A) (A) (A) (A)
                 (A) (A) (A) (A) (A) (A) (A) (A) (A) (A) (A) (A)
                 (A) (A) (A) (A) (A) (A) (A) (A) (A) (A) (A) (A)
                 (A) (A) (A) (A) (A) (A) (A) (A) (A) (A) (A) (A)
                 (A) (A) (A) (A) (A) (A) (A) (A) (A) (A) (A) (A)
                 (A) (A) (A) (A) (A) (A) (A) (A) (A) (A) (A) (A)
                 (A) (A) (A) (A) (A) (A) (A) (A) (A) (A) (A) (A)
                 (A) (A) (A) (A) (A) (A) (A) (A) (A) (A) (A) (A)
                 (A) (A) (A) (A) (A) (A) (A) (A) (A) (A) (A) (A)
                 (A) (A) (A) (A) (A) (A) (A) (A) (A) (A) (A) (A)
                 (A) (A) (A) (A) (A) (A) (A) (A) (A) (A) (A) (A)
                 (A) (A) (A) (A) (A) (A) (A) (A) (A) (A) (A) (A)
                 (A) (A) (A) (A) (A) (A) (A) (A) (A) (A) (A) (A)
                 (A) (A) (A) (A) (A) (A) (A) (A) (A) (A) (A) (A)
                 (A) (A) (A) (A) (A) (A) (A) (A) (A)
 The electronic state is 1-A.
 Alpha  occ. eigenvalues --  -14.55229 -14.55194 -10.35958 -10.35947 -10.34933
 Alpha  occ. eigenvalues --  -10.34900 -10.34394 -10.34393 -10.32104 -10.32092
 Alpha  occ. eigenvalues --  -10.31331 -10.31326 -10.30992 -10.30003 -10.26161
 Alpha  occ. eigenvalues --   -4.12422  -2.36103  -2.36075  -2.34932  -1.09608
 Alpha  occ. eigenvalues --   -1.09052  -0.98037  -0.90790  -0.88294  -0.85058
 Alpha  occ. eigenvalues --   -0.85022  -0.82161  -0.81941  -0.76443  -0.75714
 Alpha  occ. eigenvalues --   -0.74277  -0.70211  -0.70030  -0.64616  -0.62009
 Alpha  occ. eigenvalues --   -0.61238  -0.60933  -0.60344  -0.59511  -0.58886
 Alpha  occ. eigenvalues --   -0.56169  -0.54486  -0.53897  -0.53525  -0.53378
 Alpha  occ. eigenvalues --   -0.51811  -0.51348  -0.50955  -0.50078  -0.49886
 Alpha  occ. eigenvalues --   -0.49652  -0.49406  -0.49224  -0.48545  -0.47996
 Alpha  occ. eigenvalues --   -0.47442  -0.45766  -0.45224  -0.44582  -0.43065
 Alpha  occ. eigenvalues --   -0.42255  -0.42179  -0.38141  -0.34455  -0.32892
 Alpha  occ. eigenvalues --   -0.32559
 Alpha virt. eigenvalues --   -0.03864   0.02499   0.02851   0.04567   0.07876
 Alpha virt. eigenvalues --    0.09973   0.10848   0.11716   0.12824   0.13065
 Alpha virt. eigenvalues --    0.13219   0.13940   0.14267   0.14402   0.14594
 Alpha virt. eigenvalues --    0.14927   0.15163   0.16001   0.16073   0.17481
 Alpha virt. eigenvalues --    0.18397   0.18639   0.18894   0.19388   0.19687
 Alpha virt. eigenvalues --    0.19900   0.20632   0.21007   0.21044   0.21178
 Alpha virt. eigenvalues --    0.22133   0.22393   0.22891   0.23768   0.24568
 Alpha virt. eigenvalues --    0.25017   0.25523   0.26366   0.27073   0.27982
 Alpha virt. eigenvalues --    0.28314   0.28531   0.29575   0.29825   0.30165
 Alpha virt. eigenvalues --    0.30912   0.31030   0.31590   0.32634   0.33452
 Alpha virt. eigenvalues --    0.34065   0.34445   0.34871   0.35398   0.35654
 Alpha virt. eigenvalues --    0.35903   0.36696   0.37624   0.38049   0.38258
 Alpha virt. eigenvalues --    0.38415   0.39124   0.39591   0.40338   0.41569
 Alpha virt. eigenvalues --    0.42102   0.42522   0.43147   0.43615   0.44026
 Alpha virt. eigenvalues --    0.44690   0.44930   0.45036   0.45776   0.46024
 Alpha virt. eigenvalues --    0.46638   0.47292   0.47591   0.47718   0.48095
 Alpha virt. eigenvalues --    0.48377   0.48769   0.49270   0.49405   0.49617
 Alpha virt. eigenvalues --    0.49679   0.50322   0.50701   0.50959   0.51752
 Alpha virt. eigenvalues --    0.51936   0.52731   0.52898   0.53369   0.53540
 Alpha virt. eigenvalues --    0.54320   0.54693   0.55289   0.56052   0.56236
 Alpha virt. eigenvalues --    0.56339   0.57070   0.57674   0.58474   0.58746
 Alpha virt. eigenvalues --    0.59353   0.59694   0.60491   0.60877   0.62099
 Alpha virt. eigenvalues --    0.62674   0.63055   0.63272   0.65421   0.65826
 Alpha virt. eigenvalues --    0.66435   0.67252   0.68070   0.69727   0.70067
 Alpha virt. eigenvalues --    0.70935   0.71388   0.72376   0.72467   0.73343
 Alpha virt. eigenvalues --    0.74296   0.75367   0.76694   0.77163   0.77799
 Alpha virt. eigenvalues --    0.78430   0.79076   0.79436   0.80061   0.82437
 Alpha virt. eigenvalues --    0.82835   0.83523   0.84355   0.85470   0.85743
 Alpha virt. eigenvalues --    0.86228   0.87088   0.87564   0.88804   0.89723
 Alpha virt. eigenvalues --    0.90039   0.90497   0.91376   0.92884   0.93560
 Alpha virt. eigenvalues --    0.93856   0.94377   0.94765   0.95317   0.96488
 Alpha virt. eigenvalues --    0.96826   0.97520   0.98273   0.99019   0.99261
 Alpha virt. eigenvalues --    0.99775   1.00517   1.01387   1.01877   1.02619
 Alpha virt. eigenvalues --    1.02883   1.03128   1.03780   1.04220   1.05168
 Alpha virt. eigenvalues --    1.05647   1.06025   1.06892   1.07617   1.08084
 Alpha virt. eigenvalues --    1.08278   1.09086   1.09818   1.10433   1.11764
 Alpha virt. eigenvalues --    1.12104   1.12722   1.13248   1.13433   1.14007
 Alpha virt. eigenvalues --    1.14817   1.15703   1.16337   1.16909   1.17689
 Alpha virt. eigenvalues --    1.18114   1.18628   1.18913   1.20564   1.20705
 Alpha virt. eigenvalues --    1.21366   1.21728   1.22732   1.23490   1.23845
 Alpha virt. eigenvalues --    1.25086   1.25717   1.26211   1.27332   1.27886
 Alpha virt. eigenvalues --    1.28747   1.28960   1.29076   1.29842   1.31262
 Alpha virt. eigenvalues --    1.31322   1.31844   1.32393   1.33219   1.33741
 Alpha virt. eigenvalues --    1.34040   1.34488   1.34745   1.35519   1.36258
 Alpha virt. eigenvalues --    1.36549   1.37048   1.38209   1.39034   1.39534
 Alpha virt. eigenvalues --    1.39953   1.40581   1.41019   1.41371   1.42242
 Alpha virt. eigenvalues --    1.43701   1.44099   1.44475   1.45172   1.45490
 Alpha virt. eigenvalues --    1.46228   1.46864   1.47345   1.47654   1.48672
 Alpha virt. eigenvalues --    1.49519   1.50156   1.51205   1.51825   1.52110
 Alpha virt. eigenvalues --    1.52522   1.53591   1.54127   1.55109   1.55767
 Alpha virt. eigenvalues --    1.55971   1.56665   1.57121   1.57394   1.58014
 Alpha virt. eigenvalues --    1.58712   1.59031   1.59638   1.60549   1.60980
 Alpha virt. eigenvalues --    1.62274   1.62937   1.64145   1.64391   1.64754
 Alpha virt. eigenvalues --    1.65784   1.66199   1.67711   1.68262   1.68726
 Alpha virt. eigenvalues --    1.69677   1.70567   1.71119   1.71428   1.72338
 Alpha virt. eigenvalues --    1.73776   1.74271   1.75074   1.75443   1.77236
 Alpha virt. eigenvalues --    1.78376   1.78700   1.79068   1.79638   1.80504
 Alpha virt. eigenvalues --    1.81724   1.82277   1.83014   1.84422   1.84679
 Alpha virt. eigenvalues --    1.85802   1.86482   1.88804   1.88983   1.90495
 Alpha virt. eigenvalues --    1.91888   1.93007   1.93990   1.94662   1.95299
 Alpha virt. eigenvalues --    1.95963   1.99119   2.00536   2.00814   2.05346
 Alpha virt. eigenvalues --    2.05810   2.07394   2.09359   2.10474   2.11809
 Alpha virt. eigenvalues --    2.12306   2.13655   2.14550   2.15481   2.16598
 Alpha virt. eigenvalues --    2.17609   2.19317   2.20352   2.20651   2.21999
 Alpha virt. eigenvalues --    2.22687   2.23358   2.25457   2.26465   2.27862
 Alpha virt. eigenvalues --    2.30303   2.30585   2.31572   2.32566   2.34463
 Alpha virt. eigenvalues --    2.35806   2.37732   2.38492   2.39563   2.43723
 Alpha virt. eigenvalues --    2.45570   2.46805   2.48005   2.52273   2.53367
 Alpha virt. eigenvalues --    2.53788   2.56475   2.57649   2.58376   2.59440
 Alpha virt. eigenvalues --    2.60821   2.62695   2.62942   2.63304   2.65702
 Alpha virt. eigenvalues --    2.66295   2.66723   2.68489   2.68941   2.70086
 Alpha virt. eigenvalues --    2.70691   2.70794   2.71842   2.72340   2.73169
 Alpha virt. eigenvalues --    2.74348   2.74595   2.75118   2.77081   2.79440
 Alpha virt. eigenvalues --    2.79893   2.80427   2.81678   2.82190   2.82796
 Alpha virt. eigenvalues --    2.83919   2.84584   2.85111   2.85143   2.85882
 Alpha virt. eigenvalues --    2.86445   2.87347   2.87386   2.88178   2.88860
 Alpha virt. eigenvalues --    2.89312   2.90163   2.90852   2.91023   2.91887
 Alpha virt. eigenvalues --    2.93001   2.93765   2.93890   2.94556   2.95428
 Alpha virt. eigenvalues --    2.95916   2.96579   2.96802   2.97608   2.99020
 Alpha virt. eigenvalues --    2.99942   3.00342   3.01344   3.01733   3.02482
 Alpha virt. eigenvalues --    3.03182   3.03782   3.04289   3.04928   3.05447
 Alpha virt. eigenvalues --    3.05871   3.07189   3.08085   3.08410   3.08503
 Alpha virt. eigenvalues --    3.09256   3.09945   3.10032   3.10916   3.11853
 Alpha virt. eigenvalues --    3.13318   3.13676   3.13836   3.14444   3.15523
 Alpha virt. eigenvalues --    3.15679   3.16118   3.16959   3.17211   3.17601
 Alpha virt. eigenvalues --    3.18462   3.19204   3.20386   3.22203   3.22612
 Alpha virt. eigenvalues --    3.23079   3.23685   3.24457   3.24804   3.25148
 Alpha virt. eigenvalues --    3.25275   3.26186   3.27611   3.28031   3.29054
 Alpha virt. eigenvalues --    3.29193   3.29553   3.30525   3.31349   3.31741
 Alpha virt. eigenvalues --    3.32834   3.33828   3.34274   3.34665   3.35050
 Alpha virt. eigenvalues --    3.36140   3.36906   3.37014   3.38312   3.38510
 Alpha virt. eigenvalues --    3.38860   3.39877   3.40551   3.41614   3.42461
 Alpha virt. eigenvalues --    3.42659   3.42746   3.43988   3.45149   3.45280
 Alpha virt. eigenvalues --    3.45405   3.46517   3.47013   3.47498   3.48636
 Alpha virt. eigenvalues --    3.48884   3.49813   3.50213   3.50661   3.51727
 Alpha virt. eigenvalues --    3.52302   3.52835   3.53369   3.53616   3.54033
 Alpha virt. eigenvalues --    3.54539   3.55316   3.56347   3.56505   3.56941
 Alpha virt. eigenvalues --    3.58164   3.58375   3.59303   3.59627   3.61432
 Alpha virt. eigenvalues --    3.61602   3.62476   3.63140   3.63513   3.63774
 Alpha virt. eigenvalues --    3.64467   3.64723   3.66363   3.66759   3.67671
 Alpha virt. eigenvalues --    3.68101   3.69150   3.69478   3.69574   3.70629
 Alpha virt. eigenvalues --    3.71298   3.71798   3.72221   3.72425   3.72923
 Alpha virt. eigenvalues --    3.73488   3.74802   3.75372   3.76736   3.77141
 Alpha virt. eigenvalues --    3.78014   3.78529   3.79401   3.79984   3.80091
 Alpha virt. eigenvalues --    3.81418   3.81673   3.82145   3.82196   3.83142
 Alpha virt. eigenvalues --    3.84172   3.84701   3.85034   3.86179   3.86713
 Alpha virt. eigenvalues --    3.88100   3.89309   3.89913   3.90585   3.90731
 Alpha virt. eigenvalues --    3.91561   3.92015   3.93600   3.94426   3.95138
 Alpha virt. eigenvalues --    3.95528   3.96407   3.96962   3.98131   3.98374
 Alpha virt. eigenvalues --    3.99314   4.00732   4.01300   4.01479   4.02644
 Alpha virt. eigenvalues --    4.03792   4.04446   4.05552   4.06258   4.07469
 Alpha virt. eigenvalues --    4.08306   4.08939   4.09220   4.09686   4.10253
 Alpha virt. eigenvalues --    4.11170   4.12100   4.13689   4.14526   4.14807
 Alpha virt. eigenvalues --    4.15371   4.16223   4.16635   4.17128   4.17572
 Alpha virt. eigenvalues --    4.18273   4.18408   4.19285   4.19859   4.21001
 Alpha virt. eigenvalues --    4.21280   4.22240   4.22447   4.23535   4.23885
 Alpha virt. eigenvalues --    4.24294   4.25054   4.25263   4.25780   4.26521
 Alpha virt. eigenvalues --    4.27122   4.27791   4.28334   4.29021   4.29101
 Alpha virt. eigenvalues --    4.29321   4.30067   4.30573   4.30777   4.31263
 Alpha virt. eigenvalues --    4.31573   4.32605   4.32793   4.34413   4.34638
 Alpha virt. eigenvalues --    4.35585   4.36205   4.36839   4.37228   4.38361
 Alpha virt. eigenvalues --    4.39428   4.39490   4.40231   4.40666   4.41273
 Alpha virt. eigenvalues --    4.42819   4.43507   4.44538   4.45687   4.46881
 Alpha virt. eigenvalues --    4.47265   4.47870   4.50289   4.50966   4.51882
 Alpha virt. eigenvalues --    4.53119   4.55373   4.56234   4.57065   4.59489
 Alpha virt. eigenvalues --    4.60034   4.60639   4.61690   4.64717   4.65984
 Alpha virt. eigenvalues --    4.67034   4.68540   4.69217   4.69383   4.69797
 Alpha virt. eigenvalues --    4.71334   4.71801   4.72789   4.72902   4.73925
 Alpha virt. eigenvalues --    4.74728   4.76487   4.76780   4.77180   4.77644
 Alpha virt. eigenvalues --    4.78975   4.80170   4.82283   4.83193   4.83473
 Alpha virt. eigenvalues --    4.83894   4.85334   4.86736   4.87173   4.89141
 Alpha virt. eigenvalues --    4.90744   4.91218   4.92722   4.93332   4.96522
 Alpha virt. eigenvalues --    4.96675   4.98321   4.98835   5.02096   5.02138
 Alpha virt. eigenvalues --    5.03756   5.04533   5.05850   5.06629   5.07566
 Alpha virt. eigenvalues --    5.09256   5.10694   5.10852   5.13534   5.14997
 Alpha virt. eigenvalues --    5.15490   5.16687   5.18076   5.19105   5.19154
 Alpha virt. eigenvalues --    5.20238   5.20501   5.21598   5.22188   5.22283
 Alpha virt. eigenvalues --    5.23320   5.23938   5.25261   5.26569   5.27333
 Alpha virt. eigenvalues --    5.27564   5.28274   5.29463   5.30108   5.31485
 Alpha virt. eigenvalues --    5.32474   5.33285   5.33770   5.34373   5.35091
 Alpha virt. eigenvalues --    5.35212   5.36586   5.37434   5.37719   5.39036
 Alpha virt. eigenvalues --    5.39877   5.40626   5.43111   5.43294   5.45278
 Alpha virt. eigenvalues --    5.45789   5.46523   5.48064   5.49341   5.50228
 Alpha virt. eigenvalues --    5.51118   5.52476   5.52667   5.54894   5.54965
 Alpha virt. eigenvalues --    5.56226   5.60107   5.60198   5.61040   5.62710
 Alpha virt. eigenvalues --    5.62980   5.63773   5.64245   5.65382   5.67014
 Alpha virt. eigenvalues --    5.68059   5.70037   5.71113   5.72023   5.73460
 Alpha virt. eigenvalues --    5.74461   5.74649   5.75061   5.76323   5.77810
 Alpha virt. eigenvalues --    5.78648   5.79780   5.82170   5.82955   5.88308
 Alpha virt. eigenvalues --    5.91395   5.92221   5.95675   6.01640   6.07841
 Alpha virt. eigenvalues --    6.08190   6.10219   6.13715   6.15404   6.28354
 Alpha virt. eigenvalues --    6.28739   6.49199  22.58356  23.16787  23.20905
 Alpha virt. eigenvalues --   23.24033  23.25785  23.39682  23.47104  23.51943
 Alpha virt. eigenvalues --   23.71616  23.75398  23.78216  23.83093  23.94856
 Alpha virt. eigenvalues --   32.83019  32.87528  34.35833  37.17130  39.07949
 Alpha virt. eigenvalues --   53.32552 285.21144
          Condensed to atoms (all electrons):
               1          2          3          4          5          6
     1  C    5.599802   0.162898   0.243930  -0.200894   0.103365  -0.054707
     2  C    0.162898   5.571536  -0.207082   0.235854   0.107791  -0.005726
     3  C    0.243930  -0.207082   5.179339   0.124519   0.349107   0.451717
     4  C   -0.200894   0.235854   0.124519   5.179029   0.350060   0.010948
     5  C    0.103365   0.107791   0.349107   0.350060   5.023053  -0.045994
     6  H   -0.054707  -0.005726   0.451717   0.010948  -0.045994   0.501227
     7  H   -0.005608  -0.054411   0.010925   0.450977  -0.045726  -0.000069
     8  C    0.328620   0.028853  -0.103245  -0.013198   0.021740  -0.008042
     9  H   -0.038731  -0.000517  -0.000882   0.000356  -0.000175   0.000202
    10  H   -0.049522  -0.000452  -0.002242   0.000168  -0.000298   0.001409
    11  C    0.027728   0.333544  -0.011912  -0.098795   0.020499  -0.000001
    12  H   -0.000576  -0.035259   0.000363  -0.000342  -0.000262   0.000000
    13  H   -0.000455  -0.050076   0.000152  -0.002814  -0.000142  -0.000002
    14  N   -0.058082   0.006674   0.001377  -0.000137  -0.000144  -0.000017
    15  N    0.007674  -0.050728  -0.000235   0.001595  -0.000084  -0.000003
    16  C    0.002659  -0.000028   0.000954   0.000881  -0.000272   0.000008
    17  H   -0.000594   0.000020  -0.000022  -0.000011   0.000004  -0.000000
    18  H   -0.000195   0.000054  -0.000019  -0.000012   0.000004  -0.000000
    19  H    0.000134  -0.000452  -0.000008  -0.000020   0.000003  -0.000000
    20  C    0.012655  -0.000478  -0.000285   0.000027   0.000007  -0.000008
    21  H   -0.001157   0.000020  -0.000042  -0.000007   0.000006  -0.000002
    22  H    0.001321   0.000009  -0.000036   0.000000  -0.000005   0.000011
    23  H   -0.000513  -0.000089  -0.000022   0.000010  -0.000004  -0.000002
    24  C    0.006941  -0.002275   0.003014   0.000370  -0.000438   0.000067
    25  H   -0.004199   0.000068  -0.000050   0.000018  -0.000045   0.000014
    26  H   -0.000052  -0.000023  -0.000080  -0.000012   0.000015  -0.000001
    27  H    0.013730  -0.000738   0.001455  -0.000259   0.000288   0.000033
    28  C   -0.000505   0.013135   0.000064  -0.000124  -0.000029   0.000000
    29  H    0.000014   0.001695   0.000000  -0.000037  -0.000006  -0.000000
    30  H    0.000034  -0.000974  -0.000005  -0.000022   0.000004  -0.000000
    31  H   -0.000130  -0.000455   0.000010  -0.000031  -0.000004   0.000000
    32  C   -0.002097   0.005918   0.000364   0.002940  -0.000396   0.000003
    33  H   -0.000058  -0.000285  -0.000016  -0.000105   0.000018  -0.000000
    34  H    0.000111  -0.003455   0.000009  -0.000115  -0.000027  -0.000000
    35  H   -0.001005   0.012922  -0.000146   0.001749   0.000134   0.000000
    36  H    0.011006   0.010905  -0.044512  -0.044277   0.444812  -0.004501
    37  C   -0.085501  -0.033442   0.216266   0.222686  -0.257948   0.022890
    38  Pt  -0.076495  -0.073756   0.013253   0.012363  -0.003324  -0.000377
    39  H   -0.011753  -0.007898   0.000170   0.000237  -0.000201  -0.000006
               7          8          9         10         11         12
     1  C   -0.005608   0.328620  -0.038731  -0.049522   0.027728  -0.000576
     2  C   -0.054411   0.028853  -0.000517  -0.000452   0.333544  -0.035259
     3  C    0.010925  -0.103245  -0.000882  -0.002242  -0.011912   0.000363
     4  C    0.450977  -0.013198   0.000356   0.000168  -0.098795  -0.000342
     5  C   -0.045726   0.021740  -0.000175  -0.000298   0.020499  -0.000262
     6  H   -0.000069  -0.008042   0.000202   0.001409  -0.000001   0.000000
     7  H    0.500822  -0.000027   0.000000  -0.000002  -0.007584   0.000236
     8  C   -0.000027   4.935188   0.433525   0.427788   0.000196  -0.000103
     9  H    0.000000   0.433525   0.536116  -0.017463  -0.000160  -0.000004
    10  H   -0.000002   0.427788  -0.017463   0.528760   0.000048  -0.000001
    11  C   -0.007584   0.000196  -0.000160   0.000048   4.941169   0.426796
    12  H    0.000236  -0.000103  -0.000004  -0.000001   0.426796   0.540663
    13  H    0.001268   0.000044  -0.000001  -0.000000   0.429889  -0.018242
    14  N   -0.000003   0.264694  -0.033233  -0.022264   0.000872   0.000051
    15  N   -0.000023   0.000859   0.000065  -0.000048   0.260921  -0.032655
    16  C    0.000007  -0.003385  -0.000168   0.000027  -0.001604  -0.000170
    17  H   -0.000000   0.000307  -0.000004  -0.000001  -0.000054   0.000003
    18  H   -0.000000   0.000161   0.000030  -0.000002   0.000073   0.000008
    19  H   -0.000000   0.000026   0.000001  -0.000000   0.000338  -0.000006
    20  C    0.000000  -0.042676  -0.001489  -0.007208  -0.000152  -0.000003
    21  H   -0.000000   0.008544   0.000336  -0.000351  -0.000008   0.000000
    22  H   -0.000000  -0.009047  -0.002646   0.004114   0.000007  -0.000000
    23  H    0.000000  -0.007704   0.002343  -0.000195  -0.000041   0.000000
    24  C    0.000003  -0.032891   0.004919  -0.011344   0.000048   0.000003
    25  H    0.000000  -0.007926   0.000172   0.004553  -0.000000   0.000000
    26  H   -0.000000   0.005439  -0.000152   0.000074  -0.000040  -0.000000
    27  H   -0.000000  -0.010796   0.000199  -0.002625   0.000214  -0.000005
    28  C    0.000002  -0.000199  -0.000003   0.000001  -0.043174  -0.001458
    29  H    0.000013   0.000006  -0.000000  -0.000000  -0.009875  -0.002863
    30  H   -0.000001  -0.000008   0.000000  -0.000000   0.008333   0.000414
    31  H   -0.000003  -0.000044   0.000000   0.000000  -0.007095   0.001784
    32  C    0.000050   0.000012   0.000003   0.000002  -0.029932   0.004642
    33  H   -0.000002  -0.000030  -0.000000   0.000001   0.005582  -0.000170
    34  H    0.000008   0.000001   0.000000  -0.000000  -0.009137   0.000187
    35  H    0.000031   0.000202  -0.000005   0.000003  -0.009349   0.000219
    36  H   -0.004464  -0.000108   0.000002  -0.000008  -0.000143   0.000001
    37  C    0.023084  -0.118244  -0.004945   0.016922  -0.137420  -0.005394
    38  Pt  -0.000470  -0.032484  -0.001625   0.005828  -0.038750  -0.000106
    39  H   -0.000006   0.006433  -0.001529   0.000350   0.004002  -0.001297
              13         14         15         16         17         18
     1  C   -0.000455  -0.058082   0.007674   0.002659  -0.000594  -0.000195
     2  C   -0.050076   0.006674  -0.050728  -0.000028   0.000020   0.000054
     3  C    0.000152   0.001377  -0.000235   0.000954  -0.000022  -0.000019
     4  C   -0.002814  -0.000137   0.001595   0.000881  -0.000011  -0.000012
     5  C   -0.000142  -0.000144  -0.000084  -0.000272   0.000004   0.000004
     6  H   -0.000002  -0.000017  -0.000003   0.000008  -0.000000  -0.000000
     7  H    0.001268  -0.000003  -0.000023   0.000007  -0.000000  -0.000000
     8  C    0.000044   0.264694   0.000859  -0.003385   0.000307   0.000161
     9  H   -0.000001  -0.033233   0.000065  -0.000168  -0.000004   0.000030
    10  H   -0.000000  -0.022264  -0.000048   0.000027  -0.000001  -0.000002
    11  C    0.429889   0.000872   0.260921  -0.001604  -0.000054   0.000073
    12  H   -0.018242   0.000051  -0.032655  -0.000170   0.000003   0.000008
    13  H    0.530402  -0.000048  -0.022471   0.000042   0.000000  -0.000000
    14  N   -0.000048   6.324804  -0.009088   0.008000  -0.002046  -0.001785
    15  N   -0.022471  -0.009088   6.328590   0.010566  -0.000166  -0.000015
    16  C    0.000042   0.008000   0.010566   5.324411   0.386531   0.380415
    17  H    0.000000  -0.002046  -0.000166   0.386531   0.580786  -0.017982
    18  H   -0.000000  -0.001785  -0.000015   0.380415  -0.017982   0.569015
    19  H   -0.000009   0.000136  -0.002673   0.398585  -0.017302  -0.013600
    20  C    0.000002   0.254696   0.000732  -0.004472  -0.003733  -0.000122
    21  H   -0.000000  -0.029678   0.000039  -0.005923   0.002006  -0.000253
    22  H   -0.000000  -0.017533  -0.000017   0.000328  -0.000191  -0.000019
    23  H    0.000000  -0.033564   0.000063  -0.001365   0.000336   0.000370
    24  C    0.000002   0.264947   0.001116  -0.007639  -0.003383   0.000364
    25  H   -0.000000  -0.021141  -0.000043   0.000171  -0.000032  -0.000034
    26  H    0.000001  -0.028445   0.000300  -0.002402   0.003727   0.000079
    27  H    0.000004  -0.030429   0.000170   0.000247   0.000259   0.000016
    28  C   -0.007412   0.000679   0.257031  -0.005207   0.000321  -0.000199
    29  H    0.003992  -0.000017  -0.017459   0.000420  -0.000004  -0.000025
    30  H   -0.000385   0.000048  -0.027692  -0.004496   0.000308   0.000411
    31  H   -0.000077   0.000054  -0.033246  -0.000106  -0.000042   0.000103
    32  C   -0.011175   0.001115   0.264104  -0.004161   0.000181   0.000180
    33  H    0.000129   0.000277  -0.030144  -0.003899  -0.000112   0.000182
    34  H    0.004591  -0.000045  -0.020747   0.000248   0.000006  -0.000008
    35  H   -0.003023   0.000242  -0.030031   0.000198   0.000033  -0.000001
    36  H   -0.000006   0.000007   0.000007  -0.000000   0.000000   0.000000
    37  C    0.016002   0.000161  -0.008629  -0.068715   0.003183   0.002212
    38  Pt   0.005405   0.172248   0.169574   0.254353  -0.023372  -0.019112
[...]
    34  H    0.000001   0.000004   0.000000  -0.000000  -0.012183   0.000316
    35  H    0.000019   0.000069  -0.000002   0.000002  -0.006404   0.000259
    36  H   -0.004622  -0.000132  -0.000001  -0.000005  -0.000163  -0.000002
    37  C    0.024549  -0.140896  -0.002521   0.017851  -0.157932  -0.002960
    38  Pt  -0.000512  -0.034682  -0.001517   0.006665  -0.042694  -0.000258
    39  H   -0.000002   0.001086  -0.000963   0.000249  -0.000623  -0.000886
              13         14         15         16         17         18
     1  C   -0.000315  -0.062507   0.009379   0.002063  -0.000516  -0.000238
     2  C   -0.052738   0.009577  -0.056557  -0.000349  -0.000043   0.000083
     3  C    0.000098   0.000723  -0.000263   0.000893  -0.000015  -0.000021
     4  C   -0.004644  -0.000277   0.001467   0.000826  -0.000008  -0.000012
     5  C    0.000029  -0.000017  -0.000046  -0.000256   0.000004   0.000004
     6  H   -0.000003  -0.000035  -0.000005   0.000008  -0.000000  -0.000000
     7  H    0.001208  -0.000005  -0.000039   0.000007  -0.000000  -0.000000
     8  C    0.000054   0.263222   0.001217  -0.002730   0.000199   0.000137
     9  H   -0.000001  -0.030950   0.000039  -0.000122  -0.000007   0.000023
    10  H   -0.000000  -0.023355  -0.000048   0.000020   0.000006  -0.000003
    11  C    0.433217   0.001201   0.259514  -0.001305  -0.000073   0.000057
    12  H   -0.017441   0.000032  -0.030614  -0.000144   0.000002   0.000003
    13  H    0.532982  -0.000047  -0.023366   0.000029   0.000003   0.000000
    14  N   -0.000047   6.326308  -0.008523   0.002474  -0.002805  -0.001705
    15  N   -0.023366  -0.008523   6.328932   0.004856  -0.000532   0.000404
    16  C    0.000029   0.002474   0.004856   5.308034   0.388331   0.389501
    17  H    0.000003  -0.002805  -0.000532   0.388331   0.552053  -0.016465
    18  H    0.000000  -0.001705   0.000404   0.389501  -0.016465   0.561062
    19  H   -0.000006   0.000275  -0.003088   0.402609  -0.016143  -0.013683
    20  C    0.000002   0.252691   0.000694   0.000800  -0.001843  -0.001125
    21  H   -0.000000  -0.030874   0.000059  -0.006260   0.000892  -0.000101
    22  H   -0.000000  -0.017705  -0.000018   0.000335  -0.000134   0.000020
    23  H    0.000000  -0.033865   0.000078  -0.001325   0.000166   0.000357
    24  C    0.000005   0.263428   0.000827  -0.005459  -0.003017   0.000443
    25  H   -0.000000  -0.018955  -0.000034  -0.000032   0.000003  -0.000021
    26  H    0.000001  -0.029397   0.000211  -0.002218   0.002947  -0.000028
    27  H    0.000002  -0.028865   0.000227   0.000024   0.000269   0.000022
    28  C   -0.006774   0.000638   0.254296  -0.004082   0.000307  -0.000267
    29  H    0.003438  -0.000018  -0.018052   0.000481  -0.000005  -0.000016
    30  H   -0.000390   0.000067  -0.028278  -0.004860   0.000291   0.000310
    31  H   -0.000002   0.000070  -0.033595  -0.000056  -0.000043   0.000051
    32  C   -0.011138   0.000821   0.263977  -0.001015  -0.000226   0.000102
    33  H    0.000223   0.000176  -0.031325  -0.003151  -0.000250   0.000176
    34  H    0.004487  -0.000036  -0.018813   0.000065   0.000003   0.000002
    35  H   -0.003911   0.000254  -0.028430  -0.000132   0.000095  -0.000009
    36  H   -0.000004   0.000009   0.000009  -0.000000   0.000000   0.000000
    37  C    0.017085   0.011460   0.004004  -0.067409   0.003322   0.002109
    38  Pt   0.006520   0.182525   0.179698   0.221061  -0.015483  -0.018089
    39  H    0.000254  -0.008011  -0.006599   0.047862  -0.000546  -0.002853
              19         20         21         22         23         24
     1  C    0.000142   0.014356  -0.001117   0.001485  -0.000693   0.006387
     2  C   -0.000487  -0.000538   0.000025   0.000018  -0.000144  -0.002408
     3  C   -0.000009  -0.000202  -0.000036  -0.000063  -0.000038   0.002855
     4  C   -0.000022   0.000053  -0.000008  -0.000001   0.000016   0.000369
     5  C    0.000003  -0.000016   0.000007  -0.000003  -0.000008  -0.000397
     6  H   -0.000000  -0.000007  -0.000002   0.000011  -0.000004   0.000056
     7  H   -0.000000   0.000001  -0.000000  -0.000000   0.000000   0.000002
     8  C    0.000044  -0.042261   0.008689  -0.009196  -0.008210  -0.032601
     9  H    0.000001  -0.003170   0.000448  -0.002914   0.001631   0.004556
    10  H   -0.000000  -0.006781  -0.000361   0.003607  -0.000072  -0.011479
    11  C    0.000366  -0.000193  -0.000008   0.000008  -0.000051  -0.000032
    12  H   -0.000008  -0.000005   0.000000  -0.000000   0.000001   0.000002
    13  H   -0.000006   0.000002  -0.000000  -0.000000   0.000000   0.000005
    14  N    0.000275   0.252691  -0.030874  -0.017705  -0.033865   0.263428
    15  N   -0.003088   0.000694   0.000059  -0.000018   0.000078   0.000827
    16  C    0.402609   0.000800  -0.006260   0.000335  -0.001325  -0.005459
    17  H   -0.016143  -0.001843   0.000892  -0.000134   0.000166  -0.003017
    18  H   -0.013683  -0.001125  -0.000101   0.000020   0.000357   0.000443
    19  H    0.569707   0.000085   0.000529   0.000003  -0.000055   0.000184
    20  C    0.000085   4.796438   0.422660   0.414001   0.426019  -0.040393
    21  H    0.000529   0.422660   0.534252  -0.016563  -0.014986  -0.004762
    22  H    0.000003   0.414001  -0.016563   0.512260  -0.018072  -0.007653
    23  H   -0.000055   0.426019  -0.014986  -0.018072   0.531141   0.005769
    24  C    0.000184  -0.040393  -0.004762  -0.007653   0.005769   4.817676
    25  H    0.000007  -0.008079  -0.001064   0.003904  -0.000090   0.415430
    26  H    0.000054  -0.007942   0.002319  -0.000896   0.000174   0.425565
    27  H   -0.000026   0.006769   0.000144  -0.000318  -0.000133   0.414189
    28  C   -0.003403  -0.000141  -0.000026   0.000003  -0.000026  -0.000071
    29  H   -0.000089   0.000003   0.000000  -0.000000   0.000000   0.000002
    30  H    0.003406  -0.000023   0.000002   0.000000  -0.000000  -0.000005
    31  H    0.000446  -0.000024  -0.000002   0.000000  -0.000006  -0.000005
    32  C   -0.000981  -0.000068  -0.000011   0.000002  -0.000003   0.000135
    33  H    0.000825   0.000001   0.000000   0.000000  -0.000001   0.000084
    34  H   -0.000070   0.000002   0.000000  -0.000000   0.000000   0.000011
    35  H    0.000170  -0.000031  -0.000000   0.000000   0.000000   0.000090
    36  H    0.000000  -0.000001   0.000000   0.000000  -0.000000  -0.000004
    37  C    0.002270  -0.008448   0.000803   0.001007   0.000228  -0.009259
    38  Pt  -0.029864  -0.027719  -0.014744   0.008996  -0.003828  -0.017708
    39  H   -0.001096   0.001344  -0.000844   0.000440  -0.001876   0.000057
              25         26         27         28         29         30
     1  C   -0.003521   0.000142   0.011210  -0.000598   0.000018   0.000047
     2  C    0.000140  -0.000128  -0.000692   0.014088   0.001814  -0.000918
     3  C   -0.000220  -0.000037   0.001433   0.000097  -0.000000  -0.000005
     4  C    0.000004  -0.000007  -0.000137  -0.000048  -0.000053  -0.000017
     5  C   -0.000020   0.000009   0.000110  -0.000057  -0.000005   0.000005
     6  H    0.000003  -0.000000   0.000019   0.000001  -0.000000  -0.000000
     7  H   -0.000000   0.000000   0.000000   0.000003   0.000014  -0.000001
     8  C   -0.011088   0.006033  -0.007433  -0.000242   0.000008  -0.000010
     9  H    0.000309  -0.000170   0.000241  -0.000004  -0.000000   0.000000
    10  H    0.004501   0.000148  -0.003486   0.000002  -0.000000  -0.000000
    11  C    0.000003  -0.000031   0.000078  -0.041529  -0.010159   0.008362
    12  H    0.000000  -0.000000  -0.000002  -0.003154  -0.002900   0.000546
    13  H   -0.000000   0.000001   0.000002  -0.006774   0.003438  -0.000390
    14  N   -0.018955  -0.029397  -0.028865   0.000638  -0.000018   0.000067
    15  N   -0.000034   0.000211   0.000227   0.254296  -0.018052  -0.028278
    16  C   -0.000032  -0.002218   0.000024  -0.004082   0.000481  -0.004860
    17  H    0.000003   0.002947   0.000269   0.000307  -0.000005   0.000291
    18  H   -0.000021  -0.000028   0.000022  -0.000267  -0.000016   0.000310
    19  H    0.000007   0.000054  -0.000026  -0.003403  -0.000089   0.003406
    20  C   -0.008079  -0.007942   0.006769  -0.000141   0.000003  -0.000023
    21  H   -0.001064   0.002319   0.000144  -0.000026   0.000000   0.000002
    22  H    0.003904  -0.000896  -0.000318   0.000003  -0.000000   0.000000
    23  H   -0.000090   0.000174  -0.000133  -0.000026   0.000000  -0.000000
    24  C    0.415430   0.425565   0.414189  -0.000071   0.000002  -0.000005
    25  H    0.525928  -0.017090  -0.017597   0.000001  -0.000000   0.000000
    26  H   -0.017090   0.509969  -0.014421  -0.000002   0.000000  -0.000004
    27  H   -0.017597  -0.014421   0.511499  -0.000027   0.000000  -0.000000
    28  C    0.000001  -0.000002  -0.000027   4.801472   0.414235   0.421624
    29  H   -0.000000   0.000000   0.000000   0.414235   0.513418  -0.016240
    30  H    0.000000  -0.000004  -0.000000   0.421624  -0.016240   0.527705
    31  H    0.000000  -0.000000   0.000000   0.425157  -0.019185  -0.014705
    32  C    0.000011   0.000066   0.000064  -0.040894  -0.007925  -0.004032
    33  H    0.000002  -0.000004   0.000026  -0.008050  -0.000792   0.002323
    34  H   -0.000000   0.000002   0.000001  -0.008181   0.003997  -0.001114
    35  H    0.000000   0.000027   0.000077   0.006944  -0.000303   0.000079
    36  H    0.000000   0.000000  -0.000000  -0.000001   0.000000   0.000000
    37  C    0.002368  -0.000338  -0.006050  -0.008830   0.001046   0.000224
    38  Pt   0.006485  -0.007737   0.000068  -0.025417   0.009262  -0.014396
    39  H    0.000095  -0.000197  -0.000283   0.000875   0.000433  -0.000635
              31         32         33         34         35         36
     1  C   -0.000176  -0.002312  -0.000124   0.000160  -0.000866   0.011397
     2  C   -0.000626   0.005342  -0.000120  -0.002951   0.010499   0.011315
     3  C    0.000014   0.000386  -0.000016  -0.000002  -0.000058  -0.045285
     4  C   -0.000058   0.002700  -0.000075  -0.000254   0.001566  -0.045107
     5  C   -0.000006  -0.000381   0.000017  -0.000010   0.000027   0.448253
     6  H    0.000000   0.000002  -0.000000  -0.000000   0.000001  -0.004660
     7  H   -0.000004   0.000043  -0.000002   0.000001   0.000019  -0.004622
     8  C   -0.000053  -0.000061  -0.000021   0.000004   0.000069  -0.000132
     9  H    0.000001   0.000002  -0.000000   0.000000  -0.000002  -0.000001
    10  H    0.000000   0.000004   0.000001  -0.000000   0.000002  -0.000005
    11  C   -0.007374  -0.030221   0.006371  -0.012183  -0.006404  -0.000163
    12  H    0.001045   0.004357  -0.000209   0.000316   0.000259  -0.000002
    13  H   -0.000002  -0.011138   0.000223   0.004487  -0.003911  -0.000004
    14  N    0.000070   0.000821   0.000176  -0.000036   0.000254   0.000009
    15  N   -0.033595   0.263977  -0.031325  -0.018813  -0.028430   0.000009
    16  C   -0.000056  -0.001015  -0.003151   0.000065  -0.000132  -0.000000
    17  H   -0.000043  -0.000226  -0.000250   0.000003   0.000095   0.000000
    18  H    0.000051   0.000102   0.000176   0.000002  -0.000009   0.000000
    19  H    0.000446  -0.000981   0.000825  -0.000070   0.000170   0.000000
    20  C   -0.000024  -0.000068   0.000001   0.000002  -0.000031  -0.000001
    21  H   -0.000002  -0.000011   0.000000   0.000000  -0.000000   0.000000
    22  H    0.000000   0.000002   0.000000  -0.000000   0.000000   0.000000
    23  H   -0.000006  -0.000003  -0.000001   0.000000   0.000000  -0.000000
    24  C   -0.000005   0.000135   0.000084   0.000011   0.000090  -0.000004
    25  H    0.000000   0.000011   0.000002  -0.000000   0.000000   0.000000
    26  H   -0.000000   0.000066  -0.000004   0.000002   0.000027   0.000000
    27  H    0.000000   0.000064   0.000026   0.000001   0.000077  -0.000000
    28  C    0.425157  -0.040894  -0.008050  -0.008181   0.006944  -0.000001
    29  H   -0.019185  -0.007925  -0.000792   0.003997  -0.000303   0.000000
    30  H   -0.014705  -0.004032   0.002323  -0.001114   0.000079   0.000000
    31  H    0.534229   0.005819   0.000174  -0.000110  -0.000139  -0.000000
    32  C    0.005819   4.810168   0.426727   0.414821   0.414336  -0.000004
    33  H    0.000174   0.426727   0.514533  -0.017271  -0.015150   0.000000
    34  H   -0.000110   0.414821  -0.017271   0.527802  -0.017816   0.000000
    35  H   -0.000139   0.414336  -0.015150  -0.017816   0.512003  -0.000001
    36  H   -0.000000  -0.000004   0.000000   0.000000  -0.000001   0.493027
    37  C   -0.000132  -0.009517  -0.000070   0.002160  -0.006106  -0.003589
    38  Pt  -0.005037  -0.019941  -0.007835   0.006904  -0.000295   0.000087
    39  H   -0.001911  -0.000207  -0.000007   0.000110  -0.000296  -0.000000
              37         38         39
     1  C   -0.134776  -0.074940  -0.004441
     2  C   -0.095018  -0.073390  -0.002585
     3  C    0.251466   0.014053  -0.000027
     4  C    0.256028   0.013299   0.000029
     5  C   -0.274377  -0.003985  -0.000090
     6  H    0.024387  -0.000416  -0.000002
     7  H    0.024549  -0.000512  -0.000002
     8  C   -0.140896  -0.034682   0.001086
     9  H   -0.002521  -0.001517  -0.000963
    10  H    0.017851   0.006665   0.000249
    11  C   -0.157932  -0.042694  -0.000623
    12  H   -0.002960  -0.000258  -0.000886
    13  H    0.017085   0.006520   0.000254
    14  N    0.011460   0.182525  -0.008011
    15  N    0.004004   0.179698  -0.006599
    16  C   -0.067409   0.221061   0.047862
    17  H    0.003322  -0.015483  -0.000546
    18  H    0.002109  -0.018089  -0.002853
    19  H    0.002270  -0.029864  -0.001096
    20  C   -0.008448  -0.027719   0.001344
    21  H    0.000803  -0.014744  -0.000844
    22  H    0.001007   0.008996   0.000440
    23  H    0.000228  -0.003828  -0.001876
    24  C   -0.009259  -0.017708   0.000057
    25  H    0.002368   0.006485   0.000095
    26  H   -0.000338  -0.007737  -0.000197
    27  H   -0.006050   0.000068  -0.000283
    28  C   -0.008830  -0.025417   0.000875
    29  H    0.001046   0.009262   0.000433
    30  H    0.000224  -0.014396  -0.000635
    31  H   -0.000132  -0.005037  -0.001911
    32  C   -0.009517  -0.019941  -0.000207
    33  H   -0.000070  -0.007835  -0.000007
    34  H    0.002160   0.006904   0.000110
    35  H   -0.006106  -0.000295  -0.000296
    36  H   -0.003589   0.000087  -0.000000
    37  C    6.462002   0.238902   0.019698
    38  Pt   0.238902  16.490325   0.291958
    39  H    0.019698   0.291958   0.655215
 Mulliken charges:
               1
     1  C    0.085313
     2  C    0.055272
     3  C   -0.247816
     4  C   -0.251374
     5  C   -0.051838
     6  H    0.127056
     7  H    0.127246
     8  C   -0.055561
     9  H    0.119563
    10  H    0.121323
    11  C   -0.041433
    12  H    0.118601
    13  H    0.121142
    14  N   -0.017996
    15  N   -0.021663
    16  C   -0.669372
    17  H    0.109261
    18  H    0.099767
    19  H    0.087908
    20  C   -0.186911
    21  H    0.120941
    22  H    0.127439
    23  H    0.117905
    24  C   -0.222870
    25  H    0.118617
    26  H    0.132984
    27  H    0.132998
    28  C   -0.187919
    29  H    0.127573
    30  H    0.120643
    31  H    0.116240
    32  C   -0.220945
    33  H    0.132814
    34  H    0.117962
    35  H    0.133429
    36  H    0.139484
    37  C   -0.414738
    38  Pt   0.763681
    39  H    0.015274
 Sum of Mulliken charges =   1.00000
 Mulliken charges with hydrogens summed into heavy atoms:
               1
     1  C    0.085313
     2  C    0.055272
     3  C   -0.120761
     4  C   -0.124128
     5  C    0.087646
     8  C    0.185326
    11  C    0.198309
    14  N   -0.017996
    15  N   -0.021663
    16  C   -0.372435
    20  C    0.179374
    24  C    0.161729
    28  C    0.176537
    32  C    0.163259
    37  C   -0.414738
    38  Pt   0.778955
 Electronic spatial extent (au):  <R**2>=           3979.0410
 Charge=              1.0000 electrons
 Dipole moment (field-independent basis, Debye):
    X=              0.3860    Y=              0.0223    Z=              0.8878  Tot=              0.9684
 Quadrupole moment (field-independent basis, Debye-Ang):
   XX=           -108.6308   YY=            -71.2180   ZZ=           -106.7285
   XY=             -0.3993   XZ=             -0.4684   YZ=              0.0363
 Traceless Quadrupole moment (field-independent basis, Debye-Ang):
   XX=            -13.1050   YY=             24.3078   ZZ=            -11.2027
   XY=             -0.3993   XZ=             -0.4684   YZ=              0.0363
 Octapole moment (field-independent basis, Debye-Ang**2):
  XXX=             39.8296  YYY=              2.3242  ZZZ=             -8.6587  XYY=             34.7365
  XXY=             -0.0346  XXZ=             -2.5256  XZZ=             47.7147  YZZ=              0.3047
  YYZ=             -1.0770  XYZ=             -0.0671
 Hexadecapole moment (field-independent basis, Debye-Ang**3):
 XXXX=          -2449.3026 YYYY=          -1967.3949 ZZZZ=           -418.3592 XXXY=             -0.2547
 XXXZ=            -32.0789 YYYX=              0.5956 YYYZ=             -0.4332 ZZZX=             -7.0869
 ZZZY=             -0.8626 XXYY=           -734.7394 XXZZ=           -537.0005 YYZZ=           -420.5204
 XXYZ=              1.6302 YYXZ=             -5.4501 ZZXY=             -2.2052
 N-N= 1.415038575072D+03 E-N=-4.492547999678D+03  KE= 6.554381289926D+02
 Unable to Open any file for archive entry.
 1\1\GINC-NODE005\Scan\RwB97XD\def2TZVPP\C13H23N2Pt1(1+)\MVANVLEET\06-M
 ay-2024\0\\# wb97xd def2TZVPP SCRF=(solvent=dichloromethane) opt=modre
 dundant\\scan_YPtMeH\\1,1\C,-1.9407951889,-1.2089760555,-0.1328872075\
 C,-1.9381124812,1.2219263413,-0.0973236142\C,-3.3247920127,-1.21285051
 72,-0.0281365357\C,-3.3225215333,1.2252993427,0.0082621278\C,-3.996711
 0948,0.0061953282,0.0515895196\H,-3.8867906755,-2.1381715347,-0.013595
 8927\H,-3.8825826717,2.1509849241,0.0499956947\C,-1.0373543796,-2.3904
 387712,-0.3558364519\H,-0.9973845457,-2.6037676188,-1.4238511159\H,-1.
 3617733721,-3.3007756176,0.1495281092\C,-1.0360833053,2.408303625,-0.2
 928393253\H,-1.0258182446,2.6670977797,-1.3514192837\H,-1.3445708345,3
 .2970061303,0.2585518512\N,0.3857835192,-2.0858293585,0.0759675486\N,0
 .4001712472,2.0874206678,0.08606476\C,2.8328903285,-0.0418358335,0.236
 6385851\H,3.0425577478,-0.5610368036,1.1789739206\H,3.3802621975,-0.57
 22206044,-0.5455534313\H,3.279104898,0.9517623968,0.3166237243\C,1.320
 2219881,-2.9087904472,-0.7210823227\H,2.3318606294,-2.7509772025,-0.35
 93690927\H,1.0568596278,-3.9629227954,-0.6207752819\H,1.2585026637,-2.
 6165829676,-1.7655013597\C,0.536582201,-2.4460823573,1.5098934601\H,0.
 361631999,-3.5149373521,1.6356544241\H,1.5420216295,-2.20469962,1.8428
 774703\H,-0.1925391042,-1.8962438852,2.1019053681\C,1.3033882394,2.913
 5964436,-0.7436653606\H,1.0411756845,3.9664177106,-0.6291246161\H,2.32
 89586361,2.7608094033,-0.4234744231\H,1.2015148707,2.6246865618,-1.785
 7296586\C,0.6113085288,2.4353791078,1.5149256269\H,1.6233429682,2.1674
 846631,1.8069257354\H,0.4657048722,3.5071373042,1.654613623\H,-0.10730
 25315,1.8973071262,2.1303750499\H,-5.0750610458,0.0059213136,0.1388744
 893\C,-1.2818865008,0.0067683213,-0.1457993609\Pt,0.7073784258,-0.0005
 261209,-0.0396190576\H,1.0927440399,0.008490122,-1.4881819859\\Version
 =ES64L-G16RevC.01\State=1-A\HF=-738.013493,-738.0135878,-738.013571,-7
 38.0135457\RMSD=5.646e-09,7.985e-09,6.840e-09,4.708e-09\PG=C01 [X(C13H
 23N2Pt1)]\\@
 The archive entry for this job was punched.


 IF YOU GET CONFUSED, LOGIC OUT YOUR DILEMMA

           --  PICKER X-RAY CORP.    DIGITAL PRINTER MANUAL CA. 1964
 Job cpu time:       7 days  0 hours 48 minutes 40.4 seconds.
 Elapsed time:       0 days  3 hours 33 minutes  7.8 seconds.
 File lengths (MBytes):  RWF=    525 Int=      0 D2E=      0 Chk=     60 Scr=      1
 Normal termination of Gaussian 16 at Mon May  6 21:36:42 2024.
