 Entering Gaussian System, Link 0=/cm/shared/apps//g16/g16
 Input=scan_reverse_YIrMeH.gjf
 Output=scan_reverse_YIrMeH.log
 Initial command:
 /cm/shared/apps//g16/l1.exe "/local/mvanvleet/pbs.14150.josephine/Gau-1403500.inp" -scrdir="/local/mvanvleet/pbs.14150.josephine/"
 Entering Link 1 = /cm/shared/apps//g16/l1.exe PID=   1403503.
  
 Copyright (c) 1988-2019, Gaussian, Inc.  All Rights Reserved.
  
 This is part of the Gaussian(R) 16 program.  It is based on
 the Gaussian(R) 09 system (copyright 2009, Gaussian, Inc.),
 the Gaussian(R) 03 system (copyright 2003, Gaussian, Inc.),
 the Gaussian(R) 98 system (copyright 1998, Gaussian, Inc.),
 the Gaussian(R) 94 system (copyright 1995, Gaussian, Inc.),
 the Gaussian 92(TM) system (copyright 1992, Gaussian, Inc.),
 the Gaussian 90(TM) system (copyright 1990, Gaussian, Inc.),
 the Gaussian 88(TM) system (copyright 1988, Gaussian, Inc.),
 the Gaussian 86(TM) system (copyright 1986, Carnegie Mellon
 University), and the Gaussian 82(TM) system (copyright 1983,
 Carnegie Mellon University). Gaussian is a federally registered
 trademark of Gaussian, Inc.
  
 This software contains proprietary and confidential information,
 including trade secrets, belonging to Gaussian, Inc.
  
 This software is provided under written license and may be
 used, copied, transmitted, or stored only in accord with that
 written license.
  
 The following legend is applicable only to US Government
 contracts under FAR:
  
                    RESTRICTED RIGHTS LEGEND
  
 Use, reproduction and disclosure by the US Government is
 subject to restrictions as set forth in subparagraphs (a)
 and (c) of the Commercial Computer Software - Restricted
 Rights clause in FAR 52.227-19.
  
 Gaussian, Inc.
 340 Quinnipiac St., Bldg. 40, Wallingford CT 06492
  
  
 ---------------------------------------------------------------
 Warning -- This program may not be used in any manner that
 competes with the business of Gaussian, Inc. or will provide
 assistance to any competitor of Gaussian, Inc.  The licensee
 of this program is prohibited from giving any competitor of
 Gaussian, Inc. access to this program.  By using this program,
 the user acknowledges that Gaussian, Inc. is engaged in the
 business of creating and licensing software in the field of
 computational chemistry and represents and warrants to the
 licensee that it is not a competitor of Gaussian, Inc. and that
 it will not use this program in any manner prohibited above.
 ---------------------------------------------------------------
  

 Cite this work as:
 Gaussian 16, Revision C.01,
 M. J. Frisch, G. W. Trucks, H. B. Schlegel, G. E. Scuseria, 
 M. A. Robb, J. R. Cheeseman, G. Scalmani, V. Barone, 
 G. A. Petersson, H. Nakatsuji, X. Li, M. Caricato, A. V. Marenich, 
 J. Bloino, B. G. Janesko, R. Gomperts, B. Mennucci, H. P. Hratchian, 
 J. V. Ortiz, A. F. Izmaylov, J. L. Sonnenberg, D. Williams-Young, 
 F. Ding, F. Lipparini, F. Egidi, J. Goings, B. Peng, A. Petrone, 
 T. Henderson, D. Ranasinghe, V. G. Zakrzewski, J. Gao, N. Rega, 
 G. Zheng, W. Liang, M. Hada, M. Ehara, K. Toyota, R. Fukuda, 
 J. Hasegawa, M. Ishida, T. Nakajima, Y. Honda, O. Kitao, H. Nakai, 
 T. Vreven, K. Throssell, J. A. Montgomery, Jr., J. E. Peralta, 
 F. Ogliaro, M. J. Bearpark, J. J. Heyd, E. N. Brothers, K. N. Kudin, 
 V. N. Staroverov, T. A. Keith, R. Kobayashi, J. Normand, 
 K. Raghavachari, A. P. Rendell, J. C. Burant, S. S. Iyengar, 
 J. Tomasi, M. Cossi, J. M. Millam, M. Klene, C. Adamo, R. Cammi, 
 J. W. Ochterski, R. L. Martin, K. Morokuma, O. Farkas, 
 J. B. Foresman, and D. J. Fox, Gaussian, Inc., Wallingford CT, 2019.
 
 ******************************************
 Gaussian 16:  ES64L-G16RevC.01  3-Jul-2019
                13-Mar-2024 
 ******************************************
 %nprocshared=48
 Will use up to   48 processors via shared memory.
 %chk=scan_YIrMeH_reverse.chk
 %mem=16GB
 ------------------------------------------------------------------
 # wb97xd def2TZVPP SCRF=(solvent=dichloromethane) opt=modredundant
 ------------------------------------------------------------------
 1/18=120,19=15,26=3,38=1/1,3;
 2/9=110,12=2,17=6,18=5,40=1/2;
 3/5=44,7=202,11=2,25=1,30=1,70=2201,71=1,72=9,74=-58/1,2,3;
 4//1;
 5/5=2,38=5,53=9/2;
 6/7=2,8=2,9=2,10=2,28=1/1;
 7//1,2,3,16;
 1/18=20,19=15,26=3/3(2);
 2/9=110/2;
 99//99;
 2/9=110/2;
 3/5=44,7=202,11=2,25=1,30=1,70=2205,71=1,72=9,74=-58/1,2,3;
 4/5=5,16=3,69=1/1;
 5/5=2,38=5,53=9/2;
 7//1,2,3,16;
 1/18=20,19=15,26=3/3(-5);
 2/9=110/2;
 6/7=2,8=2,9=2,10=2,19=2,28=1/1;
 99/9=1/99;
 -----------
 scan_YIrMeH
 -----------
 Symbolic Z-matrix:
 Charge =  0 Multiplicity = 1
 C                    -1.93509  -1.22361  -0.09998 
 C                    -1.93646   1.22146  -0.10046 
 C                    -3.3211   -1.23129   0.09768 
 C                    -3.32245   1.2277    0.09721 
 C                    -3.99878  -0.00216   0.21121 
 H                    -3.88799  -2.16881   0.15945 
 H                    -3.89038   2.16461   0.15858 
 C                    -1.03603  -2.40078  -0.40732 
 H                    -1.00912  -2.54867  -1.50368 
 H                    -1.34708  -3.36291   0.05391 
 C                    -1.03857   2.39945  -0.40812 
 H                    -1.01124   2.54665  -1.50456 
 H                    -1.35086   3.36152   0.05241 
 N                     0.39688  -2.10119   0.00178 
 N                     0.39437   2.10161   0.00184 
 C                     2.84683   0.00164   0.48804 
 H                     2.60384   0.00139   1.57463 
 H                     3.48099  -0.88538   0.29503 
 H                     3.48003   0.88937   0.29518 
 C                     1.30528  -2.9432   -0.80679 
 H                     2.33595  -2.79563  -0.44936 
 H                     1.03118  -4.01614  -0.70908 
 H                     1.23551  -2.62987  -1.85908 
 C                     0.55504  -2.47795   1.43058 
 H                     0.38095  -3.56889   1.55641 
 H                     1.57423  -2.22366   1.76078 
 H                    -0.17606  -1.91265   2.02956 
 C                     1.30232   2.94497  -0.80586 
 H                     1.02682   4.01754  -0.70803 
 H                     2.33292   2.79859  -0.44776 
 H                     1.23369   2.6319   -1.85831 
 C                     0.55099   2.47823   1.43083 
 H                     1.5703    2.22523   1.76162 
 H                     0.37532   3.56891   1.55678 
 H                    -0.17975   1.91181   2.02919 
 H                     2.11288   0.00159  -0.92538 
 Ir                    0.71769   0.0004   -0.12254 
 H                    -5.08059  -0.00272   0.37779 
 C                    -1.24575  -0.00071  -0.17466 
 
 The following ModRedundant input section has been read:
 A      16      37      36 S   4 -5.000                                        
 

 GradGradGradGradGradGradGradGradGradGradGradGradGradGradGradGradGradGrad
 Berny optimization.
 Initialization pass.
                           ----------------------------
                           !    Initial Parameters    !
                           ! (Angstroms and Degrees)  !
 --------------------------                            --------------------------
 ! Name  Definition              Value          Derivative Info.                !
 --------------------------------------------------------------------------------
 ! R1    R(1,3)                  1.4001         estimate D2E/DX2                !
 ! R2    R(1,8)                  1.5128         estimate D2E/DX2                !
 ! R3    R(1,39)                 1.4058         estimate D2E/DX2                !
 ! R4    R(2,4)                  1.4            estimate D2E/DX2                !
 ! R5    R(2,11)                 1.5128         estimate D2E/DX2                !
 ! R6    R(2,39)                 1.4058         estimate D2E/DX2                !
 ! R7    R(3,5)                  1.4082         estimate D2E/DX2                !
 ! R8    R(3,6)                  1.0973         estimate D2E/DX2                !
 ! R9    R(4,5)                  1.4082         estimate D2E/DX2                !
 ! R10   R(4,7)                  1.0973         estimate D2E/DX2                !
 ! R11   R(5,38)                 1.0946         estimate D2E/DX2                !
 ! R12   R(8,9)                  1.1066         estimate D2E/DX2                !
 ! R13   R(8,10)                 1.1114         estimate D2E/DX2                !
 ! R14   R(8,14)                 1.52           estimate D2E/DX2                !
 ! R15   R(11,12)                1.1066         estimate D2E/DX2                !
 ! R16   R(11,13)                1.1114         estimate D2E/DX2                !
 ! R17   R(11,15)                1.5199         estimate D2E/DX2                !
 ! R18   R(14,20)                1.4792         estimate D2E/DX2                !
 ! R19   R(14,24)                1.4861         estimate D2E/DX2                !
 ! R20   R(14,37)                2.1296         estimate D2E/DX2                !
 ! R21   R(15,28)                1.4792         estimate D2E/DX2                !
 ! R22   R(15,32)                1.4861         estimate D2E/DX2                !
 ! R23   R(15,37)                2.1296         estimate D2E/DX2                !
 ! R24   R(16,17)                1.1134         estimate D2E/DX2                !
 ! R25   R(16,18)                1.1074         estimate D2E/DX2                !
 ! R26   R(16,19)                1.1073         estimate D2E/DX2                !
 ! R27   R(16,37)                2.215          estimate D2E/DX2                !
 ! R28   R(20,21)                1.1008         estimate D2E/DX2                !
 ! R29   R(20,22)                1.1117         estimate D2E/DX2                !
 ! R30   R(20,23)                1.1002         estimate D2E/DX2                !
 ! R31   R(24,25)                1.1119         estimate D2E/DX2                !
 ! R32   R(24,26)                1.1011         estimate D2E/DX2                !
 ! R33   R(24,27)                1.1013         estimate D2E/DX2                !
 ! R34   R(28,29)                1.1117         estimate D2E/DX2                !
 ! R35   R(28,30)                1.1008         estimate D2E/DX2                !
 ! R36   R(28,31)                1.1002         estimate D2E/DX2                !
 ! R37   R(32,33)                1.1011         estimate D2E/DX2                !
 ! R38   R(32,34)                1.1119         estimate D2E/DX2                !
 ! R39   R(32,35)                1.1013         estimate D2E/DX2                !
 ! R40   R(36,37)                1.6097         estimate D2E/DX2                !
 ! R41   R(37,39)                1.9641         estimate D2E/DX2                !
 ! A1    A(3,1,8)              127.7893         estimate D2E/DX2                !
 ! A2    A(3,1,39)             119.8488         estimate D2E/DX2                !
 ! A3    A(8,1,39)             112.0058         estimate D2E/DX2                !
 ! A4    A(4,2,11)             127.7941         estimate D2E/DX2                !
 ! A5    A(4,2,39)             119.8496         estimate D2E/DX2                !
 ! A6    A(11,2,39)            112.0009         estimate D2E/DX2                !
 ! A7    A(1,3,5)              118.8827         estimate D2E/DX2                !
 ! A8    A(1,3,6)              121.6052         estimate D2E/DX2                !
 ! A9    A(5,3,6)              119.511          estimate D2E/DX2                !
 ! A10   A(2,4,5)              118.8822         estimate D2E/DX2                !
 ! A11   A(2,4,7)              121.6058         estimate D2E/DX2                !
 ! A12   A(5,4,7)              119.5108         estimate D2E/DX2                !
 ! A13   A(3,5,4)              121.6456         estimate D2E/DX2                !
 ! A14   A(3,5,38)             119.1745         estimate D2E/DX2                !
 ! A15   A(4,5,38)             119.1739         estimate D2E/DX2                !
 ! A16   A(1,8,9)              108.6459         estimate D2E/DX2                !
 ! A17   A(1,8,10)             115.0244         estimate D2E/DX2                !
 ! A18   A(1,8,14)             110.6224         estimate D2E/DX2                !
 ! A19   A(9,8,10)             107.5943         estimate D2E/DX2                !
 ! A20   A(9,8,14)             105.6686         estimate D2E/DX2                !
 ! A21   A(10,8,14)            108.8308         estimate D2E/DX2                !
 ! A22   A(2,11,12)            108.6475         estimate D2E/DX2                !
 ! A23   A(2,11,13)            115.0253         estimate D2E/DX2                !
 ! A24   A(2,11,15)            110.6174         estimate D2E/DX2                !
 ! A25   A(12,11,13)           107.5991         estimate D2E/DX2                !
 ! A26   A(12,11,15)           105.6661         estimate D2E/DX2                !
 ! A27   A(13,11,15)           108.8309         estimate D2E/DX2                !
 ! A28   A(8,14,20)            108.6398         estimate D2E/DX2                !
 ! A29   A(8,14,24)            108.007          estimate D2E/DX2                !
 ! A30   A(8,14,37)            108.7124         estimate D2E/DX2                !
 ! A31   A(20,14,24)           108.4146         estimate D2E/DX2                !
 ! A32   A(20,14,37)           115.9338         estimate D2E/DX2                !
 ! A33   A(24,14,37)           106.8757         estimate D2E/DX2                !
 ! A34   A(11,15,28)           108.6438         estimate D2E/DX2                !
 ! A35   A(11,15,32)           108.0035         estimate D2E/DX2                !
 ! A36   A(11,15,37)           108.7075         estimate D2E/DX2                !
 ! A37   A(28,15,32)           108.4136         estimate D2E/DX2                !
 ! A38   A(28,15,37)           115.9427         estimate D2E/DX2                !
 ! A39   A(32,15,37)           106.8713         estimate D2E/DX2                !
 ! A40   A(17,16,18)           107.1514         estimate D2E/DX2                !
 ! A41   A(17,16,19)           107.1541         estimate D2E/DX2                !
 ! A42   A(17,16,37)            93.3958         estimate D2E/DX2                !
 ! A43   A(18,16,19)           106.5194         estimate D2E/DX2                !
 ! A44   A(18,16,37)           120.1322         estimate D2E/DX2                !
 ! A45   A(19,16,37)           120.1394         estimate D2E/DX2                !
 ! A46   A(14,20,21)           108.7347         estimate D2E/DX2                !
 ! A47   A(14,20,22)           110.483          estimate D2E/DX2                !
 ! A48   A(14,20,23)           108.7711         estimate D2E/DX2                !
 ! A49   A(21,20,22)           109.3708         estimate D2E/DX2                !
 ! A50   A(21,20,23)           109.3762         estimate D2E/DX2                !
 ! A51   A(22,20,23)           110.0784         estimate D2E/DX2                !
 ! A52   A(14,24,25)           109.9312         estimate D2E/DX2                !
 ! A53   A(14,24,26)           109.1642         estimate D2E/DX2                !
 ! A54   A(14,24,27)           108.7919         estimate D2E/DX2                !
 ! A55   A(25,24,26)           109.7297         estimate D2E/DX2                !
 ! A56   A(25,24,27)           109.7642         estimate D2E/DX2                !
 ! A57   A(26,24,27)           109.4399         estimate D2E/DX2                !
 ! A58   A(15,28,29)           110.4823         estimate D2E/DX2                !
 ! A59   A(15,28,30)           108.7367         estimate D2E/DX2                !
 ! A60   A(15,28,31)           108.7734         estimate D2E/DX2                !
 ! A61   A(29,28,30)           109.3704         estimate D2E/DX2                !
 ! A62   A(29,28,31)           110.0764         estimate D2E/DX2                !
 ! A63   A(30,28,31)           109.375          estimate D2E/DX2                !
 ! A64   A(15,32,33)           109.1604         estimate D2E/DX2                !
 ! A65   A(15,32,34)           109.93           estimate D2E/DX2                !
 ! A66   A(15,32,35)           108.7941         estimate D2E/DX2                !
 ! A67   A(33,32,34)           109.732          estimate D2E/DX2                !
 ! A68   A(33,32,35)           109.4413         estimate D2E/DX2                !
 ! A69   A(34,32,35)           109.7633         estimate D2E/DX2                !
 ! A70   A(14,37,15)           161.3402         estimate D2E/DX2                !
 ! A71   A(14,37,16)            97.4274         estimate D2E/DX2                !
 ! A72   A(14,37,36)            99.2312         estimate D2E/DX2                !
 ! A73   A(14,37,39)            81.3959         estimate D2E/DX2                !
 ! A74   A(15,37,16)            97.4287         estimate D2E/DX2                !
 ! A75   A(15,37,36)            99.2067         estimate D2E/DX2                !
 ! A76   A(15,37,39)            81.3926         estimate D2E/DX2                !
 ! A77   A(16,37,36)            45.9192         Scan                            !
 ! A78   A(36,37,39)           148.5617         estimate D2E/DX2                !
 ! A79   A(1,39,2)             120.8332         estimate D2E/DX2                !
 ! A80   A(1,39,37)            119.2926         estimate D2E/DX2                !
 ! A81   A(2,39,37)            119.2919         estimate D2E/DX2                !
 ! A82   L(16,37,39,14,-1)     178.8234         estimate D2E/DX2                !
 ! A83   L(16,37,39,14,-2)     165.4235         estimate D2E/DX2                !
 ! D1    D(8,1,3,5)           -172.2468         estimate D2E/DX2                !
 ! D2    D(8,1,3,6)              7.3718         estimate D2E/DX2                !
 ! D3    D(39,1,3,5)             0.323          estimate D2E/DX2                !
 ! D4    D(39,1,3,6)           179.9415         estimate D2E/DX2                !
 ! D5    D(3,1,8,9)             87.4973         estimate D2E/DX2                !
 ! D6    D(3,1,8,10)           -33.1392         estimate D2E/DX2                !
 ! D7    D(3,1,8,14)          -156.9379         estimate D2E/DX2                !
 ! D8    D(39,1,8,9)           -85.5542         estimate D2E/DX2                !
 ! D9    D(39,1,8,10)          153.8094         estimate D2E/DX2                !
 ! D10   D(39,1,8,14)           30.0106         estimate D2E/DX2                !
 ! D11   D(3,1,39,2)            -2.2594         estimate D2E/DX2                !
 ! D12   D(3,1,39,37)          168.9292         estimate D2E/DX2                !
 ! D13   D(8,1,39,2)           171.4122         estimate D2E/DX2                !
 ! D14   D(8,1,39,37)          -17.3993         estimate D2E/DX2                !
 ! D15   D(11,2,4,5)           172.2535         estimate D2E/DX2                !
 ! D16   D(11,2,4,7)            -7.3623         estimate D2E/DX2                !
 ! D17   D(39,2,4,5)            -0.3239         estimate D2E/DX2                !
 ! D18   D(39,2,4,7)          -179.9397         estimate D2E/DX2                !
 ! D19   D(4,2,11,12)          -87.5354         estimate D2E/DX2                !
 ! D20   D(4,2,11,13)           33.1092         estimate D2E/DX2                !
 ! D21   D(4,2,11,15)          156.9047         estimate D2E/DX2                !
 ! D22   D(39,2,11,12)          85.5235         estimate D2E/DX2                !
 ! D23   D(39,2,11,13)        -153.8319         estimate D2E/DX2                !
 ! D24   D(39,2,11,15)         -30.0363         estimate D2E/DX2                !
 ! D25   D(4,2,39,1)             2.2599         estimate D2E/DX2                !
 ! D26   D(4,2,39,37)         -168.9287         estimate D2E/DX2                !
 ! D27   D(11,2,39,1)         -171.4189         estimate D2E/DX2                !
 ! D28   D(11,2,39,37)          17.3926         estimate D2E/DX2                !
 ! D29   D(1,3,5,4)              1.6247         estimate D2E/DX2                !
 ! D30   D(1,3,5,38)          -179.2744         estimate D2E/DX2                !
 ! D31   D(6,3,5,4)           -178.002          estimate D2E/DX2                !
 ! D32   D(6,3,5,38)             1.0989         estimate D2E/DX2                !
 ! D33   D(2,4,5,3)             -1.6242         estimate D2E/DX2                !
 ! D34   D(2,4,5,38)           179.2749         estimate D2E/DX2                !
 ! D35   D(7,4,5,3)            177.9997         estimate D2E/DX2                !
 ! D36   D(7,4,5,38)            -1.1012         estimate D2E/DX2                !
 ! D37   D(1,8,14,20)         -155.4128         estimate D2E/DX2                !
 ! D38   D(1,8,14,24)           87.1876         estimate D2E/DX2                !
 ! D39   D(1,8,14,37)          -28.4314         estimate D2E/DX2                !
 ! D40   D(9,8,14,20)          -38.0032         estimate D2E/DX2                !
 ! D41   D(9,8,14,24)         -155.4027         estimate D2E/DX2                !
 ! D42   D(9,8,14,37)           88.9782         estimate D2E/DX2                !
 ! D43   D(10,8,14,20)          77.2964         estimate D2E/DX2                !
 ! D44   D(10,8,14,24)         -40.1031         estimate D2E/DX2                !
 ! D45   D(10,8,14,37)        -155.7222         estimate D2E/DX2                !
 ! D46   D(2,11,15,28)         155.4662         estimate D2E/DX2                !
 ! D47   D(2,11,15,32)         -87.1352         estimate D2E/DX2                !
 ! D48   D(2,11,15,37)          28.4743         estimate D2E/DX2                !
 ! D49   D(12,11,15,28)         38.0587         estimate D2E/DX2                !
 ! D50   D(12,11,15,32)        155.4573         estimate D2E/DX2                !
 ! D51   D(12,11,15,37)        -88.9332         estimate D2E/DX2                !
 ! D52   D(13,11,15,28)        -77.2453         estimate D2E/DX2                !
 ! D53   D(13,11,15,32)         40.1533         estimate D2E/DX2                !
 ! D54   D(13,11,15,37)        155.7628         estimate D2E/DX2                !
 ! D55   D(8,14,20,21)        -174.9019         estimate D2E/DX2                !
 ! D56   D(8,14,20,22)         -54.8644         estimate D2E/DX2                !
 ! D57   D(8,14,20,23)          66.0674         estimate D2E/DX2                !
 ! D58   D(24,14,20,21)        -57.7625         estimate D2E/DX2                !
 ! D59   D(24,14,20,22)         62.2749         estimate D2E/DX2                !
 ! D60   D(24,14,20,23)       -176.7932         estimate D2E/DX2                !
 ! D61   D(37,14,20,21)         62.3787         estimate D2E/DX2                !
 ! D62   D(37,14,20,22)       -177.5839         estimate D2E/DX2                !
 ! D63   D(37,14,20,23)        -56.652          estimate D2E/DX2                !
 ! D64   D(8,14,24,25)          62.2767         estimate D2E/DX2                !
 ! D65   D(8,14,24,26)        -177.3136         estimate D2E/DX2                !
 ! D66   D(8,14,24,27)         -57.9442         estimate D2E/DX2                !
 ! D67   D(20,14,24,25)        -55.2681         estimate D2E/DX2                !
 ! D68   D(20,14,24,26)         65.1417         estimate D2E/DX2                !
 ! D69   D(20,14,24,27)       -175.4889         estimate D2E/DX2                !
 ! D70   D(37,14,24,25)        179.0929         estimate D2E/DX2                !
 ! D71   D(37,14,24,26)        -60.4974         estimate D2E/DX2                !
 ! D72   D(37,14,24,27)         58.872          estimate D2E/DX2                !
 ! D73   D(8,14,37,15)          38.5825         estimate D2E/DX2                !
 ! D74   D(8,14,37,16)        -178.8983         estimate D2E/DX2                !
 ! D75   D(8,14,37,36)        -132.4949         estimate D2E/DX2                !
 ! D76   D(8,14,37,39)          15.6782         estimate D2E/DX2                !
 ! D77   D(20,14,37,15)        161.2637         estimate D2E/DX2                !
 ! D78   D(20,14,37,16)        -56.217          estimate D2E/DX2                !
 ! D79   D(20,14,37,36)         -9.8136         estimate D2E/DX2                !
 ! D80   D(20,14,37,39)        138.3594         estimate D2E/DX2                !
 ! D81   D(24,14,37,15)        -77.7659         estimate D2E/DX2                !
 ! D82   D(24,14,37,16)         64.7534         estimate D2E/DX2                !
 ! D83   D(24,14,37,36)        111.1568         estimate D2E/DX2                !
 ! D84   D(24,14,37,39)       -100.6702         estimate D2E/DX2                !
 ! D85   D(11,15,28,29)         54.8652         estimate D2E/DX2                !
 ! D86   D(11,15,28,30)        174.903          estimate D2E/DX2                !
 ! D87   D(11,15,28,31)        -66.0652         estimate D2E/DX2                !
 ! D88   D(32,15,28,29)        -62.2716         estimate D2E/DX2                !
 ! D89   D(32,15,28,30)         57.7661         estimate D2E/DX2                !
 ! D90   D(32,15,28,31)        176.798          estimate D2E/DX2                !
 ! D91   D(37,15,28,29)        177.5877         estimate D2E/DX2                !
 ! D92   D(37,15,28,30)        -62.3745         estimate D2E/DX2                !
 ! D93   D(37,15,28,31)         56.6573         estimate D2E/DX2                !
 ! D94   D(11,15,32,33)        177.3175         estimate D2E/DX2                !
 ! D95   D(11,15,32,34)        -62.273          estimate D2E/DX2                !
 ! D96   D(11,15,32,35)         57.9473         estimate D2E/DX2                !
 ! D97   D(28,15,32,33)        -65.1355         estimate D2E/DX2                !
 ! D98   D(28,15,32,34)         55.274          estimate D2E/DX2                !
 ! D99   D(28,15,32,35)        175.4943         estimate D2E/DX2                !
 ! D100  D(37,15,32,33)         60.511          estimate D2E/DX2                !
 ! D101  D(37,15,32,34)       -179.0795         estimate D2E/DX2                !
 ! D102  D(37,15,32,35)        -58.8592         estimate D2E/DX2                !
 ! D103  D(11,15,37,14)        -38.619          estimate D2E/DX2                !
 ! D104  D(11,15,37,16)        178.8619         estimate D2E/DX2                !
 ! D105  D(11,15,37,36)        132.459          estimate D2E/DX2                !
 ! D106  D(11,15,37,39)        -15.7145         estimate D2E/DX2                !
 ! D107  D(28,15,37,14)       -161.3079         estimate D2E/DX2                !
 ! D108  D(28,15,37,16)         56.173          estimate D2E/DX2                !
 ! D109  D(28,15,37,36)          9.77           estimate D2E/DX2                !
 ! D110  D(28,15,37,39)       -138.4034         estimate D2E/DX2                !
 ! D111  D(32,15,37,14)         77.7205         estimate D2E/DX2                !
 ! D112  D(32,15,37,16)        -64.7986         estimate D2E/DX2                !
 ! D113  D(32,15,37,36)       -111.2015         estimate D2E/DX2                !
 ! D114  D(32,15,37,39)        100.625          estimate D2E/DX2                !
 ! D115  D(17,16,37,14)        -84.3337         estimate D2E/DX2                !
 ! D116  D(17,16,37,15)         84.3436         estimate D2E/DX2                !
 ! D117  D(17,16,37,36)        179.9873         estimate D2E/DX2                !
 ! D118  D(18,16,37,14)         27.7534         estimate D2E/DX2                !
 ! D119  D(18,16,37,15)       -163.5694         estimate D2E/DX2                !
 ! D120  D(18,16,37,36)        -67.9257         estimate D2E/DX2                !
 ! D121  D(19,16,37,14)        163.5739         estimate D2E/DX2                !
 ! D122  D(19,16,37,15)        -27.7488         estimate D2E/DX2                !
 ! D123  D(19,16,37,36)         67.8949         estimate D2E/DX2                !
 ! D124  D(14,37,39,1)           0.7317         estimate D2E/DX2                !
 ! D125  D(14,37,39,2)         172.0574         estimate D2E/DX2                !
 ! D126  D(15,37,39,1)        -172.0332         estimate D2E/DX2                !
 ! D127  D(15,37,39,2)          -0.7075         estimate D2E/DX2                !
 ! D128  D(36,37,39,1)          94.3755         estimate D2E/DX2                !
 ! D129  D(36,37,39,2)         -94.2988         estimate D2E/DX2                !
 --------------------------------------------------------------------------------
 Trust Radius=3.00D-01 FncErr=1.00D-07 GrdErr=1.00D-06 EigMax=2.50D+02 EigMin=1.00D-04
 Number of optimizations in scan=   5
 Number of steps in this run=    234 maximum allowed number of steps=    234.
 GradGradGradGradGradGradGradGradGradGradGradGradGradGradGradGradGradGrad

                          Input orientation:                          
 ---------------------------------------------------------------------
 Center     Atomic      Atomic             Coordinates (Angstroms)
 Number     Number       Type             X           Y           Z
 ---------------------------------------------------------------------
      1          6           0       -1.935087   -1.223609   -0.099984
      2          6           0       -1.936457    1.221458   -0.100464
      3          6           0       -3.321100   -1.231294    0.097682
      4          6           0       -3.322452    1.227696    0.097207
      5          6           0       -3.998784   -0.002161    0.211211
      6          1           0       -3.887987   -2.168814    0.159451
      7          1           0       -3.890385    2.164609    0.158576
      8          6           0       -1.036031   -2.400780   -0.407319
      9          1           0       -1.009123   -2.548667   -1.503682
     10          1           0       -1.347079   -3.362905    0.053913
     11          6           0       -1.038570    2.399446   -0.408124
     12          1           0       -1.011237    2.546649   -1.504563
     13          1           0       -1.350861    3.361517    0.052409
     14          7           0        0.396878   -2.101188    0.001784
     15          7           0        0.394366    2.101605    0.001839
     16          6           0        2.846832    0.001642    0.488040
     17          1           0        2.603837    0.001385    1.574634
     18          1           0        3.480995   -0.885384    0.295026
     19          1           0        3.480034    0.889373    0.295184
     20          6           0        1.305280   -2.943197   -0.806795
     21          1           0        2.335950   -2.795628   -0.449358
     22          1           0        1.031183   -4.016143   -0.709078
     23          1           0        1.235509   -2.629873   -1.859085
     24          6           0        0.555036   -2.477954    1.430585
     25          1           0        0.380945   -3.568887    1.556409
     26          1           0        1.574231   -2.223658    1.760785
     27          1           0       -0.176057   -1.912651    2.029563
     28          6           0        1.302315    2.944969   -0.805859
     29          1           0        1.026817    4.017543   -0.708028
     30          1           0        2.332920    2.798592   -0.447758
     31          1           0        1.233694    2.631904   -1.858307
     32          6           0        0.550995    2.478232    1.430833
     33          1           0        1.570305    2.225225    1.761624
     34          1           0        0.375323    3.568906    1.556777
     35          1           0       -0.179747    1.911812    2.029185
     36          1           0        2.112882    0.001591   -0.925384
     37         77           0        0.717693    0.000401   -0.122540
     38          1           0       -5.080591   -0.002723    0.377794
     39          6           0       -1.245747   -0.000714   -0.174660
 ---------------------------------------------------------------------
                    Distance matrix (angstroms):
                    1          2          3          4          5
     1  C    0.000000
     2  C    2.445067   0.000000
     3  C    1.400059   2.823560   0.000000
     4  C    2.823573   1.400034   2.458990   0.000000
     5  C    2.418186   2.418176   1.408159   1.408179   0.000000
     6  H    2.185072   3.920455   1.097324   3.443833   2.170102
     7  H    3.920467   2.185056   3.443827   1.097324   2.170118
     8  C    1.512775   3.745068   2.616155   4.318345   3.861847
     9  H    2.140924   4.128294   3.105653   4.709061   4.285280
    10  H    2.223966   4.624671   2.905588   4.997759   4.283794
    11  C    3.745026   1.512783   4.318340   2.616194   3.861885
    12  H    4.128097   2.140948   4.709088   3.105965   4.285528
    13  H    4.624708   2.223994   4.997780   2.905576   4.283812
    14  N    2.493704   4.061389   3.819591   4.992393   4.875615
    15  N    4.061252   2.493564   4.992203   3.819365   4.875391
    16  C    4.971293   4.971332   6.302055   6.302065   6.851212
    17  H    4.990670   4.990872   6.229428   6.229569   6.741924
    18  H    5.440990   5.826146   6.813743   7.126789   7.532210
    19  H    5.826181   5.441066   7.126827   6.813771   7.532238
    20  C    3.735845   5.324670   5.015185   6.295194   6.149725
    21  H    4.564544   5.874705   5.894795   6.964437   6.954758
    22  H    4.119223   6.050600   5.229590   6.863095   6.500735
    23  H    3.889047   5.290261   5.152441   6.283543   6.211989
    24  C    3.180682   4.715644   4.284300   5.526722   5.324820
    25  H    3.688898   5.573417   4.614907   6.233107   5.806300
    26  H    4.096080   5.259087   5.264500   6.217463   6.196348
    27  H    2.846741   4.178356   3.753359   4.847224   4.644310
    28  C    5.325043   3.736003   6.295517   5.015280   6.149932
    29  H    6.050807   4.119250   6.863224   5.229512   6.500745
    30  H    5.874941   4.564597   6.964584   5.894738   6.954778
    31  H    5.291300   3.889631   6.284612   5.153086   6.212892
    32  C    4.714619   3.179901   5.525486   4.283222   5.323562
    33  H    5.258119   4.095400   6.216275   5.263499   6.195142
    34  H    5.572347   3.687993   6.231727   4.613584   5.804815
    35  H    4.176775   2.845703   4.845402   3.751953   4.642561
    36  H    4.309112   4.308795   5.665230   5.664970   6.216456
    37  Ir   2.921635   2.921639   4.228170   4.228157   4.728271
    38  H    3.407791   3.407775   2.164177   2.164189   1.094558
    39  C    1.405788   1.405805   2.428083   2.428086   2.779948
                    6          7          8          9         10
     6  H    0.000000
     7  H    4.333424   0.000000
     8  C    2.916966   5.413903   0.000000
     9  H    3.346365   5.768860   1.106620   0.000000
    10  H    2.809485   6.085456   1.111383   1.789777   0.000000
    11  C    5.413901   2.917043   4.800227   5.068031   5.789072
    12  H    5.768902   3.346861   5.067703   5.095316   6.120823
    13  H    6.085477   2.809456   5.789174   6.121150   6.724424
    14  N    4.288299   6.049977   1.519983   2.107962   2.153145
    15  N    6.049783   4.288079   4.741826   5.085412   5.735523
    16  C    7.083547   7.083577   4.652947   5.033827   5.394213
    17  H    6.989728   6.989969   4.790321   5.388161   5.407475
    18  H    7.481141   7.978615   4.815935   5.114980   5.431992
    19  H    7.978639   7.481174   5.631470   5.933681   6.437476
    20  C    5.338850   7.349595   2.436295   2.449033   2.819925
    21  H    6.284977   7.983782   3.395280   3.515977   3.760290
    22  H    5.325899   7.948355   2.640801   2.635854   2.581667
    23  H    5.526054   7.302930   2.705550   2.274044   3.296461
    24  C    4.631610   6.552340   2.432147   3.325886   2.509264
    25  H    4.704836   7.284996   2.688591   3.512449   2.299128
    26  H    5.692373   7.189296   3.397868   4.175654   3.570062
    27  H    4.164296   5.824162   2.629869   3.685422   2.716196
    28  C    7.349956   5.338842   5.848396   6.000812   6.895490
    29  H    7.948512   5.325715   6.748380   6.920494   7.790183
    30  H    7.983954   6.284831   6.195557   6.393544   7.194311
    31  H    7.304099   5.526515   5.708321   5.656351   6.801082
    32  C    6.551032   4.630642   5.449973   6.026198   6.294242
    33  H    7.188011   5.691447   5.735610   6.332908   6.531050
    34  H    7.283528   4.703539   6.441020   6.979098   7.298992
    35  H    5.822239   4.163162   5.026751   5.750208   5.752131
    36  H    6.472863   6.472467   3.994424   4.072487   4.924447
    37  Ir   5.098755   5.098745   2.987024   3.374492   3.950474
    38  H    2.482324   2.482332   4.767133   5.157388   5.033373
    39  C    3.434199   3.434206   2.420419   2.883463   3.371476
                   11         12         13         14         15
    11  C    0.000000
    12  H    1.106615   0.000000
    13  H    1.111394   1.789837   0.000000
    14  N    4.741756   5.084708   5.735704   0.000000
    15  N    1.519897   2.107850   2.153080   4.202794   0.000000
    16  C    4.652841   5.033113   5.394364   3.265059   3.265092
    17  H    4.790528   5.387818   5.408077   3.430064   3.430214
    18  H    5.631252   5.932749   6.437535   3.328054   4.305269
    19  H    4.815885   5.114408   5.432126   4.305275   3.328199
    20  C    5.847770   5.999295   6.895124   1.479179   5.189767
    21  H    6.194989   6.391951   7.194080   2.108500   5.287365
    22  H    6.747907   6.919141   7.789985   2.138860   6.191752
    23  H    5.707081   5.654196   6.799990   2.108468   5.153392
    24  C    5.450639   6.026188   6.295335   1.486082   4.799948
    25  H    6.441693   6.979076   7.300114   2.138049   5.879741
    26  H    5.736200   6.332691   6.532144   2.120199   4.816002
    27  H    5.027964   5.750907   5.753795   2.115583   4.533354
    28  C    2.436295   2.449361   2.819482   5.189972   1.479193
    29  H    2.640834   2.636600   2.581083   6.191892   2.138860
    30  H    3.395267   3.516205   3.759960   5.287550   2.108535
    31  H    2.705597   2.274229   3.295921   5.153868   2.108514
    32  C    2.432012   3.325928   2.509443   4.799690   1.486069
    33  H    3.397703   4.175602   3.570124   4.815789   2.120131
    34  H    2.688413   3.512743   2.299097   5.879493   2.138028
    35  H    2.629798   3.685346   2.716763   4.532882   2.115599
    36  H    3.993610   4.070981   4.923688   2.868098   2.867595
    37  Ir   2.986877   3.373805   3.950522   2.129567   2.129570
    38  H    4.767181   5.157733   5.033376   5.877722   5.877474
    39  C    2.420371   2.883174   3.371529   2.672329   2.672241
                   16         17         18         19         20
    16  C    0.000000
    17  H    1.113433   0.000000
    18  H    1.107353   1.786942   0.000000
    19  H    1.107342   1.786963   1.774757   0.000000
    20  C    3.567219   4.003501   3.190978   4.542302   0.000000
    21  H    2.994067   3.462888   2.348248   3.929696   1.100826
    22  H    4.568618   4.881508   4.100178   5.574003   1.111707
    23  H    3.876884   4.537209   3.567302   4.697218   1.100161
    24  C    3.505583   3.219544   3.519518   4.602569   2.405241
    25  H    4.468857   4.205761   4.289823   5.574148   2.613545
    26  H    2.862054   2.458772   2.752303   3.933324   2.680025
    27  H    3.895981   3.405629   4.175874   4.922034   3.361742
    28  C    3.566915   4.003173   4.542048   3.190647   5.888167
    29  H    4.568424   4.881297   5.573850   4.100019   6.967008
    30  H    2.993786   3.462345   3.929565   2.347967   5.844065
    31  H    3.876317   4.536740   4.696650   3.566508   5.673848
    32  C    3.506170   3.220188   4.603137   3.520432   5.913359
    33  H    2.862842   2.459394   3.934150   2.753546   5.777508
    34  H    4.469444   4.206400   5.574756   4.290774   6.989905
    35  H    3.896672   3.406565   4.922666   4.176857   5.815427
    36  H    1.592624   2.547769   2.036629   2.036431   3.055824
    37  Ir   2.214959   2.537310   2.931691   2.931773   3.078674
    38  H    7.928191   7.777074   8.607363   8.607379   7.129445
    39  C    4.145887   4.228396   4.831701   4.831772   3.945319
                   21         22         23         24         25
    21  H    0.000000
    22  H    1.805417   0.000000
    23  H    1.796044   1.812736   0.000000
    24  C    2.608976   2.677853   3.362744   0.000000
    25  H    2.905697   2.399017   3.643848   1.111878   0.000000
    26  H    2.406677   3.099698   3.658305   1.101116   1.809790
    27  H    3.637977   3.658177   4.198631   1.101290   1.810316
    28  C    5.843796   6.967063   5.673854   5.913392   6.989961
    29  H    6.942625   8.033688   6.749565   6.854760   7.943472
    30  H    5.594221   6.942869   5.715276   5.876307   6.954975
    31  H    5.714736   6.749687   5.261777   6.114576   7.130026
    32  C    5.876631   6.854686   6.114316   4.956188   6.050813
    33  H    5.539280   6.734219   6.065773   4.822889   5.918482
    34  H    6.955281   7.943376   7.129719   6.050846   7.137795
    35  H    5.884887   6.641166   6.143980   4.490910   5.529553
    36  H    2.846189   4.166419   2.926804   3.758406   4.680514
    37  Ir   3.247052   4.071233   3.194067   2.929317   3.958799
    38  H    7.968035   7.392065   7.197129   6.244633   6.628351
    39  C    4.551435   4.646901   3.988282   3.457796   4.286559
                   26         27         28         29         30
    26  H    0.000000
    27  H    1.797909   0.000000
    28  C    5.777223   5.815641   0.000000
    29  H    6.734040   6.641424   1.111704   0.000000
    30  H    5.538616   5.884548   1.100822   1.805405   0.000000
    31  H    6.065499   6.144584   1.100166   1.812715   1.796032
    32  C    4.823241   4.490762   2.405226   2.677799   2.609021
    33  H    4.448886   4.499288   2.679891   3.099510   2.406596
    34  H    5.918851   5.529468   2.613553   2.398971   2.905810
    35  H    4.500066   3.824465   3.361755   3.658174   3.638011
    36  H    3.529501   4.199437   3.055288   4.165892   2.846008
    37  Ir   3.037599   3.014980   3.078829   4.071337   3.247245
    38  H    7.150656   5.516395   7.129616   7.392022   7.968002
    39  C    4.079180   3.107787   3.945641   4.647087   4.551654
                   31         32         33         34         35
    31  H    0.000000
    32  C    3.362757   0.000000
    33  H    3.658223   1.101103   0.000000
    34  H    3.643840   1.111887   1.809812   0.000000
    35  H    4.198683   1.101291   1.797915   1.810313   0.000000
    36  H    2.926067   3.758325   3.529725   4.680382   4.199354
    37  Ir   3.194363   2.929232   3.037575   3.958731   3.014765
    38  H    7.198028   6.243300   7.149347   6.626729   5.514600
    39  C    3.989107   3.457031   4.078498   4.285782   3.106613
                   36         37         38         39
    36  H    0.000000
    37  Ir   1.609693   0.000000
    38  H    7.310564   5.819832   0.000000
    39  C    3.441509   1.964132   3.874434   0.000000
 Stoichiometry    C13H23IrN2
 Framework group  C1[X(C13H23IrN2)]
 Deg. of freedom   111
 Full point group                 C1      NOp   1
 Largest Abelian subgroup         C1      NOp   1
 Largest concise Abelian subgroup C1      NOp   1
                         Standard orientation:                         
 ---------------------------------------------------------------------
 Center     Atomic      Atomic             Coordinates (Angstroms)
 Number     Number       Type             X           Y           Z
 ---------------------------------------------------------------------
      1          6           0       -1.935087   -1.223609   -0.099984
      2          6           0       -1.936457    1.221458   -0.100464
      3          6           0       -3.321100   -1.231294    0.097682
      4          6           0       -3.322452    1.227696    0.097207
      5          6           0       -3.998784   -0.002161    0.211211
      6          1           0       -3.887987   -2.168814    0.159451
      7          1           0       -3.890385    2.164609    0.158576
      8          6           0       -1.036031   -2.400780   -0.407319
      9          1           0       -1.009123   -2.548667   -1.503682
     10          1           0       -1.347079   -3.362905    0.053913
     11          6           0       -1.038570    2.399446   -0.408124
     12          1           0       -1.011237    2.546649   -1.504563
     13          1           0       -1.350861    3.361517    0.052409
     14          7           0        0.396878   -2.101188    0.001784
     15          7           0        0.394366    2.101605    0.001839
     16          6           0        2.846832    0.001642    0.488040
     17          1           0        2.603837    0.001385    1.574634
     18          1           0        3.480995   -0.885384    0.295026
     19          1           0        3.480034    0.889373    0.295184
     20          6           0        1.305280   -2.943197   -0.806795
     21          1           0        2.335950   -2.795628   -0.449358
     22          1           0        1.031183   -4.016143   -0.709078
     23          1           0        1.235509   -2.629873   -1.859085
     24          6           0        0.555036   -2.477954    1.430585
     25          1           0        0.380945   -3.568887    1.556409
     26          1           0        1.574231   -2.223658    1.760785
     27          1           0       -0.176057   -1.912651    2.029563
     28          6           0        1.302315    2.944969   -0.805859
     29          1           0        1.026817    4.017543   -0.708028
     30          1           0        2.332920    2.798592   -0.447758
     31          1           0        1.233694    2.631904   -1.858307
     32          6           0        0.550995    2.478232    1.430833
     33          1           0        1.570305    2.225225    1.761624
     34          1           0        0.375323    3.568906    1.556777
     35          1           0       -0.179747    1.911812    2.029185
     36          1           0        2.112882    0.001590   -0.925384
     37         77           0        0.717693    0.000401   -0.122540
     38          1           0       -5.080591   -0.002723    0.377794
     39          6           0       -1.245747   -0.000714   -0.174660
 ---------------------------------------------------------------------
 Rotational constants (GHZ):           0.5300706           0.4721330           0.2807163
 Standard basis: def2TZVPP (5D, 7F)
 There are   956 symmetry adapted cartesian basis functions of A   symmetry.
 There are   843 symmetry adapted basis functions of A   symmetry.
   843 basis functions,  1256 primitive gaussians,   956 cartesian basis functions
    66 alpha electrons       66 beta electrons
       nuclear repulsion energy      1385.6993685804 Hartrees.
 NAtoms=   39 NActive=   39 NUniq=   39 SFac= 1.00D+00 NAtFMM=   60 NAOKFM=F Big=F
 Integral buffers will be    131072 words long.
 Raffenetti 2 integral format.
 Two-electron integral symmetry is turned on.
 Nuclear repulsion after empirical dispersion term =     1385.6554784528 Hartrees.
 ------------------------------------------------------------------------------
 Polarizable Continuum Model (PCM)
 =================================
 Model                : PCM.
 Atomic radii         : UFF (Universal Force Field).
 Polarization charges : Total charges.
 Charge compensation  : None.
 Solution method      : On-the-fly selection.
 Cavity type          : Scaled VdW (van der Waals Surface) (Alpha=1.100).
 Cavity algorithm     : GePol (No added spheres)
                        Default sphere list used, NSphG=   39.
                        Lebedev-Laikov grids with approx.  5.0 points / Ang**2.
                        Smoothing algorithm: York/Karplus (Gamma=1.0000).
                        Polarization charges: spherical gaussians, with
                                              point-specific exponents (IZeta= 3).
                        Self-potential: point-specific (ISelfS= 7).
                        Self-field    : sphere-specific E.n sum rule (ISelfD= 2).
 1st derivatives      : Analytical E(r).r(x)/FMM algorithm (CHGder, D1EAlg=3).
                        Cavity 1st derivative terms included.
 Solvent              : Dichloromethane, Eps=   8.930000 Eps(inf)=   2.028346
 ------------------------------------------------------------------------------
 One-electron integrals computed using PRISM.
   1 Symmetry operations used in ECPInt.
 ECPInt:  NShTT=   51040 NPrTT=  129700 LenC2=   46716 LenP2D=   91651.
 LDataN:  DoStor=T MaxTD1= 9 Len=  602
 Number of processors reduced to  41 by ecpmxn.
 NBasis=   843 RedAO= T EigKep=  6.67D-06  NBF=   843
 NBsUse=   843 1.00D-06 EigRej= -1.00D+00 NBFU=   843
 Defaulting to unpruned grid for atomic number  77.
 ExpMin= 5.00D-02 ExpMax= 1.97D+04 ExpMxC= 6.73D+02 IAcc=3 IRadAn=         5 AccDes= 0.00D+00
 Harris functional with IExCor= 4639 and IRadAn=       5 diagonalized for initial guess.
 HarFok:  IExCor= 4639 AccDes= 0.00D+00 IRadAn=         5 IDoV= 1 UseB2=F ITyADJ=14
 ICtDFT=  3500011 ScaDFX=  1.000000  1.000000  1.000000  1.000000
 Defaulting to unpruned grid for atomic number  77.
 FoFCou: FMM=F IPFlag=           0 FMFlag=      100000 FMFlg1=           0
         NFxFlg=           0 DoJE=T BraDBF=F KetDBF=T FulRan=T
         wScrn=  0.000000 ICntrl=       500 IOpCl=  0 I1Cent=   200000004 NGrid=           0
         NMat0=    1 NMatS0=      1 NMatT0=    0 NMatD0=    1 NMtDS0=    0 NMtDT0=    0
 Petite list used in FoFCou.
 Requested convergence on RMS density matrix=1.00D-08 within 128 cycles.
 Requested convergence on MAX density matrix=1.00D-06.
 Requested convergence on             energy=1.00D-06.
 No special actions if energy rises.
 Defaulting to unpruned grid for atomic number  77.
 Defaulting to unpruned grid for atomic number  77.
 Defaulting to unpruned grid for atomic number  77.
 Defaulting to unpruned grid for atomic number  77.
 Defaulting to unpruned grid for atomic number  77.
 Defaulting to unpruned grid for atomic number  77.
 Defaulting to unpruned grid for atomic number  77.
 Defaulting to unpruned grid for atomic number  77.
 Defaulting to unpruned grid for atomic number  77.
 Defaulting to unpruned grid for atomic number  77.
 Defaulting to unpruned grid for atomic number  77.
 Defaulting to unpruned grid for atomic number  77.
 Defaulting to unpruned grid for atomic number  77.
 Defaulting to unpruned grid for atomic number  77.
 Defaulting to unpruned grid for atomic number  77.
 Defaulting to unpruned grid for atomic number  77.
 Defaulting to unpruned grid for atomic number  77.
 Defaulting to unpruned grid for atomic number  77.
 Defaulting to unpruned grid for atomic number  77.
 Defaulting to unpruned grid for atomic number  77.
 Defaulting to unpruned grid for atomic number  77.
 Defaulting to unpruned grid for atomic number  77.
 Defaulting to unpruned grid for atomic number  77.
 Defaulting to unpruned grid for atomic number  77.
 Defaulting to unpruned grid for atomic number  77.
 Defaulting to unpruned grid for atomic number  77.
 Defaulting to unpruned grid for atomic number  77.
 Defaulting to unpruned grid for atomic number  77.
 Defaulting to unpruned grid for atomic number  77.
 Defaulting to unpruned grid for atomic number  77.
 Defaulting to unpruned grid for atomic number  77.
 Defaulting to unpruned grid for atomic number  77.
 Defaulting to unpruned grid for atomic number  77.
 Defaulting to unpruned grid for atomic number  77.
 Defaulting to unpruned grid for atomic number  77.
 Defaulting to unpruned grid for atomic number  77.
 Defaulting to unpruned grid for atomic number  77.
 Defaulting to unpruned grid for atomic number  77.
 Defaulting to unpruned grid for atomic number  77.
 Defaulting to unpruned grid for atomic number  77.
 Defaulting to unpruned grid for atomic number  77.
 Defaulting to unpruned grid for atomic number  77.
 Defaulting to unpruned grid for atomic number  77.
 Defaulting to unpruned grid for atomic number  77.
 Defaulting to unpruned grid for atomic number  77.
 Defaulting to unpruned grid for atomic number  77.
 Defaulting to unpruned grid for atomic number  77.
 Defaulting to unpruned grid for atomic number  77.
 Inv3:  Mode=1 IEnd=    18125292.
 Iteration    1 A*A^-1 deviation from unit magnitude is 3.55D-15 for   1390.
 Iteration    1 A*A^-1 deviation from orthogonality  is 3.26D-15 for   1705    666.
 Iteration    1 A^-1*A deviation from unit magnitude is 3.33D-15 for   1390.
 Iteration    1 A^-1*A deviation from orthogonality  is 2.28D-15 for   1599    744.
 Error on total polarization charges =  0.01819
 SCF Done:  E(RwB97XD) =  -723.159310784     A.U. after   17 cycles
            NFock= 17  Conv=0.25D-08     -V/T= 2.1121

 **********************************************************************

            Population analysis using the SCF Density.

 **********************************************************************

 Orbital symmetries:
       Occupied  (A) (A) (A) (A) (A) (A) (A) (A) (A) (A) (A) (A)
                 (A) (A) (A) (A) (A) (A) (A) (A) (A) (A) (A) (A)
                 (A) (A) (A) (A) (A) (A) (A) (A) (A) (A) (A) (A)
                 (A) (A) (A) (A) (A) (A) (A) (A) (A) (A) (A) (A)
                 (A) (A) (A) (A) (A) (A) (A) (A) (A) (A) (A) (A)
                 (A) (A) (A) (A) (A) (A)
       Virtual   (A) (A) (A) (A) (A) (A) (A) (A) (A) (A) (A) (A)
                 (A) (A) (A) (A) (A) (A) (A) (A) (A) (A) (A) (A)
                 (A) (A) (A) (A) (A) (A) (A) (A) (A) (A) (A) (A)
                 (A) (A) (A) (A) (A) (A) (A) (A) (A) (A) (A) (A)
                 (A) (A) (A) (A) (A) (A) (A) (A) (A) (A) (A) (A)
                 (A) (A) (A) (A) (A) (A) (A) (A) (A) (A) (A) (A)
                 (A) (A) (A) (A) (A) (A) (A) (A) (A) (A) (A) (A)
                 (A) (A) (A) (A) (A) (A) (A) (A) (A) (A) (A) (A)
                 (A) (A) (A) (A) (A) (A) (A) (A) (A) (A) (A) (A)
                 (A) (A) (A) (A) (A) (A) (A) (A) (A) (A) (A) (A)
                 (A) (A) (A) (A) (A) (A) (A) (A) (A) (A) (A) (A)
                 (A) (A) (A) (A) (A) (A) (A) (A) (A) (A) (A) (A)
                 (A) (A) (A) (A) (A) (A) (A) (A) (A) (A) (A) (A)
                 (A) (A) (A) (A) (A) (A) (A) (A) (A) (A) (A) (A)
                 (A) (A) (A) (A) (A) (A) (A) (A) (A) (A) (A) (A)
                 (A) (A) (A) (A) (A) (A) (A) (A) (A) (A) (A) (A)
                 (A) (A) (A) (A) (A) (A) (A) (A) (A) (A) (A) (A)
                 (A) (A) (A) (A) (A) (A) (A) (A) (A) (A) (A) (A)
                 (A) (A) (A) (A) (A) (A) (A) (A) (A) (A) (A) (A)
                 (A) (A) (A) (A) (A) (A) (A) (A) (A) (A) (A) (A)
                 (A) (A) (A) (A) (A) (A) (A) (A) (A) (A) (A) (A)
                 (A) (A) (A) (A) (A) (A) (A) (A) (A) (A) (A) (A)
                 (A) (A) (A) (A) (A) (A) (A) (A) (A) (A) (A) (A)
                 (A) (A) (A) (A) (A) (A) (A) (A) (A) (A) (A) (A)
                 (A) (A) (A) (A) (A) (A) (A) (A) (A) (A) (A) (A)
                 (A) (A) (A) (A) (A) (A) (A) (A) (A) (A) (A) (A)
                 (A) (A) (A) (A) (A) (A) (A) (A) (A) (A) (A) (A)
                 (A) (A) (A) (A) (A) (A) (A) (A) (A) (A) (A) (A)
                 (A) (A) (A) (A) (A) (A) (A) (A) (A) (A) (A) (A)
                 (A) (A) (A) (A) (A) (A) (A) (A) (A) (A) (A) (A)
                 (A) (A) (A) (A) (A) (A) (A) (A) (A) (A) (A) (A)
                 (A) (A) (A) (A) (A) (A) (A) (A) (A) (A) (A) (A)
                 (A) (A) (A) (A) (A) (A) (A) (A) (A) (A) (A) (A)
                 (A) (A) (A) (A) (A) (A) (A) (A) (A) (A) (A) (A)
                 (A) (A) (A) (A) (A) (A) (A) (A) (A) (A) (A) (A)
                 (A) (A) (A) (A) (A) (A) (A) (A) (A) (A) (A) (A)
                 (A) (A) (A) (A) (A) (A) (A) (A) (A) (A) (A) (A)
                 (A) (A) (A) (A) (A) (A) (A) (A) (A) (A) (A) (A)
                 (A) (A) (A) (A) (A) (A) (A) (A) (A) (A) (A) (A)
                 (A) (A) (A) (A) (A) (A) (A) (A) (A) (A) (A) (A)
                 (A) (A) (A) (A) (A) (A) (A) (A) (A) (A) (A) (A)
                 (A) (A) (A) (A) (A) (A) (A) (A) (A) (A) (A) (A)
                 (A) (A) (A) (A) (A) (A) (A) (A) (A) (A) (A) (A)
                 (A) (A) (A) (A) (A) (A) (A) (A) (A) (A) (A) (A)
                 (A) (A) (A) (A) (A) (A) (A) (A) (A) (A) (A) (A)
                 (A) (A) (A) (A) (A) (A) (A) (A) (A) (A) (A) (A)
                 (A) (A) (A) (A) (A) (A) (A) (A) (A) (A) (A) (A)
                 (A) (A) (A) (A) (A) (A) (A) (A) (A) (A) (A) (A)
                 (A) (A) (A) (A) (A) (A) (A) (A) (A) (A) (A) (A)
                 (A) (A) (A) (A) (A) (A) (A) (A) (A) (A) (A) (A)
                 (A) (A) (A) (A) (A) (A) (A) (A) (A) (A) (A) (A)
                 (A) (A) (A) (A) (A) (A) (A) (A) (A) (A) (A) (A)
                 (A) (A) (A) (A) (A) (A) (A) (A) (A) (A) (A) (A)
                 (A) (A) (A) (A) (A) (A) (A) (A) (A) (A) (A) (A)
                 (A) (A) (A) (A) (A) (A) (A) (A) (A) (A) (A) (A)
                 (A) (A) (A) (A) (A) (A) (A) (A) (A) (A) (A) (A)
                 (A) (A) (A) (A) (A) (A) (A) (A) (A) (A) (A) (A)
                 (A) (A) (A) (A) (A) (A) (A) (A) (A) (A) (A) (A)
                 (A) (A) (A) (A) (A) (A) (A) (A) (A) (A) (A) (A)
                 (A) (A) (A) (A) (A) (A) (A) (A) (A) (A) (A) (A)
                 (A) (A) (A) (A) (A) (A) (A) (A) (A) (A) (A) (A)
                 (A) (A) (A) (A) (A) (A) (A) (A) (A) (A) (A) (A)
                 (A) (A) (A) (A) (A) (A) (A) (A) (A) (A) (A) (A)
                 (A) (A) (A) (A) (A) (A) (A) (A) (A) (A) (A) (A)
                 (A) (A) (A) (A) (A) (A) (A) (A) (A)
 The electronic state is 1-A.
 Alpha  occ. eigenvalues --  -14.49182 -14.49181 -10.32166 -10.32165 -10.31219
 Alpha  occ. eigenvalues --  -10.31218 -10.31160 -10.31159 -10.28407 -10.28404
 Alpha  occ. eigenvalues --  -10.28352 -10.28345 -10.28257 -10.26649 -10.24669
 Alpha  occ. eigenvalues --   -3.72812  -2.06791  -2.06248  -2.04424  -1.04940
 Alpha  occ. eigenvalues --   -1.04513  -0.94395  -0.87102  -0.84833  -0.81148
 Alpha  occ. eigenvalues --   -0.81131  -0.78706  -0.78118  -0.75711  -0.71602
 Alpha  occ. eigenvalues --   -0.70631  -0.66526  -0.66199  -0.60091  -0.58023
 Alpha  occ. eigenvalues --   -0.57338  -0.57048  -0.56481  -0.55300  -0.55200
 Alpha  occ. eigenvalues --   -0.52764  -0.50745  -0.50185  -0.49574  -0.49252
 Alpha  occ. eigenvalues --   -0.48078  -0.47584  -0.47110  -0.46475  -0.46253
 Alpha  occ. eigenvalues --   -0.45744  -0.45452  -0.45329  -0.44591  -0.42999
 Alpha  occ. eigenvalues --   -0.42520  -0.42035  -0.40435  -0.36796  -0.34082
 Alpha  occ. eigenvalues --   -0.33049  -0.31436  -0.26935  -0.26615  -0.26014
 Alpha  occ. eigenvalues --   -0.24277
 Alpha virt. eigenvalues --    0.03540   0.05940   0.09700   0.10433   0.11882
 Alpha virt. eigenvalues --    0.11896   0.12008   0.13772   0.15078   0.15471
 Alpha virt. eigenvalues --    0.15516   0.15768   0.16531   0.16706   0.16963
 Alpha virt. eigenvalues --    0.17141   0.17898   0.18186   0.18979   0.19633
 Alpha virt. eigenvalues --    0.19869   0.20812   0.21026   0.21460   0.21778
 Alpha virt. eigenvalues --    0.22017   0.22987   0.23372   0.23380   0.23948
 Alpha virt. eigenvalues --    0.24587   0.25283   0.26052   0.26247   0.26546
 Alpha virt. eigenvalues --    0.27036   0.27447   0.28520   0.29000   0.30034
 Alpha virt. eigenvalues --    0.30397   0.30467   0.32596   0.32723   0.32942
 Alpha virt. eigenvalues --    0.33275   0.33509   0.34425   0.35527   0.35802
 Alpha virt. eigenvalues --    0.36131   0.36201   0.37515   0.38304   0.38469
 Alpha virt. eigenvalues --    0.39148   0.39281   0.40701   0.40847   0.41156
 Alpha virt. eigenvalues --    0.41561   0.41829   0.42564   0.43629   0.44368
 Alpha virt. eigenvalues --    0.44936   0.44944   0.45693   0.46435   0.46886
 Alpha virt. eigenvalues --    0.47197   0.47514   0.48017   0.48093   0.48537
 Alpha virt. eigenvalues --    0.48603   0.49161   0.50384   0.50683   0.50719
 Alpha virt. eigenvalues --    0.50815   0.51123   0.51377   0.51760   0.51979
 Alpha virt. eigenvalues --    0.52011   0.52575   0.52698   0.53517   0.53892
 Alpha virt. eigenvalues --    0.54411   0.54684   0.55646   0.55710   0.56987
 Alpha virt. eigenvalues --    0.57660   0.57917   0.58323   0.58570   0.59190
 Alpha virt. eigenvalues --    0.60204   0.60417   0.61329   0.61978   0.62241
 Alpha virt. eigenvalues --    0.62545   0.62807   0.63313   0.63724   0.64970
 Alpha virt. eigenvalues --    0.65547   0.67225   0.67383   0.67664   0.68977
 Alpha virt. eigenvalues --    0.69527   0.70247   0.71734   0.72324   0.73313
 Alpha virt. eigenvalues --    0.73345   0.75072   0.75728   0.76097   0.77285
 Alpha virt. eigenvalues --    0.77697   0.78198   0.78480   0.79798   0.80884
 Alpha virt. eigenvalues --    0.81146   0.81344   0.83363   0.83964   0.85347
 Alpha virt. eigenvalues --    0.85773   0.86583   0.87457   0.87821   0.89775
 Alpha virt. eigenvalues --    0.90861   0.91274   0.91711   0.91753   0.92224
 Alpha virt. eigenvalues --    0.92412   0.93255   0.95139   0.95400   0.95787
 Alpha virt. eigenvalues --    0.97058   0.97797   0.98392   0.98588   0.98895
 Alpha virt. eigenvalues --    0.99971   1.00697   1.01612   1.01653   1.02751
 Alpha virt. eigenvalues --    1.03148   1.03402   1.03788   1.04099   1.05178
 Alpha virt. eigenvalues --    1.06153   1.07279   1.07988   1.08294   1.08333
 Alpha virt. eigenvalues --    1.08617   1.09557   1.10034   1.10184   1.10730
 Alpha virt. eigenvalues --    1.11331   1.12136   1.12234   1.12555   1.12825
 Alpha virt. eigenvalues --    1.14598   1.15435   1.15950   1.16279   1.16704
 Alpha virt. eigenvalues --    1.17512   1.17619   1.19659   1.19921   1.20357
 Alpha virt. eigenvalues --    1.21121   1.21658   1.22730   1.23577   1.23888
 Alpha virt. eigenvalues --    1.24118   1.25052   1.25774   1.26605   1.27354
 Alpha virt. eigenvalues --    1.27879   1.28122   1.28998   1.29489   1.30287
 Alpha virt. eigenvalues --    1.31098   1.31884   1.32503   1.33488   1.34132
 Alpha virt. eigenvalues --    1.34411   1.34809   1.34938   1.35620   1.36080
 Alpha virt. eigenvalues --    1.36884   1.37423   1.37937   1.39069   1.40336
 Alpha virt. eigenvalues --    1.40349   1.41378   1.42319   1.42491   1.43302
 Alpha virt. eigenvalues --    1.43683   1.43984   1.44192   1.45315   1.46408
 Alpha virt. eigenvalues --    1.46427   1.46913   1.47272   1.48064   1.48284
 Alpha virt. eigenvalues --    1.49128   1.49549   1.50182   1.50957   1.51583
 Alpha virt. eigenvalues --    1.52582   1.53144   1.53484   1.54823   1.55100
 Alpha virt. eigenvalues --    1.55722   1.55864   1.56872   1.57021   1.57337
 Alpha virt. eigenvalues --    1.58317   1.59033   1.60112   1.60706   1.61685
 Alpha virt. eigenvalues --    1.61781   1.62499   1.62630   1.63779   1.63782
 Alpha virt. eigenvalues --    1.66150   1.67574   1.67725   1.68766   1.69222
 Alpha virt. eigenvalues --    1.69306   1.70559   1.70614   1.71253   1.72660
 Alpha virt. eigenvalues --    1.73485   1.73561   1.73850   1.75461   1.77002
 Alpha virt. eigenvalues --    1.77725   1.78688   1.79128   1.79916   1.79921
 Alpha virt. eigenvalues --    1.81755   1.83118   1.84085   1.84114   1.84998
 Alpha virt. eigenvalues --    1.86271   1.86516   1.86610   1.87930   1.89321
 Alpha virt. eigenvalues --    1.90386   1.91424   1.92471   1.93229   1.96119
 Alpha virt. eigenvalues --    1.96600   1.97932   1.99369   1.99776   2.01564
 Alpha virt. eigenvalues --    2.01613   2.02097   2.04547   2.04977   2.07116
 Alpha virt. eigenvalues --    2.09162   2.09575   2.11847   2.11871   2.13064
 Alpha virt. eigenvalues --    2.16143   2.16438   2.18213   2.18745   2.20486
 Alpha virt. eigenvalues --    2.20631   2.23352   2.24784   2.25940   2.25952
 Alpha virt. eigenvalues --    2.26266   2.27062   2.28460   2.31855   2.34220
 Alpha virt. eigenvalues --    2.34765   2.34860   2.36791   2.36856   2.39055
 Alpha virt. eigenvalues --    2.40607   2.41096   2.42992   2.44006   2.48805
 Alpha virt. eigenvalues --    2.49953   2.50623   2.52276   2.55539   2.56251
 Alpha virt. eigenvalues --    2.58059   2.59581   2.60226   2.62879   2.63346
 Alpha virt. eigenvalues --    2.64908   2.65463   2.66596   2.67420   2.69202
 Alpha virt. eigenvalues --    2.70022   2.71077   2.71438   2.72484   2.72802
 Alpha virt. eigenvalues --    2.72831   2.73970   2.74157   2.75290   2.76251
 Alpha virt. eigenvalues --    2.77252   2.78342   2.78822   2.79538   2.80234
 Alpha virt. eigenvalues --    2.82968   2.83621   2.84333   2.84812   2.85237
 Alpha virt. eigenvalues --    2.86551   2.87176   2.87959   2.87988   2.88851
 Alpha virt. eigenvalues --    2.89976   2.90090   2.91168   2.91605   2.91666
 Alpha virt. eigenvalues --    2.93350   2.93616   2.93912   2.94274   2.95709
 Alpha virt. eigenvalues --    2.96889   2.97804   2.98394   2.98630   2.99024
 Alpha virt. eigenvalues --    2.99026   3.00393   3.01269   3.01473   3.02198
 Alpha virt. eigenvalues --    3.02707   3.02928   3.04251   3.05201   3.05239
 Alpha virt. eigenvalues --    3.06154   3.06757   3.06904   3.07889   3.08736
 Alpha virt. eigenvalues --    3.08764   3.09508   3.10434   3.11246   3.11490
 Alpha virt. eigenvalues --    3.12373   3.12633   3.13977   3.14456   3.14636
 Alpha virt. eigenvalues --    3.14644   3.16065   3.16474   3.18056   3.18416
 Alpha virt. eigenvalues --    3.18546   3.18976   3.19721   3.20653   3.20836
 Alpha virt. eigenvalues --    3.21561   3.21952   3.22940   3.23530   3.24869
 Alpha virt. eigenvalues --    3.25334   3.25694   3.26295   3.27421   3.28175
 Alpha virt. eigenvalues --    3.28843   3.29015   3.29313   3.30509   3.30565
 Alpha virt. eigenvalues --    3.31129   3.31561   3.32862   3.33518   3.33664
 Alpha virt. eigenvalues --    3.34408   3.35273   3.35498   3.37524   3.37755
 Alpha virt. eigenvalues --    3.38094   3.38167   3.39100   3.40185   3.41187
 Alpha virt. eigenvalues --    3.41666   3.42377   3.42858   3.43571   3.43605
 Alpha virt. eigenvalues --    3.43988   3.44802   3.45075   3.45308   3.47264
 Alpha virt. eigenvalues --    3.48239   3.48782   3.49639   3.49699   3.50293
 Alpha virt. eigenvalues --    3.51588   3.51784   3.52421   3.53052   3.53965
 Alpha virt. eigenvalues --    3.54395   3.55656   3.56354   3.56804   3.57075
 Alpha virt. eigenvalues --    3.57885   3.58077   3.58806   3.58839   3.59551
 Alpha virt. eigenvalues --    3.59933   3.60353   3.61081   3.62322   3.63011
 Alpha virt. eigenvalues --    3.64100   3.64249   3.65157   3.65548   3.66127
 Alpha virt. eigenvalues --    3.66540   3.67066   3.67422   3.68047   3.68281
 Alpha virt. eigenvalues --    3.69851   3.70122   3.70989   3.71522   3.72182
 Alpha virt. eigenvalues --    3.72346   3.73617   3.74161   3.74261   3.74653
 Alpha virt. eigenvalues --    3.75224   3.76175   3.77134   3.77978   3.79184
 Alpha virt. eigenvalues --    3.79388   3.80366   3.80822   3.80909   3.82508
 Alpha virt. eigenvalues --    3.82880   3.84666   3.84861   3.85438   3.85615
 Alpha virt. eigenvalues --    3.86410   3.87283   3.88400   3.89540   3.89620
 Alpha virt. eigenvalues --    3.90381   3.92147   3.92715   3.93629   3.94436
 Alpha virt. eigenvalues --    3.95439   3.95878   3.96204   3.97138   3.97847
 Alpha virt. eigenvalues --    3.98888   3.99569   4.00369   4.00923   4.01570
 Alpha virt. eigenvalues --    4.02601   4.02625   4.04091   4.04787   4.06246
 Alpha virt. eigenvalues --    4.07125   4.07414   4.09070   4.09582   4.10323
 Alpha virt. eigenvalues --    4.10423   4.12665   4.13378   4.13398   4.13814
 Alpha virt. eigenvalues --    4.14894   4.14904   4.16438   4.16715   4.18093
 Alpha virt. eigenvalues --    4.18233   4.18530   4.19423   4.20382   4.21120
 Alpha virt. eigenvalues --    4.22087   4.22408   4.22497   4.23013   4.23354
 Alpha virt. eigenvalues --    4.23493   4.23975   4.25469   4.25860   4.26260
 Alpha virt. eigenvalues --    4.26812   4.27325   4.27996   4.28867   4.29862
 Alpha virt. eigenvalues --    4.30177   4.30271   4.30479   4.31114   4.32101
 Alpha virt. eigenvalues --    4.32582   4.32585   4.34427   4.34547   4.34798
 Alpha virt. eigenvalues --    4.35208   4.35398   4.36092   4.36646   4.37668
 Alpha virt. eigenvalues --    4.38330   4.39048   4.39143   4.40100   4.40695
 Alpha virt. eigenvalues --    4.40741   4.42685   4.42792   4.43532   4.43606
 Alpha virt. eigenvalues --    4.44734   4.45817   4.46812   4.47318   4.48319
 Alpha virt. eigenvalues --    4.49825   4.50164   4.50894   4.53929   4.54258
 Alpha virt. eigenvalues --    4.54693   4.56202   4.58636   4.59036   4.61827
 Alpha virt. eigenvalues --    4.62139   4.63071   4.64557   4.64723   4.67351
 Alpha virt. eigenvalues --    4.70029   4.70607   4.71867   4.72268   4.74877
 Alpha virt. eigenvalues --    4.75002   4.75684   4.76040   4.76595   4.77467
 Alpha virt. eigenvalues --    4.78427   4.79166   4.79535   4.80739   4.81253
 Alpha virt. eigenvalues --    4.83365   4.84722   4.85761   4.87278   4.89359
 Alpha virt. eigenvalues --    4.89925   4.90399   4.90659   4.91743   4.92809
 Alpha virt. eigenvalues --    4.94398   4.96586   4.97016   4.99154   4.99547
 Alpha virt. eigenvalues --    5.01443   5.01741   5.04271   5.07151   5.07712
 Alpha virt. eigenvalues --    5.09321   5.09817   5.10228   5.12583   5.13002
 Alpha virt. eigenvalues --    5.13368   5.13481   5.14696   5.17408   5.18081
 Alpha virt. eigenvalues --    5.18678   5.19724   5.20986   5.22607   5.22828
 Alpha virt. eigenvalues --    5.24321   5.24363   5.24768   5.26204   5.26718
 Alpha virt. eigenvalues --    5.27894   5.27896   5.29343   5.29766   5.30479
 Alpha virt. eigenvalues --    5.30943   5.32222   5.32740   5.34501   5.34622
 Alpha virt. eigenvalues --    5.35966   5.36814   5.37045   5.37864   5.39368
 Alpha virt. eigenvalues --    5.39380   5.40311   5.40814   5.41728   5.41918
 Alpha virt. eigenvalues --    5.45419   5.45879   5.47459   5.48147   5.48312
 Alpha virt. eigenvalues --    5.50129   5.50898   5.52901   5.52930   5.53418
 Alpha virt. eigenvalues --    5.53792   5.54322   5.54613   5.59060   5.59256
 Alpha virt. eigenvalues --    5.60547   5.64178   5.65068   5.65190   5.67085
 Alpha virt. eigenvalues --    5.67479   5.68001   5.68562   5.69635   5.71182
 Alpha virt. eigenvalues --    5.72177   5.72724   5.75046   5.77765   5.78069
 Alpha virt. eigenvalues --    5.78732   5.79552   5.79577   5.80787   5.82244
 Alpha virt. eigenvalues --    5.82273   5.83151   5.86352   5.87294   5.91399
 Alpha virt. eigenvalues --    5.95314   5.95501   5.97097   6.04924   6.11047
 Alpha virt. eigenvalues --    6.12912   6.13375   6.19221   6.20007   6.32982
 Alpha virt. eigenvalues --    6.33161   6.51448  22.62124  23.19570  23.22917
 Alpha virt. eigenvalues --   23.24300  23.29349  23.44383  23.54984  23.64529
 Alpha virt. eigenvalues --   23.74554  23.77843  23.81767  23.85720  23.94995
 Alpha virt. eigenvalues --   32.92285  32.92691  35.93174  40.82813  44.25531
 Alpha virt. eigenvalues --   59.90842 363.56502
          Condensed to atoms (all electrons):
               1          2          3          4          5          6
     1  C    5.444710   0.056095   0.377025  -0.115961  -0.006075  -0.043495
     2  C    0.056095   5.444964  -0.115977   0.377097  -0.006079  -0.002507
     3  C    0.377025  -0.115977   5.110202   0.044253   0.441898   0.437930
     4  C   -0.115961   0.377097   0.044253   5.110174   0.441891   0.008074
     5  C   -0.006075  -0.006079   0.441898   0.441891   4.968740  -0.041230
     6  H   -0.043495  -0.002507   0.437930   0.008074  -0.041230   0.515678
     7  H   -0.002507  -0.043493   0.008075   0.437928  -0.041236  -0.000171
     8  C    0.325955   0.017961  -0.080995  -0.006493   0.013867  -0.005109
     9  H   -0.032605  -0.001599   0.000799   0.000564  -0.000546   0.000373
    10  H   -0.058995  -0.000497  -0.002082   0.000137  -0.000057   0.001531
    11  C    0.017966   0.325866  -0.006497  -0.081032   0.013867   0.000097
    12  H   -0.001599  -0.032588   0.000563   0.000795  -0.000544   0.000001
    13  H   -0.000499  -0.058996   0.000138  -0.002071  -0.000059  -0.000003
    14  N   -0.073824   0.007815   0.000976  -0.000107  -0.000189   0.000000
    15  N    0.007801  -0.073913  -0.000105   0.000979  -0.000190  -0.000004
    16  C    0.000628   0.000633   0.000418   0.000418  -0.000146   0.000005
    17  H   -0.000289  -0.000289  -0.000007  -0.000007   0.000008  -0.000000
    18  H   -0.000009  -0.000086  -0.000004  -0.000004   0.000001  -0.000000
    19  H   -0.000086  -0.000009  -0.000004  -0.000004   0.000001  -0.000000
    20  C    0.011384   0.000413  -0.000634   0.000032   0.000002  -0.000000
    21  H   -0.001034   0.000023  -0.000011  -0.000003   0.000003  -0.000001
    22  H    0.001714   0.000012   0.000011  -0.000001  -0.000004   0.000018
    23  H   -0.001079  -0.000223  -0.000036   0.000014  -0.000005  -0.000005
    24  C    0.006801  -0.002756   0.002924   0.000317  -0.000378   0.000046
    25  H   -0.004903   0.000204  -0.000439   0.000010  -0.000026   0.000002
    26  H    0.000422  -0.000190  -0.000102  -0.000016   0.000023  -0.000003
    27  H    0.012752  -0.000635   0.002256  -0.000181   0.000131   0.000053
    28  C    0.000411   0.011386   0.000032  -0.000635   0.000003   0.000001
    29  H    0.000012   0.001711  -0.000001   0.000011  -0.000004  -0.000000
    30  H    0.000023  -0.001034  -0.000003  -0.000011   0.000003  -0.000000
    31  H   -0.000223  -0.001075   0.000014  -0.000036  -0.000005   0.000000
    32  C   -0.002758   0.006809   0.000317   0.002928  -0.000378   0.000001
    33  H   -0.000189   0.000424  -0.000016  -0.000102   0.000023  -0.000000
    34  H    0.000204  -0.004919   0.000010  -0.000439  -0.000026  -0.000000
    35  H   -0.000634   0.012777  -0.000182   0.002258   0.000132   0.000002
    36  H    0.002641   0.002641   0.000074   0.000074  -0.000018   0.000001
    37  Ir  -0.074611  -0.074630   0.014973   0.014972  -0.001411  -0.001049
    38  H    0.009492   0.009492  -0.044638  -0.044639   0.444715  -0.004431
    39  C    0.076685   0.076551   0.082062   0.081986  -0.143629   0.015883
               7          8          9         10         11         12
     1  C   -0.002507   0.325955  -0.032605  -0.058995   0.017966  -0.001599
     2  C   -0.043493   0.017961  -0.001599  -0.000497   0.325866  -0.032588
     3  C    0.008075  -0.080995   0.000799  -0.002082  -0.006497   0.000563
     4  C    0.437928  -0.006493   0.000564   0.000137  -0.081032   0.000795
     5  C   -0.041236   0.013867  -0.000546  -0.000057   0.013867  -0.000544
     6  H   -0.000171  -0.005109   0.000373   0.001531   0.000097   0.000001
     7  H    0.515678   0.000097   0.000001  -0.000003  -0.005110   0.000373
     8  C    0.000097   4.948495   0.423013   0.432510  -0.000742  -0.000109
     9  H    0.000001   0.423013   0.568220  -0.021364  -0.000108  -0.000004
    10  H   -0.000003   0.432510  -0.021364   0.558002   0.000047  -0.000001
    11  C   -0.005110  -0.000742  -0.000108   0.000047   4.948528   0.423043
    12  H    0.000373  -0.000109  -0.000004  -0.000001   0.423043   0.568197
    13  H    0.001533   0.000047  -0.000001  -0.000000   0.432502  -0.021362
    14  N   -0.000004   0.270065  -0.036048  -0.024846   0.000792   0.000069
    15  N    0.000000   0.000791   0.000069  -0.000037   0.270089  -0.036070
    16  C    0.000005   0.000955   0.000119  -0.000069   0.000955   0.000119
    17  H   -0.000000  -0.000214  -0.000016   0.000003  -0.000214  -0.000016
    18  H   -0.000000  -0.000044   0.000009   0.000003   0.000053  -0.000002
    19  H   -0.000000   0.000053  -0.000002   0.000001  -0.000044   0.000009
    20  C    0.000001  -0.034469  -0.005697  -0.008198  -0.000166  -0.000006
    21  H   -0.000000   0.010009   0.000518  -0.000510  -0.000010   0.000000
    22  H   -0.000000  -0.012467  -0.002901   0.005608   0.000007  -0.000000
    23  H    0.000000  -0.006802   0.002310  -0.000122  -0.000040   0.000001
    24  C    0.000001  -0.040726   0.006815  -0.014132   0.000022   0.000005
    25  H   -0.000000  -0.012396  -0.000021   0.007184  -0.000001   0.000000
    26  H   -0.000000   0.007793  -0.000277  -0.000076  -0.000012  -0.000000
    27  H    0.000002  -0.009163   0.000289  -0.003364   0.000098  -0.000004
    28  C   -0.000000  -0.000165  -0.000006   0.000001  -0.034475  -0.005693
    29  H    0.000018   0.000007  -0.000000  -0.000000  -0.012463  -0.002900
    30  H   -0.000001  -0.000010   0.000000   0.000000   0.010009   0.000517
    31  H   -0.000005  -0.000040   0.000001   0.000000  -0.006804   0.002317
    32  C    0.000046   0.000022   0.000005   0.000003  -0.040752   0.006821
    33  H   -0.000003  -0.000012  -0.000000   0.000001   0.007794  -0.000277
    34  H    0.000002  -0.000001   0.000000  -0.000000  -0.012376  -0.000022
    35  H    0.000053   0.000098  -0.000004   0.000001  -0.009193   0.000289
    36  H    0.000001  -0.001812  -0.000487   0.000010  -0.001816  -0.000487
    37  Ir  -0.001050  -0.055682  -0.001358   0.009474  -0.055678  -0.001372
    38  H   -0.004430  -0.000263   0.000002  -0.000007  -0.000263   0.000002
    39  C    0.015886  -0.122465  -0.006150   0.015777  -0.122384  -0.006158
              13         14         15         16         17         18
     1  C   -0.000499  -0.073824   0.007801   0.000628  -0.000289  -0.000009
     2  C   -0.058996   0.007815  -0.073913   0.000633  -0.000289  -0.000086
     3  C    0.000138   0.000976  -0.000105   0.000418  -0.000007  -0.000004
     4  C   -0.002071  -0.000107   0.000979   0.000418  -0.000007  -0.000004
     5  C   -0.000059  -0.000189  -0.000190  -0.000146   0.000008   0.000001
     6  H   -0.000003   0.000000  -0.000004   0.000005  -0.000000  -0.000000
     7  H    0.001533  -0.000004   0.000000   0.000005  -0.000000  -0.000000
     8  C    0.000047   0.270065   0.000791   0.000955  -0.000214  -0.000044
     9  H   -0.000001  -0.036048   0.000069   0.000119  -0.000016   0.000009
    10  H   -0.000000  -0.024846  -0.000037  -0.000069   0.000003   0.000003
    11  C    0.432502   0.000792   0.270089   0.000955  -0.000214   0.000053
    12  H   -0.021362   0.000069  -0.036070   0.000119  -0.000016  -0.000002
    13  H    0.558000  -0.000037  -0.024844  -0.000069   0.000003   0.000001
    14  N   -0.000037   6.381442  -0.005881   0.003862  -0.001462  -0.002086
    15  N   -0.024844  -0.005881   6.381394   0.003860  -0.001461   0.000397
    16  C   -0.000069   0.003862   0.003860   5.318783   0.367779   0.411239
    17  H    0.000003  -0.001462  -0.001461   0.367779   0.605513  -0.022925
    18  H    0.000001  -0.002086   0.000397   0.411239  -0.022925   0.559922
    19  H    0.000003   0.000397  -0.002086   0.411244  -0.022916  -0.019239
    20  C    0.000001   0.252450   0.000469  -0.003030   0.001005  -0.002866
    21  H    0.000000  -0.031785   0.000056  -0.000470  -0.000160   0.002050
    22  H   -0.000000  -0.019546  -0.000016   0.000004  -0.000017  -0.000187
    23  H    0.000000  -0.039208   0.000071  -0.000159  -0.000013   0.000511
    24  C    0.000003   0.259469   0.000493   0.000042  -0.003412   0.000175
    25  H   -0.000000  -0.021763  -0.000032  -0.000243   0.000000  -0.000138
    26  H    0.000001  -0.035282   0.000181  -0.002746   0.001250  -0.000267
    27  H    0.000001  -0.035049   0.000254   0.000054   0.000057   0.000143
    28  C   -0.008206   0.000469   0.252467  -0.003022   0.001004  -0.000059
    29  H    0.005614  -0.000016  -0.019542   0.000004  -0.000017   0.000009
    30  H   -0.000510   0.000056  -0.031782  -0.000474  -0.000159   0.000160
    31  H   -0.000123   0.000071  -0.039204  -0.000159  -0.000013  -0.000044
    32  C   -0.014136   0.000493   0.259473   0.000050  -0.003405   0.000110
    33  H   -0.000077   0.000181  -0.035285  -0.002739   0.001247   0.000219
    34  H    0.007186  -0.000032  -0.021773  -0.000243   0.000000   0.000015
    35  H   -0.003359   0.000254  -0.035047   0.000055   0.000057  -0.000032
    36  H    0.000010  -0.006084  -0.006080   0.050644   0.011920  -0.018631
    37  Ir   0.009481   0.182121   0.182110   0.020895  -0.033686  -0.012459
    38  H   -0.000007   0.000008   0.000008  -0.000000   0.000000   0.000000
[...]
    34  H    0.000007  -0.000002   0.000000  -0.000000  -0.014848  -0.000025
    35  H    0.000051   0.000065  -0.000003   0.000001  -0.006791   0.000341
    36  H    0.000000  -0.000487  -0.000060   0.000000  -0.000487  -0.000060
    37  Ir  -0.001311  -0.061472  -0.000872   0.010588  -0.061481  -0.000873
    38  H   -0.004551  -0.000310   0.000002  -0.000010  -0.000310   0.000002
    39  C    0.015841  -0.118805  -0.010003   0.018005  -0.118787  -0.009995
              13         14         15         16         17         18
     1  C   -0.000584  -0.101013   0.015241   0.000644  -0.000291   0.000003
     2  C   -0.061670   0.015236  -0.101031   0.000642  -0.000290  -0.000038
     3  C    0.000235   0.000547  -0.000211   0.000084   0.000044  -0.000001
     4  C   -0.001961  -0.000212   0.000546   0.000083   0.000044  -0.000001
     5  C   -0.000331  -0.000246  -0.000247  -0.000022  -0.000012   0.000000
     6  H   -0.000003   0.000053  -0.000005   0.000001   0.000000  -0.000000
     7  H    0.002173  -0.000005   0.000053   0.000001   0.000000   0.000000
     8  C    0.000035   0.270347   0.000598   0.000832  -0.000030  -0.000036
     9  H   -0.000002  -0.037979   0.000049   0.000063   0.000012   0.000002
    10  H   -0.000001  -0.023663  -0.000040  -0.000059   0.000004   0.000001
    11  C    0.430192   0.000598   0.270340   0.000835  -0.000031   0.000014
    12  H   -0.022887   0.000049  -0.037981   0.000063   0.000012   0.000000
    13  H    0.566064  -0.000040  -0.023663  -0.000059   0.000004   0.000000
    14  N   -0.000040   6.395872  -0.005211   0.007594   0.000804  -0.000969
    15  N   -0.023663  -0.005211   6.395903   0.007600   0.000797   0.000024
    16  C   -0.000059   0.007594   0.007600   4.967422   0.338820   0.417797
    17  H    0.000004   0.000804   0.000797   0.338820   0.565703  -0.014573
    18  H    0.000000  -0.000969   0.000024   0.417797  -0.014573   0.527799
    19  H    0.000001   0.000024  -0.000970   0.417798  -0.014575  -0.015523
    20  C    0.000002   0.250951   0.000597   0.002443  -0.001740  -0.001443
    21  H   -0.000000  -0.034288   0.000038   0.001285  -0.000581   0.000146
    22  H   -0.000000  -0.019056  -0.000015  -0.000177  -0.000020  -0.000099
    23  H    0.000000  -0.038974   0.000052  -0.000780   0.000198   0.000298
    24  C    0.000001   0.260171   0.000540  -0.001319   0.000956   0.000503
    25  H   -0.000000  -0.020920  -0.000028  -0.000283   0.000091  -0.000038
    26  H    0.000000  -0.034195   0.000137   0.000982  -0.000932  -0.000085
    27  H    0.000001  -0.034202   0.000162   0.000481  -0.000286   0.000020
    28  C   -0.008352   0.000597   0.250961   0.002444  -0.001738  -0.000002
    29  H    0.005794  -0.000015  -0.019057  -0.000177  -0.000019   0.000007
    30  H   -0.000599   0.000038  -0.034295   0.001287  -0.000581   0.000202
    31  H   -0.000239   0.000052  -0.038973  -0.000781   0.000198  -0.000033
    32  C   -0.014860   0.000540   0.260161  -0.001320   0.000959  -0.000070
    33  H   -0.000145   0.000137  -0.034197   0.000984  -0.000936   0.000075
    34  H    0.007727  -0.000028  -0.020919  -0.000283   0.000090   0.000004
    35  H   -0.004036   0.000162  -0.034203   0.000481  -0.000286  -0.000004
    36  H    0.000000  -0.001507  -0.001513   0.333020  -0.023799  -0.014402
    37  Ir   0.010587   0.160462   0.160431  -0.140573   0.070183  -0.006022
    38  H   -0.000010   0.000010   0.000010  -0.000000  -0.000000   0.000000
    39  C    0.018006   0.026805   0.026843  -0.011846  -0.003754   0.000460
              19         20         21         22         23         24
     1  C   -0.000038   0.016487  -0.000992   0.001130  -0.000718   0.010293
     2  C    0.000003  -0.000653   0.000027   0.000044  -0.000232  -0.002117
     3  C   -0.000001  -0.000258  -0.000006  -0.000027  -0.000060   0.002369
     4  C   -0.000001   0.000070  -0.000003  -0.000002   0.000015   0.000227
     5  C    0.000000  -0.000020   0.000003  -0.000005  -0.000006  -0.000317
     6  H    0.000000  -0.000024  -0.000001   0.000022  -0.000005   0.000041
     7  H   -0.000000   0.000001  -0.000000  -0.000000   0.000000   0.000000
     8  C    0.000014  -0.037422   0.010824  -0.012822  -0.007543  -0.036039
     9  H    0.000000  -0.006440   0.000706  -0.002820   0.002258   0.006960
    10  H    0.000000  -0.008353  -0.000599   0.005795  -0.000239  -0.014857
    11  C   -0.000036  -0.000148  -0.000007   0.000005  -0.000031   0.000059
    12  H    0.000002  -0.000003   0.000001  -0.000000   0.000001   0.000004
    13  H    0.000001   0.000002  -0.000000  -0.000000   0.000000   0.000001
    14  N    0.000024   0.250951  -0.034288  -0.019056  -0.038974   0.260171
    15  N   -0.000970   0.000597   0.000038  -0.000015   0.000052   0.000540
    16  C    0.417798   0.002443   0.001285  -0.000177  -0.000780  -0.001319
    17  H   -0.014575  -0.001740  -0.000581  -0.000020   0.000198   0.000956
    18  H   -0.015523  -0.001443   0.000146  -0.000099   0.000298   0.000503
    19  H    0.527802  -0.000003   0.000202   0.000007  -0.000033  -0.000070
    20  C   -0.000003   4.841647   0.421107   0.408375   0.431431  -0.046152
    21  H    0.000202   0.421107   0.562137  -0.021736  -0.017338  -0.006821
    22  H    0.000007   0.408375  -0.021736   0.545883  -0.021034  -0.010430
    23  H   -0.000033   0.431431  -0.017338  -0.021034   0.541386   0.008105
    24  C   -0.000070  -0.046152  -0.006821  -0.010430   0.008105   4.835565
    25  H    0.000004  -0.011108  -0.001491   0.006527  -0.000332   0.410042
    26  H    0.000075  -0.006851   0.003063  -0.001396   0.000033   0.424309
    27  H   -0.000004   0.008606   0.000187  -0.000513  -0.000169   0.425993
    28  C   -0.001447  -0.000071  -0.000016   0.000003  -0.000022  -0.000055
    29  H   -0.000099   0.000003   0.000000  -0.000000   0.000000   0.000001
    30  H    0.000148  -0.000016   0.000000   0.000000  -0.000000  -0.000000
    31  H    0.000298  -0.000022  -0.000000   0.000000  -0.000006  -0.000001
    32  C    0.000504  -0.000055  -0.000000   0.000001  -0.000001   0.000148
    33  H   -0.000085   0.000008  -0.000002   0.000000  -0.000001   0.000103
    34  H   -0.000038   0.000000  -0.000000   0.000000   0.000000   0.000006
    35  H    0.000020  -0.000011  -0.000001   0.000000  -0.000001   0.000018
    36  H   -0.014402   0.001456  -0.002060   0.000074  -0.000280  -0.000277
    37  Ir  -0.006024  -0.066941  -0.014054   0.014561  -0.003487  -0.047597
    38  H    0.000000  -0.000001   0.000000   0.000000  -0.000000  -0.000003
    39  C    0.000461  -0.008517  -0.000027   0.001535  -0.000501  -0.009314
              25         26         27         28         29         30
     1  C   -0.005293   0.000565   0.013212  -0.000654   0.000044   0.000027
     2  C    0.000253  -0.000142  -0.000899   0.016486   0.001129  -0.000991
     3  C   -0.000550  -0.000054   0.002490   0.000070  -0.000002  -0.000003
     4  C    0.000003  -0.000002  -0.000052  -0.000258  -0.000027  -0.000006
     5  C   -0.000015   0.000009  -0.000014  -0.000020  -0.000005   0.000003
     6  H    0.000007   0.000001   0.000051   0.000001  -0.000000  -0.000000
     7  H   -0.000000  -0.000000   0.000002  -0.000024   0.000022  -0.000001
     8  C   -0.014842   0.008435  -0.006797  -0.000148   0.000005  -0.000007
     9  H   -0.000025  -0.000310   0.000341  -0.000003  -0.000000   0.000001
    10  H    0.007726  -0.000145  -0.004035   0.000002  -0.000000  -0.000000
    11  C   -0.000002  -0.000022   0.000065  -0.037414  -0.012820   0.010822
    12  H    0.000000   0.000000  -0.000003  -0.006442  -0.002820   0.000706
    13  H   -0.000000   0.000000   0.000001  -0.008352   0.005794  -0.000599
    14  N   -0.020920  -0.034195  -0.034202   0.000597  -0.000015   0.000038
    15  N   -0.000028   0.000137   0.000162   0.250961  -0.019057  -0.034295
    16  C   -0.000283   0.000982   0.000481   0.002444  -0.000177   0.001287
    17  H    0.000091  -0.000932  -0.000286  -0.001738  -0.000019  -0.000581
    18  H   -0.000038  -0.000085   0.000020  -0.000002   0.000007   0.000202
    19  H    0.000004   0.000075  -0.000004  -0.001447  -0.000099   0.000148
    20  C   -0.011108  -0.006851   0.008606  -0.000071   0.000003  -0.000016
    21  H   -0.001491   0.003063   0.000187  -0.000016   0.000000   0.000000
    22  H    0.006527  -0.001396  -0.000513   0.000003  -0.000000   0.000000
    23  H   -0.000332   0.000033  -0.000169  -0.000022   0.000000  -0.000000
    24  C    0.410042   0.424309   0.425993  -0.000055   0.000001  -0.000000
    25  H    0.558640  -0.021705  -0.020944   0.000000   0.000000  -0.000000
    26  H   -0.021705   0.553743  -0.016026   0.000008   0.000000  -0.000002
    27  H   -0.020944  -0.016026   0.527727  -0.000011   0.000000  -0.000001
    28  C    0.000000   0.000008  -0.000011   4.841659   0.408378   0.421116
    29  H    0.000000   0.000000   0.000000   0.408378   0.545873  -0.021731
    30  H   -0.000000  -0.000002  -0.000001   0.421116  -0.021731   0.562120
    31  H    0.000000  -0.000001  -0.000001   0.431426  -0.021033  -0.017339
    32  C    0.000006   0.000103   0.000018  -0.046150  -0.010430  -0.006819
    33  H   -0.000003  -0.000007   0.000041  -0.006854  -0.001397   0.003061
    34  H   -0.000000  -0.000003  -0.000002  -0.011107   0.006527  -0.001492
    35  H   -0.000002   0.000041   0.000004   0.008606  -0.000513   0.000188
    36  H    0.000011   0.000019  -0.000024   0.001455   0.000074  -0.002065
    37  Ir   0.013459  -0.014739  -0.009893  -0.066938   0.014559  -0.014052
    38  H    0.000000   0.000000  -0.000002  -0.000001   0.000000   0.000000
    39  C    0.003644  -0.000335  -0.008030  -0.008521   0.001534  -0.000027
              31         32         33         34         35         36
     1  C   -0.000232  -0.002115  -0.000142   0.000253  -0.000899   0.000307
     2  C   -0.000718   0.010286   0.000564  -0.005291   0.013209   0.000309
     3  C    0.000015   0.000227  -0.000002   0.000003  -0.000052   0.000023
     4  C   -0.000060   0.002369  -0.000054  -0.000551   0.002490   0.000023
     5  C   -0.000006  -0.000317   0.000009  -0.000015  -0.000014  -0.000005
     6  H    0.000000   0.000000  -0.000000  -0.000000   0.000002   0.000000
     7  H   -0.000005   0.000041   0.000001   0.000007   0.000051   0.000000
     8  C   -0.000031   0.000059  -0.000022  -0.000002   0.000065  -0.000487
     9  H    0.000001   0.000004   0.000000   0.000000  -0.000003  -0.000060
    10  H    0.000000   0.000001   0.000000  -0.000000   0.000001   0.000000
    11  C   -0.007543  -0.036029   0.008434  -0.014848  -0.006791  -0.000487
    12  H    0.002257   0.006959  -0.000310  -0.000025   0.000341  -0.000060
    13  H   -0.000239  -0.014860  -0.000145   0.007727  -0.004036   0.000000
    14  N    0.000052   0.000540   0.000137  -0.000028   0.000162  -0.001507
    15  N   -0.038973   0.260161  -0.034197  -0.020919  -0.034203  -0.001513
    16  C   -0.000781  -0.001320   0.000984  -0.000283   0.000481   0.333020
    17  H    0.000198   0.000959  -0.000936   0.000090  -0.000286  -0.023799
    18  H   -0.000033  -0.000070   0.000075   0.000004  -0.000004  -0.014402
    19  H    0.000298   0.000504  -0.000085  -0.000038   0.000020  -0.014402
    20  C   -0.000022  -0.000055   0.000008   0.000000  -0.000011   0.001456
    21  H   -0.000000  -0.000000  -0.000002  -0.000000  -0.000001  -0.002060
    22  H    0.000000   0.000001   0.000000   0.000000   0.000000   0.000074
    23  H   -0.000006  -0.000001  -0.000001   0.000000  -0.000001  -0.000280
    24  C   -0.000001   0.000148   0.000103   0.000006   0.000018  -0.000277
    25  H    0.000000   0.000006  -0.000003  -0.000000  -0.000002   0.000011
    26  H   -0.000001   0.000103  -0.000007  -0.000003   0.000041   0.000019
    27  H   -0.000001   0.000018   0.000041  -0.000002   0.000004  -0.000024
    28  C    0.431426  -0.046150  -0.006854  -0.011107   0.008606   0.001455
    29  H   -0.021033  -0.010430  -0.001397   0.006527  -0.000513   0.000074
    30  H   -0.017339  -0.006819   0.003061  -0.001492   0.000188  -0.002065
    31  H    0.541383   0.008105   0.000033  -0.000332  -0.000169  -0.000280
    32  C    0.008105   4.835563   0.424312   0.410045   0.425996  -0.000277
    33  H    0.000033   0.424312   0.553739  -0.021705  -0.016025   0.000018
    34  H   -0.000332   0.410045  -0.021705   0.558637  -0.020945   0.000011
    35  H   -0.000169   0.425996  -0.016025  -0.020945   0.527728  -0.000024
    36  H   -0.000280  -0.000277   0.000018   0.000011  -0.000024   0.560215
    37  Ir  -0.003483  -0.047606  -0.014726   0.013461  -0.009896   0.077143
    38  H   -0.000000  -0.000003   0.000000   0.000000  -0.000002  -0.000000
    39  C   -0.000500  -0.009308  -0.000334   0.003644  -0.008031  -0.003512
              37         38         39
     1  C   -0.069980   0.009404   0.161774
     2  C   -0.069999   0.009404   0.161726
     3  C    0.009207  -0.046515   0.044198
     4  C    0.009209  -0.046514   0.044188
     5  C    0.002499   0.451600  -0.107829
     6  H   -0.001311  -0.004551   0.015843
     7  H   -0.001311  -0.004551   0.015841
     8  C   -0.061472  -0.000310  -0.118805
     9  H   -0.000872   0.000002  -0.010003
    10  H    0.010588  -0.000010   0.018005
    11  C   -0.061481  -0.000310  -0.118787
    12  H   -0.000873   0.000002  -0.009995
    13  H    0.010587  -0.000010   0.018006
    14  N    0.160462   0.000010   0.026805
    15  N    0.160431   0.000010   0.026843
    16  C   -0.140573  -0.000000  -0.011846
    17  H    0.070183  -0.000000  -0.003754
    18  H   -0.006022   0.000000   0.000460
    19  H   -0.006024   0.000000   0.000461
    20  C   -0.066941  -0.000001  -0.008517
    21  H   -0.014054   0.000000  -0.000027
    22  H    0.014561   0.000000   0.001535
    23  H   -0.003487  -0.000000  -0.000501
    24  C   -0.047597  -0.000003  -0.009314
    25  H    0.013459   0.000000   0.003644
    26  H   -0.014739   0.000000  -0.000335
    27  H   -0.009893  -0.000002  -0.008030
    28  C   -0.066938  -0.000001  -0.008521
    29  H    0.014559   0.000000   0.001534
    30  H   -0.014052   0.000000  -0.000027
    31  H   -0.003483  -0.000000  -0.000500
    32  C   -0.047606  -0.000003  -0.009308
    33  H   -0.014726   0.000000  -0.000334
    34  H    0.013461   0.000000   0.003644
    35  H   -0.009896  -0.000002  -0.008031
    36  H    0.077143  -0.000000  -0.003512
    37  Ir  17.131892   0.000152   0.309252
    38  H    0.000152   0.509072  -0.001760
    39  C    0.309252  -0.001760   5.804318
 Mulliken charges:
               1
     1  C    0.059985
     2  C    0.060045
     3  C   -0.283748
     4  C   -0.283748
     5  C   -0.113118
     6  H    0.110882
     7  H    0.110882
     8  C   -0.070162
     9  H    0.100304
    10  H    0.098620
    11  C   -0.070181
    12  H    0.100303
    13  H    0.098620
    14  N   -0.038524
    15  N   -0.038524
    16  C   -0.346007
    17  H    0.085553
    18  H    0.105983
    19  H    0.105986
    20  C   -0.186928
    21  H    0.100296
    22  H    0.106188
    23  H    0.108016
    24  C   -0.211043
    25  H    0.097170
    26  H    0.105428
    27  H    0.122505
    28  C   -0.186962
    29  H    0.106192
    30  H    0.100311
    31  H    0.108022
    32  C   -0.211045
    33  H    0.105426
    34  H    0.097171
    35  H    0.122504
    36  H    0.091361
    37  Ir  -0.274313
    38  H    0.124888
    39  C   -0.218339
 Sum of Mulliken charges =  -0.00000
 Mulliken charges with hydrogens summed into heavy atoms:
               1
     1  C    0.059985
     2  C    0.060045
     3  C   -0.172865
     4  C   -0.172866
     5  C    0.011770
     8  C    0.128763
    11  C    0.128742
    14  N   -0.038524
    15  N   -0.038524
    16  C    0.042876
    20  C    0.127572
    24  C    0.114060
    28  C    0.127564
    32  C    0.114056
    37  Ir  -0.274313
    39  C   -0.218339
 Electronic spatial extent (au):  <R**2>=           4112.7967
 Charge=              0.0000 electrons
 Dipole moment (field-independent basis, Debye):
    X=              4.3010    Y=             -0.0011    Z=              1.0159  Tot=              4.4194
 Quadrupole moment (field-independent basis, Debye-Ang):
   XX=           -117.9006   YY=            -93.1093   ZZ=           -119.9446
   XY=              0.0079   XZ=              0.9157   YZ=             -0.0005
 Traceless Quadrupole moment (field-independent basis, Debye-Ang):
   XX=             -7.5824   YY=             17.2089   ZZ=             -9.6264
   XY=              0.0079   XZ=              0.9157   YZ=             -0.0005
 Octapole moment (field-independent basis, Debye-Ang**2):
  XXX=            126.2325  YYY=             -0.0343  ZZZ=             -5.8420  XYY=             35.2079
  XXY=             -0.0170  XXZ=             -0.3586  XZZ=             42.6860  YZZ=             -0.0133
  YYZ=             -3.5995  XYZ=             -0.0008
 Hexadecapole moment (field-independent basis, Debye-Ang**3):
 XXXX=          -2689.4880 YYYY=          -2329.4345 ZZZZ=           -465.2182 XXXY=              0.0342
 XXXZ=            -13.6906 YYYX=              0.0140 YYYZ=              0.0019 ZZZX=             -2.5823
 ZZZY=             -0.0022 XXYY=           -822.7532 XXZZ=           -578.6477 YYZZ=           -480.2878
 XXYZ=              0.0092 YYXZ=             -3.3564 ZZXY=              0.0192
 N-N= 1.380447119049D+03 E-N=-4.414619487204D+03  KE= 6.511353132535D+02
 Unable to Open any file for archive entry.
 1\1\GINC-NODE006\Scan\RwB97XD\def2TZVPP\C13H23Ir1N2\MVANVLEET\13-Mar-2
 024\0\\# wb97xd def2TZVPP SCRF=(solvent=dichloromethane) opt=modredund
 ant\\scan_YIrMeH\\0,1\C,-1.9499993997,-1.2120523781,-0.0817906648\C,-1
 .951392809,1.2097025929,-0.0817651605\C,-3.331771279,-1.2142705991,0.0
 261112532\C,-3.3331693433,1.2103123893,0.0261408129\C,-4.0201149368,-0
 .0023754235,0.1009047851\H,-3.8855365628,-2.1468810942,0.0415108708\H,
 -3.8880136683,2.1422812212,0.0415514159\C,-1.0692432474,-2.4025150943,
 -0.3403396881\H,-1.0378682051,-2.5841967007,-1.4159567895\H,-1.4189945
 088,-3.3237367048,0.1353915006\C,-1.0720300004,2.4012074,-0.3403054654
 \H,-1.040940815,2.5829914325,-1.4159138142\H,-1.4228286353,3.321993667
 8,0.1354976289\N,0.347992292,-2.1252153924,0.085723029\N,0.3455477725,
 2.1255608915,0.0856422716\C,3.1877599336,0.0020827131,0.0688551077\H,2
 .5416042209,0.0010680829,0.9680662293\H,3.8055482157,-0.8921343682,0.0
 848680512\H,3.8041910925,0.8972195649,0.085985351\C,1.2575667764,-2.95
 26022557,-0.7223764652\H,2.2774868992,-2.8101576082,-0.3714552541\H,0.
 9994990831,-4.0140780158,-0.638942363\H,1.1954614233,-2.6447511566,-1.
 7632202811\C,0.4903938064,-2.5255347967,1.5009298258\H,0.3198102787,-3
 .6025942408,1.608713394\H,1.4917069803,-2.2860284398,1.8511178898\H,-0
 .2330776763,-1.9844503549,2.1051808598\C,1.2540982872,2.9539831511,-0.
 722542089\H,0.9948196686,4.0151626956,-0.6390876642\H,2.2742123248,2.8
 127124262,-0.3717177013\H,1.1922556221,2.6460660226,-1.7633824627\C,0.
 4876055561,2.5260367071,1.5008375696\H,1.4892291016,2.2876911692,1.850
 9281192\H,0.315773326,3.6028970017,1.6086478742\H,-0.235181783,1.98410
 14991,2.1051462103\H,2.5906447357,0.0022669352,-0.8814877446\Ir,0.6529
 343321,0.0003301622,-0.0460185812\H,-5.0982489122,-0.002997205,0.19593
 64366\C,-1.2510034665,-0.0007699271,-0.0878617078\\Version=ES64L-G16Re
 vC.01\State=1-A\HF=-723.1649114,-723.1653769,-723.1698526,-723.1779087
 ,-723.1838515\RMSD=5.905e-09,3.267e-09,5.913e-09,5.360e-09,4.463e-09\P
 G=C01 [X(C13H23Ir1N2)]\\@
 The archive entry for this job was punched.


 FIREWORKS ENDED
 AND SPECTATORS GONE AWAY....
 AH, HOW VAST AND DARK
                     SHIKI
 Job cpu time:      10 days 16 hours 16 minutes 28.3 seconds.
 Elapsed time:       0 days  5 hours 23 minutes 30.6 seconds.
 File lengths (MBytes):  RWF=    634 Int=      0 D2E=      0 Chk=     56 Scr=      1
 Normal termination of Gaussian 16 at Wed Mar 13 18:49:30 2024.
