 Entering Gaussian System, Link 0=/cm/shared/apps//g16/g16
 Input=scan_reverse_YPtMeH_sigma.gjf
 Output=scan_reverse_YPtMeH_sigma.log
 Initial command:
 /cm/shared/apps//g16/l1.exe "/local/mvanvleet/pbs.15217.josephine/Gau-3956480.inp" -scrdir="/local/mvanvleet/pbs.15217.josephine/"
 Entering Link 1 = /cm/shared/apps//g16/l1.exe PID=   3956482.
  
 Copyright (c) 1988-2019, Gaussian, Inc.  All Rights Reserved.
  
 This is part of the Gaussian(R) 16 program.  It is based on
 the Gaussian(R) 09 system (copyright 2009, Gaussian, Inc.),
 the Gaussian(R) 03 system (copyright 2003, Gaussian, Inc.),
 the Gaussian(R) 98 system (copyright 1998, Gaussian, Inc.),
 the Gaussian(R) 94 system (copyright 1995, Gaussian, Inc.),
 the Gaussian 92(TM) system (copyright 1992, Gaussian, Inc.),
 the Gaussian 90(TM) system (copyright 1990, Gaussian, Inc.),
 the Gaussian 88(TM) system (copyright 1988, Gaussian, Inc.),
 the Gaussian 86(TM) system (copyright 1986, Carnegie Mellon
 University), and the Gaussian 82(TM) system (copyright 1983,
 Carnegie Mellon University). Gaussian is a federally registered
 trademark of Gaussian, Inc.
  
 This software contains proprietary and confidential information,
 including trade secrets, belonging to Gaussian, Inc.
  
 This software is provided under written license and may be
 used, copied, transmitted, or stored only in accord with that
 written license.
  
 The following legend is applicable only to US Government
 contracts under FAR:
  
                    RESTRICTED RIGHTS LEGEND
  
 Use, reproduction and disclosure by the US Government is
 subject to restrictions as set forth in subparagraphs (a)
 and (c) of the Commercial Computer Software - Restricted
 Rights clause in FAR 52.227-19.
  
 Gaussian, Inc.
 340 Quinnipiac St., Bldg. 40, Wallingford CT 06492
  
  
 ---------------------------------------------------------------
 Warning -- This program may not be used in any manner that
 competes with the business of Gaussian, Inc. or will provide
 assistance to any competitor of Gaussian, Inc.  The licensee
 of this program is prohibited from giving any competitor of
 Gaussian, Inc. access to this program.  By using this program,
 the user acknowledges that Gaussian, Inc. is engaged in the
 business of creating and licensing software in the field of
 computational chemistry and represents and warrants to the
 licensee that it is not a competitor of Gaussian, Inc. and that
 it will not use this program in any manner prohibited above.
 ---------------------------------------------------------------
  

 Cite this work as:
 Gaussian 16, Revision C.01,
 M. J. Frisch, G. W. Trucks, H. B. Schlegel, G. E. Scuseria, 
 M. A. Robb, J. R. Cheeseman, G. Scalmani, V. Barone, 
 G. A. Petersson, H. Nakatsuji, X. Li, M. Caricato, A. V. Marenich, 
 J. Bloino, B. G. Janesko, R. Gomperts, B. Mennucci, H. P. Hratchian, 
 J. V. Ortiz, A. F. Izmaylov, J. L. Sonnenberg, D. Williams-Young, 
 F. Ding, F. Lipparini, F. Egidi, J. Goings, B. Peng, A. Petrone, 
 T. Henderson, D. Ranasinghe, V. G. Zakrzewski, J. Gao, N. Rega, 
 G. Zheng, W. Liang, M. Hada, M. Ehara, K. Toyota, R. Fukuda, 
 J. Hasegawa, M. Ishida, T. Nakajima, Y. Honda, O. Kitao, H. Nakai, 
 T. Vreven, K. Throssell, J. A. Montgomery, Jr., J. E. Peralta, 
 F. Ogliaro, M. J. Bearpark, J. J. Heyd, E. N. Brothers, K. N. Kudin, 
 V. N. Staroverov, T. A. Keith, R. Kobayashi, J. Normand, 
 K. Raghavachari, A. P. Rendell, J. C. Burant, S. S. Iyengar, 
 J. Tomasi, M. Cossi, J. M. Millam, M. Klene, C. Adamo, R. Cammi, 
 J. W. Ochterski, R. L. Martin, K. Morokuma, O. Farkas, 
 J. B. Foresman, and D. J. Fox, Gaussian, Inc., Wallingford CT, 2019.
 
 ******************************************
 Gaussian 16:  ES64L-G16RevC.01  3-Jul-2019
                20-May-2024 
 ******************************************
 %nprocshared=48
 Will use up to   48 processors via shared memory.
 %chk=scan_reverse_YPtMeH_sigma.chk
 %mem=16GB
 ------------------------------------------------------------------
 # wb97xd def2TZVPP SCRF=(solvent=dichloromethane) opt=modredundant
 ------------------------------------------------------------------
 1/18=120,19=15,26=3,38=1/1,3;
 2/9=110,12=2,17=6,18=5,40=1/2;
 3/5=44,7=202,11=2,25=1,30=1,70=2201,71=1,72=9,74=-58/1,2,3;
 4//1;
 5/5=2,38=5,53=9/2;
 6/7=2,8=2,9=2,10=2,28=1/1;
 7//1,2,3,16;
 1/18=20,19=15,26=3/3(2);
 2/9=110/2;
 99//99;
 2/9=110/2;
 3/5=44,7=202,11=2,25=1,30=1,70=2205,71=1,72=9,74=-58/1,2,3;
 4/5=5,16=3,69=1/1;
 5/5=2,38=5,53=9/2;
 7//1,2,3,16;
 1/18=20,19=15,26=3/3(-5);
 2/9=110/2;
 6/7=2,8=2,9=2,10=2,19=2,28=1/1;
 99/9=1/99;
 -----------
 scan_YPtMeH
 -----------
 Symbolic Z-matrix:
 Charge =  1 Multiplicity = 1
 C                     1.92472   1.2174   -0.1049 
 C                     1.9246   -1.21758  -0.10485 
 C                     3.31071   1.21419  -0.03777 
 C                     3.31059  -1.2145   -0.03772 
 C                     3.98967  -0.00019   0.01378 
 H                     3.86587   2.14364  -0.03758 
 H                     3.86566  -2.144    -0.03749 
 C                     1.03592   2.40529  -0.33111 
 H                     1.01844   2.62882  -1.39781 
 H                     1.36529   3.30625   0.18883 
 C                     1.03569  -2.40539  -0.33105 
 H                     1.01823  -2.62896  -1.39774 
 H                     1.36496  -3.30636   0.18893 
 N                    -0.38121   2.09041   0.07532 
 N                    -0.38142  -2.09037   0.07531 
 C                    -3.34632   0.00013  -0.1278 
 H                    -2.83042   0.00015   0.83936 
 H                    -3.95949   0.89485  -0.1819 
 H                    -3.95942  -0.89464  -0.18188 
 C                    -1.31193   2.8952   -0.74098 
 H                    -2.32841   2.73352  -0.39102 
 H                    -1.07054   3.95654  -0.64997 
 H                    -1.23601   2.59261  -1.78205 
 C                    -0.55224   2.45946   1.50252 
 H                    -0.42227   3.53752   1.62012 
 H                    -1.54779   2.18124   1.83881 
 H                     0.18841   1.93829   2.10322 
 C                    -1.31218  -2.89506  -0.74105 
 H                    -1.07092  -3.95643  -0.65002 
 H                    -2.32867  -2.73327  -0.39115 
 H                    -1.23617  -2.59248  -1.78211 
 C                    -0.55258  -2.45942   1.50249 
 H                    -1.54813  -2.18111   1.83873 
 H                    -0.42272  -3.5375    1.62009 
 H                     0.18809  -1.93833   2.10325 
 H                    -2.07445   0.00014  -1.00079 
 H                     5.06958  -0.00024   0.07375 
 C                     1.26594  -0.00006  -0.09655 
 Pt                   -0.64495   0.00003  -0.07408 
 
 Add virtual bond connecting atoms H36        and C16        Dist= 2.92D+00.
 The following ModRedundant input section has been read:
 A      16      39      36 S   1 -5.000                                        
 

 GradGradGradGradGradGradGradGradGradGradGradGradGradGradGradGradGradGrad
 Berny optimization.
 Initialization pass.
                           ----------------------------
                           !    Initial Parameters    !
                           ! (Angstroms and Degrees)  !
 --------------------------                            --------------------------
 ! Name  Definition              Value          Derivative Info.                !
 --------------------------------------------------------------------------------
 ! R1    R(1,3)                  1.3876         estimate D2E/DX2                !
 ! R2    R(1,8)                  1.5007         estimate D2E/DX2                !
 ! R3    R(1,38)                 1.3843         estimate D2E/DX2                !
 ! R4    R(2,4)                  1.3876         estimate D2E/DX2                !
 ! R5    R(2,11)                 1.5007         estimate D2E/DX2                !
 ! R6    R(2,38)                 1.3843         estimate D2E/DX2                !
 ! R7    R(3,5)                  1.3923         estimate D2E/DX2                !
 ! R8    R(3,6)                  1.0826         estimate D2E/DX2                !
 ! R9    R(4,5)                  1.3922         estimate D2E/DX2                !
 ! R10   R(4,7)                  1.0826         estimate D2E/DX2                !
 ! R11   R(5,37)                 1.0816         estimate D2E/DX2                !
 ! R12   R(8,9)                  1.09           estimate D2E/DX2                !
 ! R13   R(8,10)                 1.0911         estimate D2E/DX2                !
 ! R14   R(8,14)                 1.5075         estimate D2E/DX2                !
 ! R15   R(11,12)                1.09           estimate D2E/DX2                !
 ! R16   R(11,13)                1.0911         estimate D2E/DX2                !
 ! R17   R(11,15)                1.5075         estimate D2E/DX2                !
 ! R18   R(14,20)                1.4766         estimate D2E/DX2                !
 ! R19   R(14,24)                1.484          estimate D2E/DX2                !
 ! R20   R(14,39)                2.1122         estimate D2E/DX2                !
 ! R21   R(15,28)                1.4766         estimate D2E/DX2                !
 ! R22   R(15,32)                1.484          estimate D2E/DX2                !
 ! R23   R(15,39)                2.1122         estimate D2E/DX2                !
 ! R24   R(16,17)                1.0962         estimate D2E/DX2                !
 ! R25   R(16,18)                1.086          estimate D2E/DX2                !
 ! R26   R(16,19)                1.086          estimate D2E/DX2                !
 ! R27   R(16,36)                1.5426         estimate D2E/DX2                !
 ! R28   R(20,21)                1.0871         estimate D2E/DX2                !
 ! R29   R(20,22)                1.0922         estimate D2E/DX2                !
 ! R30   R(20,23)                1.0868         estimate D2E/DX2                !
 ! R31   R(24,25)                1.0922         estimate D2E/DX2                !
 ! R32   R(24,26)                1.087          estimate D2E/DX2                !
 ! R33   R(24,27)                1.0867         estimate D2E/DX2                !
 ! R34   R(28,29)                1.0922         estimate D2E/DX2                !
 ! R35   R(28,30)                1.0871         estimate D2E/DX2                !
 ! R36   R(28,31)                1.0868         estimate D2E/DX2                !
 ! R37   R(32,33)                1.087          estimate D2E/DX2                !
 ! R38   R(32,34)                1.0922         estimate D2E/DX2                !
 ! R39   R(32,35)                1.0868         estimate D2E/DX2                !
 ! R40   R(36,39)                1.7036         estimate D2E/DX2                !
 ! R41   R(38,39)                1.911          estimate D2E/DX2                !
 ! A1    A(3,1,8)              126.9179         estimate D2E/DX2                !
 ! A2    A(3,1,38)             118.2299         estimate D2E/DX2                !
 ! A3    A(8,1,38)             114.5322         estimate D2E/DX2                !
 ! A4    A(4,2,11)             126.9178         estimate D2E/DX2                !
 ! A5    A(4,2,38)             118.2299         estimate D2E/DX2                !
 ! A6    A(11,2,38)            114.5322         estimate D2E/DX2                !
 ! A7    A(1,3,5)              119.4002         estimate D2E/DX2                !
 ! A8    A(1,3,6)              120.6779         estimate D2E/DX2                !
 ! A9    A(5,3,6)              119.9175         estimate D2E/DX2                !
 ! A10   A(2,4,5)              119.4005         estimate D2E/DX2                !
 ! A11   A(2,4,7)              120.6779         estimate D2E/DX2                !
 ! A12   A(5,4,7)              119.9172         estimate D2E/DX2                !
 ! A13   A(3,5,4)              121.4349         estimate D2E/DX2                !
 ! A14   A(3,5,37)             119.2758         estimate D2E/DX2                !
 ! A15   A(4,5,37)             119.2761         estimate D2E/DX2                !
 ! A16   A(1,8,9)              108.6223         estimate D2E/DX2                !
 ! A17   A(1,8,10)             113.7648         estimate D2E/DX2                !
 ! A18   A(1,8,14)             110.5341         estimate D2E/DX2                !
 ! A19   A(9,8,10)             107.568          estimate D2E/DX2                !
 ! A20   A(9,8,14)             106.9536         estimate D2E/DX2                !
 ! A21   A(10,8,14)            109.1332         estimate D2E/DX2                !
 ! A22   A(2,11,12)            108.6224         estimate D2E/DX2                !
 ! A23   A(2,11,13)            113.7644         estimate D2E/DX2                !
 ! A24   A(2,11,15)            110.5347         estimate D2E/DX2                !
 ! A25   A(12,11,13)           107.5676         estimate D2E/DX2                !
 ! A26   A(12,11,15)           106.9535         estimate D2E/DX2                !
 ! A27   A(13,11,15)           109.1334         estimate D2E/DX2                !
 ! A28   A(8,14,20)            109.2471         estimate D2E/DX2                !
 ! A29   A(8,14,24)            108.4015         estimate D2E/DX2                !
 ! A30   A(8,14,39)            107.7593         estimate D2E/DX2                !
 ! A31   A(20,14,24)           108.8735         estimate D2E/DX2                !
 ! A32   A(20,14,39)           114.9351         estimate D2E/DX2                !
 ! A33   A(24,14,39)           107.4419         estimate D2E/DX2                !
 ! A34   A(11,15,28)           109.2469         estimate D2E/DX2                !
 ! A35   A(11,15,32)           108.4022         estimate D2E/DX2                !
 ! A36   A(11,15,39)           107.7597         estimate D2E/DX2                !
 ! A37   A(28,15,32)           108.8729         estimate D2E/DX2                !
 ! A38   A(28,15,39)           114.9349         estimate D2E/DX2                !
 ! A39   A(32,15,39)           107.4419         estimate D2E/DX2                !
 ! A40   A(17,16,18)           108.0392         estimate D2E/DX2                !
 ! A41   A(17,16,19)           108.0382         estimate D2E/DX2                !
 ! A42   A(17,16,36)            96.3888         estimate D2E/DX2                !
 ! A43   A(18,16,19)           110.95           estimate D2E/DX2                !
 ! A44   A(18,16,36)           115.9321         estimate D2E/DX2                !
 ! A45   A(19,16,36)           115.93           estimate D2E/DX2                !
 ! A46   A(14,20,21)           109.2893         estimate D2E/DX2                !
 ! A47   A(14,20,22)           110.136          estimate D2E/DX2                !
 ! A48   A(14,20,23)           109.4987         estimate D2E/DX2                !
 ! A49   A(21,20,22)           108.9252         estimate D2E/DX2                !
 ! A50   A(21,20,23)           109.4069         estimate D2E/DX2                !
 ! A51   A(22,20,23)           109.5678         estimate D2E/DX2                !
 ! A52   A(14,24,25)           109.5903         estimate D2E/DX2                !
 ! A53   A(14,24,26)           109.8416         estimate D2E/DX2                !
 ! A54   A(14,24,27)           109.4983         estimate D2E/DX2                !
 ! A55   A(25,24,26)           109.1658         estimate D2E/DX2                !
 ! A56   A(25,24,27)           109.4351         estimate D2E/DX2                !
 ! A57   A(26,24,27)           109.295          estimate D2E/DX2                !
 ! A58   A(15,28,29)           110.1362         estimate D2E/DX2                !
 ! A59   A(15,28,30)           109.2894         estimate D2E/DX2                !
 ! A60   A(15,28,31)           109.499          estimate D2E/DX2                !
 ! A61   A(29,28,30)           108.9246         estimate D2E/DX2                !
 ! A62   A(29,28,31)           109.5682         estimate D2E/DX2                !
 ! A63   A(30,28,31)           109.4066         estimate D2E/DX2                !
 ! A64   A(15,32,33)           109.8422         estimate D2E/DX2                !
 ! A65   A(15,32,34)           109.5905         estimate D2E/DX2                !
 ! A66   A(15,32,35)           109.4983         estimate D2E/DX2                !
 ! A67   A(33,32,34)           109.1655         estimate D2E/DX2                !
 ! A68   A(33,32,35)           109.2949         estimate D2E/DX2                !
 ! A69   A(34,32,35)           109.4346         estimate D2E/DX2                !
 ! A70   A(16,36,39)           112.5806         estimate D2E/DX2                !
 ! A71   A(1,38,2)             123.1652         estimate D2E/DX2                !
 ! A72   A(1,38,39)            118.4175         estimate D2E/DX2                !
 ! A73   A(2,38,39)            118.4173         estimate D2E/DX2                !
 ! A74   A(14,39,15)           163.5038         estimate D2E/DX2                !
 ! A75   A(14,39,36)            98.2321         estimate D2E/DX2                !
 ! A76   A(14,39,38)            82.8784         estimate D2E/DX2                !
 ! A77   A(15,39,36)            98.2346         estimate D2E/DX2                !
 ! A78   A(15,39,38)            82.8787         estimate D2E/DX2                !
 ! A79   A(16,39,36)            31.8151         Scan                            !
 ! A80   A(36,39,38)           146.3719         estimate D2E/DX2                !
 ! D1    D(8,1,3,5)           -172.1102         estimate D2E/DX2                !
 ! D2    D(8,1,3,6)              7.1292         estimate D2E/DX2                !
 ! D3    D(38,1,3,5)             1.0087         estimate D2E/DX2                !
 ! D4    D(38,1,3,6)          -179.7519         estimate D2E/DX2                !
 ! D5    D(3,1,8,9)             80.2754         estimate D2E/DX2                !
 ! D6    D(3,1,8,10)           -39.4866         estimate D2E/DX2                !
 ! D7    D(3,1,8,14)          -162.6725         estimate D2E/DX2                !
 ! D8    D(38,1,8,9)           -93.0614         estimate D2E/DX2                !
 ! D9    D(38,1,8,10)          147.1767         estimate D2E/DX2                !
 ! D10   D(38,1,8,14)           23.9907         estimate D2E/DX2                !
 ! D11   D(3,1,38,2)            -3.9698         estimate D2E/DX2                !
 ! D12   D(3,1,38,39)          176.0875         estimate D2E/DX2                !
 ! D13   D(8,1,38,2)           169.9862         estimate D2E/DX2                !
 ! D14   D(8,1,38,39)           -9.9566         estimate D2E/DX2                !
 ! D15   D(11,2,4,5)           172.1083         estimate D2E/DX2                !
 ! D16   D(11,2,4,7)            -7.1312         estimate D2E/DX2                !
 ! D17   D(38,2,4,5)            -1.0087         estimate D2E/DX2                !
 ! D18   D(38,2,4,7)           179.7518         estimate D2E/DX2                !
 ! D19   D(4,2,11,12)          -80.2725         estimate D2E/DX2                !
 ! D20   D(4,2,11,13)           39.4888         estimate D2E/DX2                !
 ! D21   D(4,2,11,15)          162.6752         estimate D2E/DX2                !
 ! D22   D(38,2,11,12)          93.0625         estimate D2E/DX2                !
 ! D23   D(38,2,11,13)        -147.1762         estimate D2E/DX2                !
 ! D24   D(38,2,11,15)         -23.9899         estimate D2E/DX2                !
 ! D25   D(4,2,38,1)             3.9698         estimate D2E/DX2                !
 ! D26   D(4,2,38,39)         -176.0875         estimate D2E/DX2                !
 ! D27   D(11,2,38,1)         -169.9845         estimate D2E/DX2                !
 ! D28   D(11,2,38,39)           9.9582         estimate D2E/DX2                !
 ! D29   D(1,3,5,4)              1.7981         estimate D2E/DX2                !
 ! D30   D(1,3,5,37)          -179.5328         estimate D2E/DX2                !
 ! D31   D(6,3,5,4)           -177.4473         estimate D2E/DX2                !
 ! D32   D(6,3,5,37)             1.2219         estimate D2E/DX2                !
 ! D33   D(2,4,5,3)             -1.7981         estimate D2E/DX2                !
 ! D34   D(2,4,5,37)           179.5328         estimate D2E/DX2                !
 ! D35   D(7,4,5,3)            177.4474         estimate D2E/DX2                !
 ! D36   D(7,4,5,37)            -1.2218         estimate D2E/DX2                !
 ! D37   D(1,8,14,20)         -150.8873         estimate D2E/DX2                !
 ! D38   D(1,8,14,24)           90.6066         estimate D2E/DX2                !
 ! D39   D(1,8,14,39)          -25.3857         estimate D2E/DX2                !
 ! D40   D(9,8,14,20)          -32.8095         estimate D2E/DX2                !
 ! D41   D(9,8,14,24)         -151.3156         estimate D2E/DX2                !
 ! D42   D(9,8,14,39)           92.6921         estimate D2E/DX2                !
 ! D43   D(10,8,14,20)          83.2792         estimate D2E/DX2                !
 ! D44   D(10,8,14,24)         -35.227          estimate D2E/DX2                !
 ! D45   D(10,8,14,39)        -151.2193         estimate D2E/DX2                !
 ! D46   D(2,11,15,28)         150.8845         estimate D2E/DX2                !
 ! D47   D(2,11,15,32)         -90.6097         estimate D2E/DX2                !
 ! D48   D(2,11,15,39)          25.3831         estimate D2E/DX2                !
 ! D49   D(12,11,15,28)         32.8064         estimate D2E/DX2                !
 ! D50   D(12,11,15,32)        151.3122         estimate D2E/DX2                !
 ! D51   D(12,11,15,39)        -92.695          estimate D2E/DX2                !
 ! D52   D(13,11,15,28)        -83.2818         estimate D2E/DX2                !
 ! D53   D(13,11,15,32)         35.2239         estimate D2E/DX2                !
 ! D54   D(13,11,15,39)        151.2167         estimate D2E/DX2                !
 ! D55   D(8,14,20,21)        -175.1508         estimate D2E/DX2                !
 ! D56   D(8,14,20,22)         -55.5258         estimate D2E/DX2                !
 ! D57   D(8,14,20,23)          65.0223         estimate D2E/DX2                !
 ! D58   D(24,14,20,21)        -56.9395         estimate D2E/DX2                !
 ! D59   D(24,14,20,22)         62.6854         estimate D2E/DX2                !
 ! D60   D(24,14,20,23)       -176.7665         estimate D2E/DX2                !
 ! D61   D(39,14,20,21)         63.6093         estimate D2E/DX2                !
 ! D62   D(39,14,20,22)       -176.7658         estimate D2E/DX2                !
 ! D63   D(39,14,20,23)        -56.2177         estimate D2E/DX2                !
 ! D64   D(8,14,24,25)          63.7884         estimate D2E/DX2                !
 ! D65   D(8,14,24,26)        -176.2851         estimate D2E/DX2                !
 ! D66   D(8,14,24,27)         -56.2569         estimate D2E/DX2                !
 ! D67   D(20,14,24,25)        -54.9543         estimate D2E/DX2                !
 ! D68   D(20,14,24,26)         64.9722         estimate D2E/DX2                !
 ! D69   D(20,14,24,27)       -174.9997         estimate D2E/DX2                !
 ! D70   D(39,14,24,25)        179.9863         estimate D2E/DX2                !
 ! D71   D(39,14,24,26)        -60.0872         estimate D2E/DX2                !
 ! D72   D(39,14,24,27)         59.9409         estimate D2E/DX2                !
 ! D73   D(8,14,39,15)          47.1336         estimate D2E/DX2                !
 ! D74   D(8,14,39,36)        -129.4156         estimate D2E/DX2                !
 ! D75   D(8,14,39,38)          16.661          estimate D2E/DX2                !
 ! D76   D(20,14,39,15)        169.1814         estimate D2E/DX2                !
 ! D77   D(20,14,39,36)         -7.3677         estimate D2E/DX2                !
 ! D78   D(20,14,39,38)        138.7089         estimate D2E/DX2                !
 ! D79   D(24,14,39,15)        -69.4865         estimate D2E/DX2                !
 ! D80   D(24,14,39,36)        113.9644         estimate D2E/DX2                !
 ! D81   D(24,14,39,38)        -99.959          estimate D2E/DX2                !
 ! D82   D(11,15,28,29)         55.5273         estimate D2E/DX2                !
 ! D83   D(11,15,28,30)        175.1516         estimate D2E/DX2                !
 ! D84   D(11,15,28,31)        -65.0216         estimate D2E/DX2                !
 ! D85   D(32,15,28,29)        -62.6843         estimate D2E/DX2                !
 ! D86   D(32,15,28,30)         56.9399         estimate D2E/DX2                !
 ! D87   D(32,15,28,31)        176.7668         estimate D2E/DX2                !
 ! D88   D(39,15,28,29)        176.7674         estimate D2E/DX2                !
 ! D89   D(39,15,28,30)        -63.6083         estimate D2E/DX2                !
 ! D90   D(39,15,28,31)         56.2185         estimate D2E/DX2                !
 ! D91   D(11,15,32,33)        176.2858         estimate D2E/DX2                !
 ! D92   D(11,15,32,34)        -63.7876         estimate D2E/DX2                !
 ! D93   D(11,15,32,35)         56.2573         estimate D2E/DX2                !
 ! D94   D(28,15,32,33)        -64.9717         estimate D2E/DX2                !
 ! D95   D(28,15,32,34)         54.9549         estimate D2E/DX2                !
 ! D96   D(28,15,32,35)        174.9998         estimate D2E/DX2                !
 ! D97   D(39,15,32,33)         60.0872         estimate D2E/DX2                !
 ! D98   D(39,15,32,34)       -179.9862         estimate D2E/DX2                !
 ! D99   D(39,15,32,35)        -59.9414         estimate D2E/DX2                !
 ! D100  D(11,15,39,14)        -47.1307         estimate D2E/DX2                !
 ! D101  D(11,15,39,36)        129.4184         estimate D2E/DX2                !
 ! D102  D(11,15,39,38)        -16.6582         estimate D2E/DX2                !
 ! D103  D(28,15,39,14)       -169.1785         estimate D2E/DX2                !
 ! D104  D(28,15,39,36)          7.3706         estimate D2E/DX2                !
 ! D105  D(28,15,39,38)       -138.706          estimate D2E/DX2                !
 ! D106  D(32,15,39,14)         69.4903         estimate D2E/DX2                !
 ! D107  D(32,15,39,36)       -113.9606         estimate D2E/DX2                !
 ! D108  D(32,15,39,38)         99.9628         estimate D2E/DX2                !
 ! D109  D(17,16,36,39)          0.0053         estimate D2E/DX2                !
 ! D110  D(18,16,36,39)        113.642          estimate D2E/DX2                !
 ! D111  D(19,16,36,39)       -113.6296         estimate D2E/DX2                !
 ! D112  D(16,36,39,14)        -90.4982         estimate D2E/DX2                !
 ! D113  D(16,36,39,15)         90.4914         estimate D2E/DX2                !
 ! D114  D(16,36,39,38)        179.9987         estimate D2E/DX2                !
 ! D115  D(1,38,39,14)          -4.2006         estimate D2E/DX2                !
 ! D116  D(1,38,39,15)        -175.8565         estimate D2E/DX2                !
 ! D117  D(1,38,39,36)          89.969          estimate D2E/DX2                !
 ! D118  D(2,38,39,14)         175.8539         estimate D2E/DX2                !
 ! D119  D(2,38,39,15)           4.198          estimate D2E/DX2                !
 ! D120  D(2,38,39,36)         -89.9765         estimate D2E/DX2                !
 --------------------------------------------------------------------------------
 Trust Radius=3.00D-01 FncErr=1.00D-07 GrdErr=1.00D-06 EigMax=2.50D+02 EigMin=1.00D-04
 Number of optimizations in scan=   2
 Number of steps in this run=    234 maximum allowed number of steps=    234.
 GradGradGradGradGradGradGradGradGradGradGradGradGradGradGradGradGradGrad

                          Input orientation:                          
 ---------------------------------------------------------------------
 Center     Atomic      Atomic             Coordinates (Angstroms)
 Number     Number       Type             X           Y           Z
 ---------------------------------------------------------------------
      1          6           0        1.924720    1.217400   -0.104900
      2          6           0        1.924600   -1.217580   -0.104850
      3          6           0        3.310710    1.214190   -0.037770
      4          6           0        3.310590   -1.214500   -0.037720
      5          6           0        3.989670   -0.000190    0.013780
      6          1           0        3.865870    2.143640   -0.037580
      7          1           0        3.865660   -2.144000   -0.037490
      8          6           0        1.035920    2.405290   -0.331110
      9          1           0        1.018440    2.628820   -1.397810
     10          1           0        1.365290    3.306250    0.188830
     11          6           0        1.035690   -2.405390   -0.331050
     12          1           0        1.018230   -2.628960   -1.397740
     13          1           0        1.364960   -3.306360    0.188930
     14          7           0       -0.381210    2.090410    0.075320
     15          7           0       -0.381420   -2.090370    0.075310
     16          6           0       -3.346320    0.000130   -0.127800
     17          1           0       -2.830420    0.000150    0.839360
     18          1           0       -3.959490    0.894850   -0.181900
     19          1           0       -3.959420   -0.894640   -0.181880
     20          6           0       -1.311930    2.895200   -0.740980
     21          1           0       -2.328410    2.733520   -0.391020
     22          1           0       -1.070540    3.956540   -0.649970
     23          1           0       -1.236010    2.592610   -1.782050
     24          6           0       -0.552240    2.459460    1.502520
     25          1           0       -0.422270    3.537520    1.620120
     26          1           0       -1.547790    2.181240    1.838810
     27          1           0        0.188410    1.938290    2.103220
     28          6           0       -1.312180   -2.895060   -0.741050
     29          1           0       -1.070920   -3.956430   -0.650020
     30          1           0       -2.328670   -2.733270   -0.391150
     31          1           0       -1.236170   -2.592480   -1.782110
     32          6           0       -0.552580   -2.459420    1.502490
     33          1           0       -1.548130   -2.181110    1.838730
     34          1           0       -0.422720   -3.537500    1.620090
     35          1           0        0.188090   -1.938330    2.103250
     36          1           0       -2.074450    0.000140   -1.000790
     37          1           0        5.069580   -0.000240    0.073750
     38          6           0        1.265940   -0.000060   -0.096550
     39         78           0       -0.644950    0.000030   -0.074080
 ---------------------------------------------------------------------
                    Distance matrix (angstroms):
                    1          2          3          4          5
     1  C    0.000000
     2  C    2.434980   0.000000
     3  C    1.387618   2.799876   0.000000
     4  C    2.799873   1.387618   2.428690   0.000000
     5  C    2.400131   2.400130   1.392251   1.392247   0.000000
     6  H    2.151863   3.882120   1.082626   3.403739   2.148016
     7  H    3.882113   2.151861   3.403735   1.082623   2.148006
     8  C    1.500740   3.737129   2.584461   4.285217   3.824908
     9  H    2.117797   4.157844   3.017514   4.677062   4.210996
    10  H    2.182323   4.567725   2.865785   4.926733   4.224992
    11  C    3.737128   1.500740   4.285217   2.584460   3.824904
    12  H    4.157841   2.117797   4.677049   3.017493   4.210971
    13  H    4.567721   2.182317   4.926734   2.865785   4.224990
    14  N    2.472234   4.036337   3.796159   4.956268   4.845512
    15  N    4.036347   2.472235   4.956282   3.796164   4.845520
    16  C    5.409818   5.409801   6.767429   6.767414   7.337356
    17  H    4.998468   4.998461   6.321133   6.321127   6.869877
    18  H    5.893547   6.252265   7.278637   7.571275   8.001783
    19  H    6.252179   5.893379   7.571177   7.278471   8.001647
    20  C    3.700745   5.272072   4.968813   6.225102   6.087685
    21  H    4.524334   5.812158   5.850882   6.892750   6.896026
    22  H    4.095311   6.003294   5.204865   6.805057   6.457709
    23  H    3.833308   5.226854   5.061148   6.181290   6.103716
    24  C    3.203411   4.715824   4.341149   5.549034   5.375423
    25  H    3.723844   5.576226   4.699106   6.266129   5.878855
    26  H    4.094548   5.233286   5.297335   6.217417   6.225177
    27  H    2.900043   4.224860   3.854467   4.926633   4.751110
    28  C    5.272052   3.700734   6.225082   4.968798   6.087664
    29  H    6.003293   4.095320   6.805060   5.204875   6.457711
    30  H    5.812148   4.524333   6.892744   5.850883   6.896022
    31  H    5.226801   3.833278   6.181228   5.061102   6.103654
    32  C    4.715901   3.203456   5.549128   4.341216   5.375510
    33  H    5.233379   4.094600   6.217527   5.297411   6.225278
    34  H    5.576302   3.723890   6.266224   4.699177   5.878944
    35  H    4.224978   2.900113   4.926774   3.854567   4.751240
    36  H    4.275243   4.275272   5.603684   5.603705   6.148407
    37  H    3.377086   3.377087   2.140304   2.140303   1.081574
    38  C    1.384294   1.384289   2.378853   2.378848   2.725964
    39  Pt   2.843615   2.843608   4.137964   4.137959   4.635453
                    6          7          8          9         10
     6  H    0.000000
     7  H    4.287640   0.000000
     8  C    2.857138   5.365602   0.000000
     9  H    3.192723   5.721621   1.090009   0.000000
    10  H    2.766916   6.000691   1.091124   1.759728   0.000000
    11  C    5.365605   2.857137   4.810680   5.146022   5.744714
    12  H    5.721608   3.192699   5.146036   5.257780   6.153403
    13  H    6.000696   2.766920   5.744707   6.153388   6.612610
    14  N    4.248914   5.998238   1.507512   2.102146   2.131059
    15  N    5.998255   4.248916   4.731278   5.138136   5.673393
    16  C    7.524524   7.524500   5.003015   5.251101   5.764543
    17  H    7.085469   7.085459   4.701413   5.169967   5.381214
    18  H    7.925690   8.395739   5.220902   5.409702   5.857096
    19  H    8.395661   7.925505   5.988759   6.218709   6.792455
    20  C    5.279131   7.259192   2.433188   2.435777   2.863742
    21  H    6.232334   7.891875   3.380834   3.496569   3.782547
    22  H    5.294315   7.871327   2.635379   2.585719   2.657015
    23  H    5.410539   7.176768   2.702218   2.287246   3.340720
    24  C    4.689493   6.563636   2.426394   3.302671   2.473814
    25  H    4.804062   7.308467   2.686180   3.465441   2.301618
    26  H    5.729744   7.178694   3.381465   4.154705   3.531872
    27  H    4.260153   5.896601   2.619604   3.663740   2.630827
    28  C    7.259171   5.279121   5.811655   6.031283   6.818341
    29  H    7.871330   5.294329   6.709095   6.949110   7.706186
    30  H    7.891869   6.232338   6.142383   6.400666   7.103346
    31  H    7.176700   5.410499   5.678512   5.700257   6.741455
    32  C    6.563740   4.689549   5.436067   6.063830   6.216661
    33  H    7.178816   5.729808   5.693908   6.340181   6.428165
    34  H    7.308572   4.804125   6.422738   7.014853   7.216814
    35  H    5.896753   4.260233   5.050936   5.814272   5.705824
    36  H    6.388252   6.388285   3.988436   4.078425   4.917049
    37  H    2.461206   2.461200   4.713905   5.048681   4.966677
    38  C    3.370247   3.370239   2.427681   2.943730   3.320090
    39  Pt   4.994386   4.994377   2.945618   3.380779   3.878309
                   11         12         13         14         15
    11  C    0.000000
    12  H    1.090007   0.000000
    13  H    1.091121   1.759720   0.000000
    14  N    4.731275   5.138170   5.673371   0.000000
    15  N    1.507503   2.102136   2.131052   4.180780   0.000000
    16  C    5.002984   5.251110   5.764491   3.633511   3.633466
    17  H    4.701413   5.170004   5.381197   3.309316   3.309327
    18  H    5.988794   6.218778   6.792455   3.781483   4.666935
    19  H    5.220703   5.409545   5.856869   4.666933   3.781270
    20  C    5.811679   6.031362   6.818344   1.476575   5.136934
    21  H    6.142407   6.400756   7.103342   2.103010   5.222849
    22  H    6.709103   6.949168   7.706175   2.117466   6.129114
    23  H    5.678558   5.700358   6.741488   2.105400   5.109835
    24  C    5.436016   6.063819   6.216579   1.484031   4.771484
    25  H    6.422686   7.014841   7.216730   2.117125   5.836202
    26  H    5.693842   6.340169   6.428061   2.116378   4.766236
    27  H    5.050852   5.814215   5.705710   2.111868   4.546122
    28  C    2.433181   2.435747   2.863758   5.136933   1.476578
    29  H    2.635389   2.585693   2.657055   6.129118   2.117473
    30  H    3.380834   3.496547   3.782569   5.222842   2.103019
    31  H    2.702208   2.287223   3.340734   5.109840   2.105403
    32  C    2.426394   3.302654   2.473804   4.771492   1.484027
    33  H    3.381475   4.154698   3.531872   4.766256   2.116388
    34  H    2.686183   3.465412   2.301618   5.836215   2.117129
    35  H    2.619616   3.663746   2.630808   4.546136   2.111871
    36  H    3.988496   4.078530   4.917105   2.897292   2.897339
    37  H    4.713903   5.048652   4.966679   5.837973   5.837983
    38  C    2.427677   2.943734   3.320079   2.666966   2.666970
    39  Pt   2.945612   3.380803   3.878289   2.112242   2.112235
                   16         17         18         19         20
    16  C    0.000000
    17  H    1.096153   0.000000
    18  H    1.086015   1.765859   0.000000
    19  H    1.086015   1.765849   1.789490   0.000000
    20  C    3.591123   3.631061   3.365047   4.656682   0.000000
    21  H    2.928625   3.039270   2.466751   3.983400   1.087126
    22  H    4.594020   4.579116   4.235454   5.665570   1.092243
    23  H    3.729732   4.016812   3.586114   4.705148   1.086808
    24  C    4.063635   3.417322   4.110308   5.069129   2.408379
    25  H    4.911051   4.349915   4.768952   5.950015   2.603625
    26  H    3.443763   2.720513   3.399171   4.400021   2.687133
    27  H    4.607410   3.803559   4.849290   5.518303   3.355022
    28  C    3.591090   3.631114   4.656642   3.364852   5.790260
    29  H    4.593966   4.579150   5.665500   4.235227   6.856471
    30  H    2.928556   3.039324   3.983292   2.466516   5.730254
    31  H    3.729759   4.016898   4.705169   3.586013   5.586083
    32  C    4.063522   3.417277   5.069056   4.110012   5.855060
    33  H    3.443622   2.720460   4.399901   3.398851   5.699089
    34  H    4.910945   4.349888   5.949927   4.768653   6.909774
    35  H    4.607306   3.803489   5.518264   4.849015   5.805404
    36  H    1.542649   1.989382   2.241531   2.241508   3.005047
    37  H    8.418313   7.937012   9.076929   9.076791   7.054858
    38  C    4.612366   4.201915   5.302195   5.302070   3.929788
    39  Pt   2.701904   2.368681   3.434895   3.434788   3.044935
                   21         22         23         24         25
    21  H    0.000000
    22  H    1.773435   0.000000
    23  H    1.774305   1.780250   0.000000
    24  C    2.610629   2.672657   3.357629   0.000000
    25  H    2.885216   2.397737   3.623505   1.092216   0.000000
    26  H    2.426216   3.094105   3.657466   1.087022   1.775983
    27  H    3.631530   3.638453   4.189562   1.086748   1.778722
    28  C    5.730284   6.856465   5.586055   5.855083   6.909786
    29  H    6.812033   7.912970   6.648208   6.787201   7.857071
    30  H    5.466790   6.812007   5.611908   5.805698   6.855828
    31  H    5.611987   6.648221   5.185090   6.064541   7.057939
    32  C    5.805651   6.787187   6.064510   4.918880   5.999509
    33  H    5.452908   6.640216   5.999656   4.758122   5.832502
    34  H    6.855794   7.857066   7.057921   5.999511   7.075020
    35  H    5.863475   6.626754   6.136207   4.499947   5.530903
    36  H    2.812060   4.096829   2.834475   3.825172   4.702332
    37  H    7.900615   7.340365   7.065927   6.300505   6.713227
    38  C    4.525320   4.628185   3.977763   3.451383   4.279192
    39  Pt   3.225904   4.020789   3.160377   2.922851   3.928579
                   26         27         28         29         30
    26  H    0.000000
    27  H    1.772943   0.000000
    28  C    5.699124   5.805421   0.000000
    29  H    6.640231   6.626761   1.092245   0.000000
    30  H    5.452972   5.863535   1.087133   1.773434   0.000000
    31  H    5.999714   6.136212   1.086802   1.780251   1.774302
    32  C    4.758075   4.499977   2.408370   2.672642   2.610625
    33  H    4.362350   4.478279   2.687129   3.094086   2.426209
    34  H    5.832462   5.530929   2.603623   2.397721   2.885224
    35  H    4.478177   3.876620   3.355024   3.638452   3.631534
    36  H    3.619102   4.302539   3.005113   4.096896   2.812084
    37  H    7.187759   5.630494   7.054838   7.340369   7.900613
    38  C    4.052254   3.123661   3.929772   4.628186   4.525312
    39  Pt   3.038412   3.031827   3.044929   4.020788   3.225891
                   31         32         33         34         35
    31  H    0.000000
    32  C    3.357618   0.000000
    33  H    3.657462   1.087030   0.000000
    34  H    3.623497   1.092222   1.775991   0.000000
    35  H    4.189565   1.086756   1.772956   1.778729   0.000000
    36  H    2.834582   3.825171   3.619080   4.702353   4.302536
    37  H    7.065862   6.300599   7.187867   6.713325   5.630631
    38  C    3.977727   3.451434   4.052318   4.279241   3.123743
    39  Pt   3.160382   2.922841   3.038412   3.928577   3.031825
                   36         37         38         39
    36  H    0.000000
    37  H    7.224389   0.000000
    38  C    3.460615   3.807451   0.000000
    39  Pt   1.703603   5.716442   1.911022   0.000000
 Stoichiometry    C13H23N2Pt(1+)
 Framework group  C1[X(C13H23N2Pt)]
 Deg. of freedom   111
 Full point group                 C1      NOp   1
 Largest Abelian subgroup         C1      NOp   1
 Largest concise Abelian subgroup C1      NOp   1
                         Standard orientation:                         
 ---------------------------------------------------------------------
 Center     Atomic      Atomic             Coordinates (Angstroms)
 Number     Number       Type             X           Y           Z
 ---------------------------------------------------------------------
      1          6           0        1.921747    1.217393   -0.102478
      2          6           0        1.921615   -1.217587   -0.102427
      3          6           0        3.307651    1.214176   -0.033602
      4          6           0        3.307520   -1.214514   -0.033551
      5          6           0        3.986540   -0.000207    0.018804
      6          1           0        3.862814    2.143624   -0.032713
      7          1           0        3.862585   -2.144016   -0.032621
      8          6           0        1.033238    2.405287   -0.329809
      9          1           0        1.017103    2.628816   -1.396530
     10          1           0        1.361956    3.306245    0.190546
     11          6           0        1.032986   -2.405393   -0.329746
     12          1           0        1.016869   -2.628964   -1.396457
     13          1           0        1.361596   -3.306365    0.190649
     14          7           0       -0.384405    2.090413    0.074836
     15          7           0       -0.384634   -2.090367    0.074827
     16          6           0       -3.349266    0.000147   -0.132019
     17          1           0       -2.834585    0.000165    0.835790
     18          1           0       -3.962363    0.894870   -0.186893
     19          1           0       -3.962301   -0.894620   -0.186872
     20          6           0       -1.314092    2.895207   -0.742637
     21          1           0       -2.331013    2.733532   -0.393958
     22          1           0       -1.072812    3.956546   -0.651323
     23          1           0       -1.236861    2.592616   -1.783610
     24          6           0       -0.557231    2.459465    1.501819
     25          1           0       -0.427405    3.537524    1.619582
     26          1           0       -1.553205    2.181250    1.836854
     27          1           0        0.182659    1.938292    2.103452
     28          6           0       -1.314368   -2.895053   -0.742704
     29          1           0       -1.073228   -3.956424   -0.651370
     30          1           0       -2.331297   -2.733258   -0.394086
     31          1           0       -1.237045   -2.592474   -1.783668
     32          6           0       -0.557594   -2.459415    1.501791
     33          1           0       -1.553565   -2.181100    1.836776
     34          1           0       -0.427887   -3.537496    1.619555
     35          1           0        0.182321   -1.938328    2.103483
     36          1           0       -2.076297    0.000151   -1.003406
     37          1           0        5.066373   -0.000261    0.080135
     38          6           0        1.262951   -0.000064   -0.094958
     39         78           0       -0.647966    0.000035   -0.074896
 ---------------------------------------------------------------------
 Rotational constants (GHZ):           0.5410524           0.4640327           0.2790785
 Standard basis: def2TZVPP (5D, 7F)
 There are   956 symmetry adapted cartesian basis functions of A   symmetry.
 There are   843 symmetry adapted basis functions of A   symmetry.
   843 basis functions,  1256 primitive gaussians,   956 cartesian basis functions
    66 alpha electrons       66 beta electrons
       nuclear repulsion energy      1403.6523405692 Hartrees.
 NAtoms=   39 NActive=   39 NUniq=   39 SFac= 1.00D+00 NAtFMM=   60 NAOKFM=F Big=F
 Integral buffers will be    131072 words long.
 Raffenetti 2 integral format.
 Two-electron integral symmetry is turned on.
 Nuclear repulsion after empirical dispersion term =     1403.6092965716 Hartrees.
 ------------------------------------------------------------------------------
 Polarizable Continuum Model (PCM)
 =================================
 Model                : PCM.
 Atomic radii         : UFF (Universal Force Field).
 Polarization charges : Total charges.
 Charge compensation  : None.
 Solution method      : On-the-fly selection.
 Cavity type          : Scaled VdW (van der Waals Surface) (Alpha=1.100).
 Cavity algorithm     : GePol (No added spheres)
                        Default sphere list used, NSphG=   39.
                        Lebedev-Laikov grids with approx.  5.0 points / Ang**2.
                        Smoothing algorithm: York/Karplus (Gamma=1.0000).
                        Polarization charges: spherical gaussians, with
                                              point-specific exponents (IZeta= 3).
                        Self-potential: point-specific (ISelfS= 7).
                        Self-field    : sphere-specific E.n sum rule (ISelfD= 2).
 1st derivatives      : Analytical E(r).r(x)/FMM algorithm (CHGder, D1EAlg=3).
                        Cavity 1st derivative terms included.
 Solvent              : Dichloromethane, Eps=   8.930000 Eps(inf)=   2.028346
 ------------------------------------------------------------------------------
 One-electron integrals computed using PRISM.
   1 Symmetry operations used in ECPInt.
 ECPInt:  NShTT=   51040 NPrTT=  129700 LenC2=   46637 LenP2D=   91353.
 LDataN:  DoStor=T MaxTD1= 9 Len=  602
 Number of processors reduced to  41 by ecpmxn.
 NBasis=   843 RedAO= T EigKep=  5.20D-06  NBF=   843
 NBsUse=   843 1.00D-06 EigRej= -1.00D+00 NBFU=   843
 Defaulting to unpruned grid for atomic number  78.
 ExpMin= 4.92D-02 ExpMax= 1.97D+04 ExpMxC= 6.73D+02 IAcc=3 IRadAn=         5 AccDes= 0.00D+00
 Harris functional with IExCor= 4639 and IRadAn=       5 diagonalized for initial guess.
 HarFok:  IExCor= 4639 AccDes= 0.00D+00 IRadAn=         5 IDoV= 1 UseB2=F ITyADJ=14
 ICtDFT=  3500011 ScaDFX=  1.000000  1.000000  1.000000  1.000000
 Defaulting to unpruned grid for atomic number  78.
 FoFCou: FMM=F IPFlag=           0 FMFlag=      100000 FMFlg1=           0
         NFxFlg=           0 DoJE=T BraDBF=F KetDBF=T FulRan=T
         wScrn=  0.000000 ICntrl=       500 IOpCl=  0 I1Cent=   200000004 NGrid=           0
         NMat0=    1 NMatS0=      1 NMatT0=    0 NMatD0=    1 NMtDS0=    0 NMtDT0=    0
 Petite list used in FoFCou.
 Requested convergence on RMS density matrix=1.00D-08 within 128 cycles.
 Requested convergence on MAX density matrix=1.00D-06.
 Requested convergence on             energy=1.00D-06.
 No special actions if energy rises.
 Defaulting to unpruned grid for atomic number  78.
 Defaulting to unpruned grid for atomic number  78.
 Defaulting to unpruned grid for atomic number  78.
 Defaulting to unpruned grid for atomic number  78.
 Defaulting to unpruned grid for atomic number  78.
 Defaulting to unpruned grid for atomic number  78.
 Defaulting to unpruned grid for atomic number  78.
 Defaulting to unpruned grid for atomic number  78.
 Defaulting to unpruned grid for atomic number  78.
 Defaulting to unpruned grid for atomic number  78.
 Defaulting to unpruned grid for atomic number  78.
 Defaulting to unpruned grid for atomic number  78.
 Defaulting to unpruned grid for atomic number  78.
 Defaulting to unpruned grid for atomic number  78.
 Defaulting to unpruned grid for atomic number  78.
 Defaulting to unpruned grid for atomic number  78.
 Defaulting to unpruned grid for atomic number  78.
 Defaulting to unpruned grid for atomic number  78.
 Defaulting to unpruned grid for atomic number  78.
 Defaulting to unpruned grid for atomic number  78.
 Defaulting to unpruned grid for atomic number  78.
 Defaulting to unpruned grid for atomic number  78.
 Defaulting to unpruned grid for atomic number  78.
 Defaulting to unpruned grid for atomic number  78.
 Defaulting to unpruned grid for atomic number  78.
 Defaulting to unpruned grid for atomic number  78.
 Defaulting to unpruned grid for atomic number  78.
 Defaulting to unpruned grid for atomic number  78.
 Defaulting to unpruned grid for atomic number  78.
 Defaulting to unpruned grid for atomic number  78.
 Defaulting to unpruned grid for atomic number  78.
 Defaulting to unpruned grid for atomic number  78.
 Defaulting to unpruned grid for atomic number  78.
 Defaulting to unpruned grid for atomic number  78.
 Defaulting to unpruned grid for atomic number  78.
 Defaulting to unpruned grid for atomic number  78.
 Defaulting to unpruned grid for atomic number  78.
 Defaulting to unpruned grid for atomic number  78.
 Defaulting to unpruned grid for atomic number  78.
 Defaulting to unpruned grid for atomic number  78.
 Defaulting to unpruned grid for atomic number  78.
 Defaulting to unpruned grid for atomic number  78.
 Defaulting to unpruned grid for atomic number  78.
 Defaulting to unpruned grid for atomic number  78.
 Defaulting to unpruned grid for atomic number  78.
 Defaulting to unpruned grid for atomic number  78.
 Defaulting to unpruned grid for atomic number  78.
 Defaulting to unpruned grid for atomic number  78.
 Inv3:  Mode=1 IEnd=    19036083.
 Iteration    1 A*A^-1 deviation from unit magnitude is 2.89D-15 for    370.
 Iteration    1 A*A^-1 deviation from orthogonality  is 2.17D-15 for   2217    986.
 Iteration    1 A^-1*A deviation from unit magnitude is 2.89D-15 for    570.
 Iteration    1 A^-1*A deviation from orthogonality  is 1.69D-15 for   2197    153.
 Error on total polarization charges =  0.01971
 SCF Done:  E(RwB97XD) =  -738.015633669     A.U. after   17 cycles
            NFock= 17  Conv=0.35D-08     -V/T= 2.1258

 **********************************************************************

            Population analysis using the SCF Density.

 **********************************************************************

 Orbital symmetries:
       Occupied  (A) (A) (A) (A) (A) (A) (A) (A) (A) (A) (A) (A)
                 (A) (A) (A) (A) (A) (A) (A) (A) (A) (A) (A) (A)
                 (A) (A) (A) (A) (A) (A) (A) (A) (A) (A) (A) (A)
                 (A) (A) (A) (A) (A) (A) (A) (A) (A) (A) (A) (A)
                 (A) (A) (A) (A) (A) (A) (A) (A) (A) (A) (A) (A)
                 (A) (A) (A) (A) (A) (A)
       Virtual   (A) (A) (A) (A) (A) (A) (A) (A) (A) (A) (A) (A)
                 (A) (A) (A) (A) (A) (A) (A) (A) (A) (A) (A) (A)
                 (A) (A) (A) (A) (A) (A) (A) (A) (A) (A) (A) (A)
                 (A) (A) (A) (A) (A) (A) (A) (A) (A) (A) (A) (A)
                 (A) (A) (A) (A) (A) (A) (A) (A) (A) (A) (A) (A)
                 (A) (A) (A) (A) (A) (A) (A) (A) (A) (A) (A) (A)
                 (A) (A) (A) (A) (A) (A) (A) (A) (A) (A) (A) (A)
                 (A) (A) (A) (A) (A) (A) (A) (A) (A) (A) (A) (A)
                 (A) (A) (A) (A) (A) (A) (A) (A) (A) (A) (A) (A)
                 (A) (A) (A) (A) (A) (A) (A) (A) (A) (A) (A) (A)
                 (A) (A) (A) (A) (A) (A) (A) (A) (A) (A) (A) (A)
                 (A) (A) (A) (A) (A) (A) (A) (A) (A) (A) (A) (A)
                 (A) (A) (A) (A) (A) (A) (A) (A) (A) (A) (A) (A)
                 (A) (A) (A) (A) (A) (A) (A) (A) (A) (A) (A) (A)
                 (A) (A) (A) (A) (A) (A) (A) (A) (A) (A) (A) (A)
                 (A) (A) (A) (A) (A) (A) (A) (A) (A) (A) (A) (A)
                 (A) (A) (A) (A) (A) (A) (A) (A) (A) (A) (A) (A)
                 (A) (A) (A) (A) (A) (A) (A) (A) (A) (A) (A) (A)
                 (A) (A) (A) (A) (A) (A) (A) (A) (A) (A) (A) (A)
                 (A) (A) (A) (A) (A) (A) (A) (A) (A) (A) (A) (A)
                 (A) (A) (A) (A) (A) (A) (A) (A) (A) (A) (A) (A)
                 (A) (A) (A) (A) (A) (A) (A) (A) (A) (A) (A) (A)
                 (A) (A) (A) (A) (A) (A) (A) (A) (A) (A) (A) (A)
                 (A) (A) (A) (A) (A) (A) (A) (A) (A) (A) (A) (A)
                 (A) (A) (A) (A) (A) (A) (A) (A) (A) (A) (A) (A)
                 (A) (A) (A) (A) (A) (A) (A) (A) (A) (A) (A) (A)
                 (A) (A) (A) (A) (A) (A) (A) (A) (A) (A) (A) (A)
                 (A) (A) (A) (A) (A) (A) (A) (A) (A) (A) (A) (A)
                 (A) (A) (A) (A) (A) (A) (A) (A) (A) (A) (A) (A)
                 (A) (A) (A) (A) (A) (A) (A) (A) (A) (A) (A) (A)
                 (A) (A) (A) (A) (A) (A) (A) (A) (A) (A) (A) (A)
                 (A) (A) (A) (A) (A) (A) (A) (A) (A) (A) (A) (A)
                 (A) (A) (A) (A) (A) (A) (A) (A) (A) (A) (A) (A)
                 (A) (A) (A) (A) (A) (A) (A) (A) (A) (A) (A) (A)
                 (A) (A) (A) (A) (A) (A) (A) (A) (A) (A) (A) (A)
                 (A) (A) (A) (A) (A) (A) (A) (A) (A) (A) (A) (A)
                 (A) (A) (A) (A) (A) (A) (A) (A) (A) (A) (A) (A)
                 (A) (A) (A) (A) (A) (A) (A) (A) (A) (A) (A) (A)
                 (A) (A) (A) (A) (A) (A) (A) (A) (A) (A) (A) (A)
                 (A) (A) (A) (A) (A) (A) (A) (A) (A) (A) (A) (A)
                 (A) (A) (A) (A) (A) (A) (A) (A) (A) (A) (A) (A)
                 (A) (A) (A) (A) (A) (A) (A) (A) (A) (A) (A) (A)
                 (A) (A) (A) (A) (A) (A) (A) (A) (A) (A) (A) (A)
                 (A) (A) (A) (A) (A) (A) (A) (A) (A) (A) (A) (A)
                 (A) (A) (A) (A) (A) (A) (A) (A) (A) (A) (A) (A)
                 (A) (A) (A) (A) (A) (A) (A) (A) (A) (A) (A) (A)
                 (A) (A) (A) (A) (A) (A) (A) (A) (A) (A) (A) (A)
                 (A) (A) (A) (A) (A) (A) (A) (A) (A) (A) (A) (A)
                 (A) (A) (A) (A) (A) (A) (A) (A) (A) (A) (A) (A)
                 (A) (A) (A) (A) (A) (A) (A) (A) (A) (A) (A) (A)
                 (A) (A) (A) (A) (A) (A) (A) (A) (A) (A) (A) (A)
                 (A) (A) (A) (A) (A) (A) (A) (A) (A) (A) (A) (A)
                 (A) (A) (A) (A) (A) (A) (A) (A) (A) (A) (A) (A)
                 (A) (A) (A) (A) (A) (A) (A) (A) (A) (A) (A) (A)
                 (A) (A) (A) (A) (A) (A) (A) (A) (A) (A) (A) (A)
                 (A) (A) (A) (A) (A) (A) (A) (A) (A) (A) (A) (A)
                 (A) (A) (A) (A) (A) (A) (A) (A) (A) (A) (A) (A)
                 (A) (A) (A) (A) (A) (A) (A) (A) (A) (A) (A) (A)
                 (A) (A) (A) (A) (A) (A) (A) (A) (A) (A) (A) (A)
                 (A) (A) (A) (A) (A) (A) (A) (A) (A) (A) (A) (A)
                 (A) (A) (A) (A) (A) (A) (A) (A) (A) (A) (A) (A)
                 (A) (A) (A) (A) (A) (A) (A) (A) (A) (A) (A) (A)
                 (A) (A) (A) (A) (A) (A) (A) (A) (A) (A) (A) (A)
                 (A) (A) (A) (A) (A) (A) (A) (A) (A) (A) (A) (A)
                 (A) (A) (A) (A) (A) (A) (A) (A) (A)
 The electronic state is 1-A.
 Alpha  occ. eigenvalues --  -14.53804 -14.53803 -10.34970 -10.34969 -10.33713
 Alpha  occ. eigenvalues --  -10.33712 -10.33600 -10.33599 -10.33235 -10.31676
 Alpha  occ. eigenvalues --  -10.31672 -10.31273 -10.30640 -10.30633 -10.30407
 Alpha  occ. eigenvalues --   -4.06886  -2.31698  -2.31174  -2.28634  -1.09352
 Alpha  occ. eigenvalues --   -1.08855  -0.98836  -0.91208  -0.88640  -0.84759
 Alpha  occ. eigenvalues --   -0.84731  -0.82651  -0.82230  -0.81276  -0.75664
 Alpha  occ. eigenvalues --   -0.74131  -0.70543  -0.70271  -0.64514  -0.61933
 Alpha  occ. eigenvalues --   -0.61171  -0.60761  -0.60123  -0.59201  -0.58969
 Alpha  occ. eigenvalues --   -0.56187  -0.56095  -0.53628  -0.53288  -0.52997
 Alpha  occ. eigenvalues --   -0.51841  -0.51486  -0.51276  -0.50609  -0.50345
 Alpha  occ. eigenvalues --   -0.49713  -0.48952  -0.48811  -0.48765  -0.47927
 Alpha  occ. eigenvalues --   -0.47476  -0.45964  -0.44790  -0.42759  -0.41835
 Alpha  occ. eigenvalues --   -0.39156  -0.38155  -0.37325  -0.34572  -0.34281
 Alpha  occ. eigenvalues --   -0.31356
 Alpha virt. eigenvalues --    0.00921   0.01965   0.03290   0.05417   0.07951
 Alpha virt. eigenvalues --    0.09563   0.10174   0.11985   0.12996   0.13352
 Alpha virt. eigenvalues --    0.13552   0.13913   0.14440   0.15039   0.15074
 Alpha virt. eigenvalues --    0.15241   0.15317   0.16218   0.16457   0.17208
 Alpha virt. eigenvalues --    0.17626   0.18641   0.18846   0.19166   0.19663
 Alpha virt. eigenvalues --    0.19716   0.20580   0.21016   0.21592   0.21908
 Alpha virt. eigenvalues --    0.22600   0.22779   0.23424   0.23700   0.24419
 Alpha virt. eigenvalues --    0.24657   0.25883   0.26448   0.26503   0.28077
 Alpha virt. eigenvalues --    0.28313   0.28353   0.29624   0.30283   0.30421
 Alpha virt. eigenvalues --    0.31104   0.31776   0.31889   0.32708   0.33102
 Alpha virt. eigenvalues --    0.34126   0.34800   0.34829   0.35479   0.36258
 Alpha virt. eigenvalues --    0.36899   0.37593   0.37641   0.38144   0.38575
 Alpha virt. eigenvalues --    0.39249   0.39657   0.40479   0.41913   0.41966
 Alpha virt. eigenvalues --    0.42195   0.42767   0.43133   0.44262   0.44428
 Alpha virt. eigenvalues --    0.45223   0.45399   0.45894   0.46198   0.46637
 Alpha virt. eigenvalues --    0.47012   0.47503   0.47696   0.48017   0.48124
 Alpha virt. eigenvalues --    0.48765   0.49197   0.49234   0.49816   0.49953
 Alpha virt. eigenvalues --    0.50069   0.50729   0.50935   0.51234   0.51494
 Alpha virt. eigenvalues --    0.52068   0.52278   0.53695   0.54584   0.54948
 Alpha virt. eigenvalues --    0.55485   0.55942   0.56144   0.56170   0.56880
 Alpha virt. eigenvalues --    0.58024   0.58522   0.59064   0.59450   0.59932
 Alpha virt. eigenvalues --    0.60044   0.60332   0.60764   0.60779   0.62143
 Alpha virt. eigenvalues --    0.63009   0.64510   0.65015   0.66326   0.66600
 Alpha virt. eigenvalues --    0.67505   0.67602   0.68167   0.69030   0.69156
 Alpha virt. eigenvalues --    0.71824   0.72362   0.72541   0.73230   0.73546
 Alpha virt. eigenvalues --    0.74327   0.76290   0.76345   0.77103   0.77465
 Alpha virt. eigenvalues --    0.78995   0.79156   0.79717   0.81692   0.82064
 Alpha virt. eigenvalues --    0.82844   0.84077   0.85180   0.85685   0.86706
 Alpha virt. eigenvalues --    0.87549   0.87643   0.88419   0.88505   0.89091
 Alpha virt. eigenvalues --    0.90034   0.90295   0.90565   0.92005   0.92257
 Alpha virt. eigenvalues --    0.93248   0.94572   0.95325   0.95631   0.96864
 Alpha virt. eigenvalues --    0.98037   0.98234   0.98354   0.98668   0.99402
 Alpha virt. eigenvalues --    0.99482   1.00456   1.01120   1.01951   1.02917
 Alpha virt. eigenvalues --    1.02942   1.03745   1.03850   1.04522   1.05306
 Alpha virt. eigenvalues --    1.05660   1.06147   1.07364   1.07381   1.08810
 Alpha virt. eigenvalues --    1.08929   1.09914   1.10100   1.10382   1.10412
 Alpha virt. eigenvalues --    1.11391   1.12069   1.12073   1.12983   1.14023
 Alpha virt. eigenvalues --    1.14584   1.14857   1.16602   1.17312   1.17434
 Alpha virt. eigenvalues --    1.18489   1.18640   1.19150   1.20414   1.20417
 Alpha virt. eigenvalues --    1.22105   1.22307   1.22358   1.22677   1.23623
 Alpha virt. eigenvalues --    1.24992   1.25320   1.25916   1.26163   1.27688
 Alpha virt. eigenvalues --    1.27743   1.29636   1.30028   1.30408   1.30967
 Alpha virt. eigenvalues --    1.30971   1.32006   1.33301   1.33955   1.34198
 Alpha virt. eigenvalues --    1.34259   1.34609   1.35675   1.35740   1.36466
 Alpha virt. eigenvalues --    1.37615   1.37952   1.39685   1.39864   1.40268
 Alpha virt. eigenvalues --    1.41588   1.41984   1.42192   1.42565   1.43920
 Alpha virt. eigenvalues --    1.43979   1.44128   1.45235   1.45800   1.46041
 Alpha virt. eigenvalues --    1.46773   1.47433   1.47595   1.48064   1.49487
 Alpha virt. eigenvalues --    1.50401   1.50701   1.51831   1.51992   1.52666
 Alpha virt. eigenvalues --    1.53147   1.54198   1.54353   1.54802   1.55079
 Alpha virt. eigenvalues --    1.55366   1.56092   1.56754   1.58164   1.58986
 Alpha virt. eigenvalues --    1.59488   1.59602   1.60899   1.60914   1.61746
 Alpha virt. eigenvalues --    1.61985   1.62707   1.63581   1.64600   1.65107
 Alpha virt. eigenvalues --    1.65499   1.66049   1.68258   1.68808   1.69988
 Alpha virt. eigenvalues --    1.70254   1.70879   1.71708   1.71947   1.73162
 Alpha virt. eigenvalues --    1.73663   1.74936   1.75058   1.76247   1.76808
 Alpha virt. eigenvalues --    1.77016   1.79756   1.79835   1.80695   1.81101
 Alpha virt. eigenvalues --    1.81940   1.82332   1.84117   1.84439   1.85748
 Alpha virt. eigenvalues --    1.86419   1.87876   1.88493   1.89221   1.90673
 Alpha virt. eigenvalues --    1.91119   1.92476   1.93732   1.94934   1.96880
 Alpha virt. eigenvalues --    1.97437   1.97962   1.99382   2.02398   2.02563
 Alpha virt. eigenvalues --    2.03272   2.07345   2.07534   2.08850   2.08978
 Alpha virt. eigenvalues --    2.12296   2.13376   2.14627   2.15220   2.16836
 Alpha virt. eigenvalues --    2.17335   2.18918   2.21332   2.21989   2.23404
 Alpha virt. eigenvalues --    2.23793   2.25046   2.25496   2.26643   2.30078
 Alpha virt. eigenvalues --    2.30454   2.32066   2.32899   2.34611   2.36964
 Alpha virt. eigenvalues --    2.38730   2.38954   2.40002   2.40843   2.43841
 Alpha virt. eigenvalues --    2.48918   2.49105   2.50618   2.53228   2.53526
 Alpha virt. eigenvalues --    2.55527   2.57170   2.58720   2.59591   2.60580
 Alpha virt. eigenvalues --    2.60627   2.61419   2.63205   2.64783   2.64888
 Alpha virt. eigenvalues --    2.65886   2.66650   2.66738   2.68247   2.69096
 Alpha virt. eigenvalues --    2.70190   2.71147   2.71737   2.71896   2.72838
 Alpha virt. eigenvalues --    2.73595   2.75336   2.75833   2.76679   2.76977
 Alpha virt. eigenvalues --    2.79120   2.79516   2.81596   2.81892   2.83356
 Alpha virt. eigenvalues --    2.83563   2.84064   2.84963   2.85042   2.85847
 Alpha virt. eigenvalues --    2.86060   2.86367   2.87753   2.88667   2.89430
 Alpha virt. eigenvalues --    2.89829   2.90155   2.91106   2.91584   2.92688
 Alpha virt. eigenvalues --    2.92871   2.94471   2.94504   2.94954   2.95066
 Alpha virt. eigenvalues --    2.96228   2.96817   2.97619   2.98163   2.98611
 Alpha virt. eigenvalues --    2.99207   3.00278   3.00799   3.01262   3.02238
 Alpha virt. eigenvalues --    3.02731   3.03080   3.04014   3.06088   3.06415
 Alpha virt. eigenvalues --    3.07133   3.07367   3.07789   3.08828   3.09358
 Alpha virt. eigenvalues --    3.09540   3.09954   3.11177   3.11647   3.12894
 Alpha virt. eigenvalues --    3.12952   3.13711   3.13937   3.14699   3.15588
 Alpha virt. eigenvalues --    3.16718   3.17361   3.17835   3.18712   3.19066
 Alpha virt. eigenvalues --    3.20174   3.20640   3.20902   3.22295   3.23288
 Alpha virt. eigenvalues --    3.23578   3.23887   3.24981   3.25168   3.25801
 Alpha virt. eigenvalues --    3.27015   3.27064   3.28610   3.28648   3.29726
 Alpha virt. eigenvalues --    3.30057   3.31493   3.31510   3.32318   3.32534
 Alpha virt. eigenvalues --    3.32730   3.33403   3.34663   3.34778   3.35359
 Alpha virt. eigenvalues --    3.35705   3.37801   3.38080   3.39641   3.40471
 Alpha virt. eigenvalues --    3.40733   3.41656   3.41930   3.42233   3.42936
 Alpha virt. eigenvalues --    3.43241   3.43841   3.44296   3.44850   3.46015
 Alpha virt. eigenvalues --    3.47059   3.47818   3.48209   3.48697   3.48874
 Alpha virt. eigenvalues --    3.49856   3.50667   3.51618   3.51810   3.51831
 Alpha virt. eigenvalues --    3.52192   3.54315   3.54706   3.55158   3.55251
 Alpha virt. eigenvalues --    3.55565   3.55750   3.57228   3.57792   3.58570
 Alpha virt. eigenvalues --    3.59289   3.59755   3.60549   3.60575   3.62336
 Alpha virt. eigenvalues --    3.62757   3.63105   3.63248   3.65141   3.65216
 Alpha virt. eigenvalues --    3.65938   3.66729   3.67242   3.68318   3.68406
 Alpha virt. eigenvalues --    3.69139   3.69252   3.69694   3.70352   3.71486
 Alpha virt. eigenvalues --    3.71975   3.72414   3.74320   3.74374   3.75322
 Alpha virt. eigenvalues --    3.75392   3.77036   3.77154   3.77352   3.78183
 Alpha virt. eigenvalues --    3.79147   3.80568   3.81263   3.81325   3.81971
 Alpha virt. eigenvalues --    3.82276   3.82456   3.82797   3.83258   3.83733
 Alpha virt. eigenvalues --    3.85142   3.85749   3.86372   3.87743   3.88098
 Alpha virt. eigenvalues --    3.88660   3.89935   3.91117   3.91297   3.92865
 Alpha virt. eigenvalues --    3.94143   3.94937   3.95935   3.95973   3.96823
 Alpha virt. eigenvalues --    3.97484   3.98112   3.98470   3.98904   3.99453
 Alpha virt. eigenvalues --    4.00099   4.00725   4.02206   4.02867   4.04167
 Alpha virt. eigenvalues --    4.04395   4.05617   4.06740   4.08272   4.08301
 Alpha virt. eigenvalues --    4.08994   4.10080   4.10371   4.12207   4.12861
 Alpha virt. eigenvalues --    4.13659   4.14357   4.15306   4.15627   4.16306
 Alpha virt. eigenvalues --    4.16374   4.17035   4.17784   4.18895   4.19602
 Alpha virt. eigenvalues --    4.20238   4.20846   4.21108   4.21716   4.22717
 Alpha virt. eigenvalues --    4.23267   4.24025   4.24445   4.24618   4.25161
 Alpha virt. eigenvalues --    4.25240   4.26258   4.26769   4.27921   4.28061
 Alpha virt. eigenvalues --    4.28090   4.29377   4.29433   4.30131   4.31546
 Alpha virt. eigenvalues --    4.31643   4.32168   4.32421   4.33021   4.33519
 Alpha virt. eigenvalues --    4.34325   4.34860   4.36112   4.36251   4.36306
 Alpha virt. eigenvalues --    4.36650   4.37359   4.37607   4.38915   4.38941
 Alpha virt. eigenvalues --    4.39190   4.40567   4.41090   4.42638   4.43829
 Alpha virt. eigenvalues --    4.45064   4.45259   4.46574   4.46578   4.47722
 Alpha virt. eigenvalues --    4.50116   4.50214   4.51326   4.52143   4.54120
 Alpha virt. eigenvalues --    4.54162   4.55626   4.58130   4.58273   4.59650
 Alpha virt. eigenvalues --    4.60710   4.61998   4.63054   4.65758   4.67857
 Alpha virt. eigenvalues --    4.68653   4.70522   4.71184   4.71749   4.73552
 Alpha virt. eigenvalues --    4.73615   4.75488   4.75772   4.76778   4.76922
 Alpha virt. eigenvalues --    4.77481   4.77859   4.79001   4.79996   4.81014
 Alpha virt. eigenvalues --    4.83634   4.84328   4.84929   4.85512   4.87302
 Alpha virt. eigenvalues --    4.90170   4.91651   4.92785   4.93227   4.94573
 Alpha virt. eigenvalues --    4.95335   4.96800   4.97910   4.98283   5.00741
 Alpha virt. eigenvalues --    5.02526   5.03123   5.05316   5.08105   5.08707
 Alpha virt. eigenvalues --    5.08856   5.11139   5.11477   5.12054   5.12687
 Alpha virt. eigenvalues --    5.13597   5.13985   5.14595   5.18073   5.18114
 Alpha virt. eigenvalues --    5.18498   5.19049   5.19934   5.21093   5.21916
 Alpha virt. eigenvalues --    5.22791   5.23267   5.23800   5.24824   5.25395
 Alpha virt. eigenvalues --    5.27679   5.27828   5.29500   5.31364   5.31756
 Alpha virt. eigenvalues --    5.31786   5.31992   5.33025   5.34120   5.35637
 Alpha virt. eigenvalues --    5.35665   5.36652   5.37110   5.37396   5.38244
 Alpha virt. eigenvalues --    5.39385   5.40321   5.41297   5.41768   5.42951
 Alpha virt. eigenvalues --    5.43536   5.44959   5.45040   5.46744   5.47430
 Alpha virt. eigenvalues --    5.49659   5.50694   5.50950   5.53692   5.53946
 Alpha virt. eigenvalues --    5.54855   5.56123   5.57652   5.59305   5.60665
 Alpha virt. eigenvalues --    5.60950   5.62259   5.63362   5.64172   5.65462
 Alpha virt. eigenvalues --    5.65922   5.67107   5.67571   5.68019   5.69597
 Alpha virt. eigenvalues --    5.69946   5.72128   5.72153   5.75543   5.76132
 Alpha virt. eigenvalues --    5.76774   5.77459   5.77497   5.79472   5.79807
 Alpha virt. eigenvalues --    5.80901   5.81228   5.83954   5.86204   5.92311
 Alpha virt. eigenvalues --    5.94359   5.96078   6.00138   6.01630   6.06359
 Alpha virt. eigenvalues --    6.08890   6.12197   6.13785   6.14232   6.31618
 Alpha virt. eigenvalues --    6.32040   6.56306  22.58939  23.27807  23.29452
 Alpha virt. eigenvalues --   23.33014  23.34473  23.44267  23.53378  23.62753
 Alpha virt. eigenvalues --   23.79406  23.86030  23.89290  23.91516  24.08109
 Alpha virt. eigenvalues --   31.35487  32.87870  32.88443  37.09838  39.32858
 Alpha virt. eigenvalues --   53.25677 285.20462
          Condensed to atoms (all electrons):
               1          2          3          4          5          6
     1  C    5.480950  -0.033825   0.404007  -0.097628  -0.014382  -0.038959
     2  C   -0.033825   5.480945  -0.097625   0.404001  -0.014382  -0.001206
     3  C    0.404007  -0.097625   5.052232   0.033176   0.457649   0.436958
     4  C   -0.097628   0.404001   0.033176   5.052236   0.457651   0.006913
     5  C   -0.014382  -0.014382   0.457649   0.457651   4.907243  -0.036240
     6  H   -0.038959  -0.001206   0.436958   0.006913  -0.036240   0.497605
     7  H   -0.001206  -0.038959   0.006913   0.436959  -0.036240  -0.000183
     8  C    0.322008   0.016594  -0.072821  -0.005836   0.012344  -0.004839
     9  H   -0.034991   0.000169  -0.001503   0.000153   0.000017   0.000195
    10  H   -0.058083  -0.000353  -0.003417   0.000236  -0.000312   0.001381
    11  C    0.016593   0.322014  -0.005836  -0.072818   0.012344   0.000061
    12  H    0.000170  -0.034989   0.000153  -0.001503   0.000016  -0.000000
    13  H   -0.000353  -0.058084   0.000236  -0.003417  -0.000312  -0.000002
    14  N   -0.094685   0.016505  -0.000071  -0.000527  -0.000098   0.000048
    15  N    0.016507  -0.094681  -0.000527  -0.000071  -0.000098  -0.000006
    16  C    0.000784   0.000784   0.000048   0.000048  -0.000010   0.000000
    17  H   -0.000266  -0.000266   0.000008   0.000008  -0.000002  -0.000000
    18  H   -0.000051   0.000004  -0.000001  -0.000000   0.000000  -0.000000
    19  H    0.000004  -0.000051  -0.000000  -0.000001   0.000000  -0.000000
    20  C    0.017946  -0.000844  -0.000201   0.000049  -0.000011  -0.000011
    21  H   -0.000988   0.000027   0.000002  -0.000004   0.000003  -0.000001
    22  H    0.001377   0.000039  -0.000064  -0.000002  -0.000003   0.000012
    23  H   -0.000420  -0.000260  -0.000037   0.000025  -0.000015  -0.000002
    24  C    0.011880  -0.003123   0.002495   0.000227  -0.000281   0.000003
    25  H   -0.004508   0.000219  -0.000313  -0.000000  -0.000011  -0.000004
    26  H    0.000396  -0.000248  -0.000009  -0.000002   0.000008   0.000000
    27  H    0.011910  -0.000825   0.001771  -0.000045   0.000015   0.000038
    28  C   -0.000844   0.017946   0.000049  -0.000201  -0.000011   0.000001
    29  H    0.000039   0.001377  -0.000002  -0.000064  -0.000003  -0.000000
    30  H    0.000027  -0.000988  -0.000004   0.000002   0.000003  -0.000000
    31  H   -0.000260  -0.000420   0.000025  -0.000037  -0.000015   0.000000
    32  C   -0.003123   0.011880   0.000227   0.002495  -0.000281   0.000001
    33  H   -0.000248   0.000396  -0.000002  -0.000009   0.000008   0.000000
    34  H    0.000219  -0.004507  -0.000000  -0.000313  -0.000011  -0.000000
    35  H   -0.000825   0.011908  -0.000045   0.001771   0.000015   0.000001
    36  H    0.001147   0.001147   0.000147   0.000147  -0.000037   0.000001
    37  H    0.008697   0.008697  -0.041738  -0.041738   0.444493  -0.004197
    38  C    0.064665   0.064658   0.067105   0.067110  -0.128982   0.015955
    39  Pt  -0.070499  -0.070498   0.019105   0.019106  -0.004953  -0.000619
               7          8          9         10         11         12
     1  C   -0.001206   0.322008  -0.034991  -0.058083   0.016593   0.000170
     2  C   -0.038959   0.016594   0.000169  -0.000353   0.322014  -0.034989
     3  C    0.006913  -0.072821  -0.001503  -0.003417  -0.005836   0.000153
     4  C    0.436959  -0.005836   0.000153   0.000236  -0.072818  -0.001503
     5  C   -0.036240   0.012344   0.000017  -0.000312   0.012344   0.000016
     6  H   -0.000183  -0.004839   0.000195   0.001381   0.000061  -0.000000
     7  H    0.497605   0.000061  -0.000000  -0.000002  -0.004839   0.000195
     8  C    0.000061   4.917503   0.432150   0.433181  -0.000717  -0.000043
     9  H   -0.000000   0.432150   0.544336  -0.018286  -0.000043  -0.000007
    10  H   -0.000002   0.433181  -0.018286   0.536529   0.000027  -0.000001
    11  C   -0.004839  -0.000717  -0.000043   0.000027   4.917500   0.432148
    12  H    0.000195  -0.000043  -0.000007  -0.000001   0.432148   0.544338
    13  H    0.001380   0.000027  -0.000001  -0.000000   0.433183  -0.018286
    14  N   -0.000006   0.262261  -0.029807  -0.023443   0.001169   0.000035
    15  N    0.000048   0.001169   0.000035  -0.000044   0.262256  -0.029807
    16  C    0.000000   0.000419   0.000071  -0.000041   0.000419   0.000071
    17  H   -0.000000  -0.000129  -0.000017   0.000012  -0.000129  -0.000017
    18  H   -0.000000  -0.000001  -0.000003   0.000002  -0.000001   0.000000
    19  H   -0.000000  -0.000001   0.000000   0.000000  -0.000001  -0.000003
    20  C    0.000001  -0.040929  -0.004434  -0.006286  -0.000186  -0.000005
    21  H   -0.000000   0.009461   0.000519  -0.000387  -0.000012   0.000000
    22  H   -0.000000  -0.010152  -0.002627   0.003727   0.000007  -0.000000
    23  H    0.000000  -0.007815   0.001635  -0.000129  -0.000043   0.000002
    24  C    0.000001  -0.038480   0.005137  -0.011864   0.000042  -0.000000
    25  H   -0.000000  -0.012386   0.000164   0.005514   0.000002   0.000000
    26  H    0.000000   0.006883  -0.000236   0.000152  -0.000030   0.000000
    27  H    0.000001  -0.006224   0.000252  -0.003958   0.000078  -0.000003
    28  C   -0.000011  -0.000186  -0.000005   0.000002  -0.040927  -0.004435
    29  H    0.000012   0.000007  -0.000000  -0.000000  -0.010152  -0.002627
    30  H   -0.000001  -0.000012   0.000000   0.000000   0.009461   0.000519
    31  H   -0.000002  -0.000043   0.000002   0.000000  -0.007815   0.001635
    32  C    0.000003   0.000043  -0.000000   0.000005  -0.038479   0.005137
    33  H    0.000000  -0.000030   0.000000   0.000001   0.006883  -0.000236
    34  H   -0.000004   0.000002   0.000000  -0.000000  -0.012387   0.000164
    35  H    0.000038   0.000078  -0.000003   0.000001  -0.006221   0.000252
    36  H    0.000001  -0.001038  -0.000143   0.000005  -0.001038  -0.000143
    37  H   -0.004197  -0.000243   0.000001  -0.000006  -0.000243   0.000001
    38  C    0.015955  -0.126595  -0.007542   0.019654  -0.126602  -0.007542
    39  Pt  -0.000619  -0.041707  -0.003262   0.007618  -0.041712  -0.003262
              13         14         15         16         17         18
     1  C   -0.000353  -0.094685   0.016507   0.000784  -0.000266  -0.000051
     2  C   -0.058084   0.016505  -0.094681   0.000784  -0.000266   0.000004
     3  C    0.000236  -0.000071  -0.000527   0.000048   0.000008  -0.000001
     4  C   -0.003417  -0.000527  -0.000071   0.000048   0.000008  -0.000000
     5  C   -0.000312  -0.000098  -0.000098  -0.000010  -0.000002   0.000000
     6  H   -0.000002   0.000048  -0.000006   0.000000  -0.000000  -0.000000
     7  H    0.001380  -0.000006   0.000048   0.000000  -0.000000  -0.000000
     8  C    0.000027   0.262261   0.001169   0.000419  -0.000129  -0.000001
     9  H   -0.000001  -0.029807   0.000035   0.000071  -0.000017  -0.000003
    10  H   -0.000000  -0.023443  -0.000044  -0.000041   0.000012   0.000002
    11  C    0.433183   0.001169   0.262256   0.000419  -0.000129  -0.000001
    12  H   -0.018286   0.000035  -0.029807   0.000071  -0.000017   0.000000
    13  H    0.536532  -0.000044  -0.023443  -0.000041   0.000012   0.000000
    14  N   -0.000044   6.342794  -0.008113   0.003660   0.002530  -0.000681
    15  N   -0.023443  -0.008113   6.342784   0.003660   0.002530  -0.000124
    16  C   -0.000041   0.003660   0.003660   4.938144   0.349478   0.417835
    17  H    0.000012   0.002530   0.002530   0.349478   0.561601  -0.012878
    18  H    0.000000  -0.000681  -0.000124   0.417835  -0.012878   0.496322
    19  H    0.000002  -0.000124  -0.000682   0.417837  -0.012878  -0.015575
    20  C    0.000002   0.251687   0.000685   0.000538  -0.001529  -0.002037
    21  H    0.000000  -0.028651   0.000056   0.000947  -0.000630  -0.000619
    22  H   -0.000000  -0.018818  -0.000017  -0.000049  -0.000036   0.000035
    23  H    0.000000  -0.034215   0.000072  -0.000691   0.000195   0.000196
    24  C    0.000005   0.269766   0.000944  -0.000606   0.001301   0.000011
    25  H   -0.000000  -0.019857  -0.000031  -0.000119   0.000059   0.000006
    26  H    0.000001  -0.031657   0.000131  -0.000682  -0.000050  -0.000008
    27  H    0.000001  -0.028373   0.000177   0.000208  -0.000065  -0.000001
    28  C   -0.006286   0.000684   0.251689   0.000537  -0.001529   0.000155
    29  H    0.003726  -0.000017  -0.018817  -0.000050  -0.000036   0.000001
    30  H   -0.000387   0.000056  -0.028651   0.000947  -0.000630   0.000189
    31  H   -0.000129   0.000072  -0.034213  -0.000690   0.000195  -0.000033
    32  C   -0.011864   0.000944   0.269768  -0.000606   0.001300  -0.000035
    33  H    0.000152   0.000131  -0.031658  -0.000682  -0.000050   0.000035
    34  H    0.005514  -0.000031  -0.019857  -0.000119   0.000059   0.000001
    35  H   -0.003958   0.000177  -0.028373   0.000208  -0.000065  -0.000001
    36  H    0.000005  -0.004848  -0.004847   0.250644  -0.030349  -0.005058
    37  H   -0.000006   0.000009   0.000009  -0.000000  -0.000000   0.000000
    38  C    0.019654   0.037902   0.037901  -0.015103  -0.000290   0.000361
    39  Pt   0.007618   0.183465   0.183465  -0.007014   0.018862  -0.002582
              19         20         21         22         23         24
     1  C    0.000004   0.017946  -0.000988   0.001377  -0.000420   0.011880
     2  C   -0.000051  -0.000844   0.000027   0.000039  -0.000260  -0.003123
     3  C   -0.000000  -0.000201   0.000002  -0.000064  -0.000037   0.002495
     4  C   -0.000001   0.000049  -0.000004  -0.000002   0.000025   0.000227
     5  C    0.000000  -0.000011   0.000003  -0.000003  -0.000015  -0.000281
     6  H   -0.000000  -0.000011  -0.000001   0.000012  -0.000002   0.000003
     7  H   -0.000000   0.000001  -0.000000  -0.000000   0.000000   0.000001
     8  C   -0.000001  -0.040929   0.009461  -0.010152  -0.007815  -0.038480
     9  H    0.000000  -0.004434   0.000519  -0.002627   0.001635   0.005137
    10  H    0.000000  -0.006286  -0.000387   0.003727  -0.000129  -0.011864
[...]
    33  H    0.000000  -0.000031   0.000000   0.000000   0.006959  -0.000225
    34  H   -0.000004   0.000002  -0.000000  -0.000000  -0.012787   0.000156
    35  H    0.000039   0.000095  -0.000003   0.000001  -0.005441   0.000252
    36  H    0.000000  -0.000277   0.000013  -0.000002  -0.000277   0.000013
    37  H   -0.004230  -0.000250   0.000001  -0.000006  -0.000250   0.000001
    38  C    0.016432  -0.128987  -0.008257   0.019247  -0.128984  -0.008257
    39  Pt  -0.000673  -0.044545  -0.002877   0.007653  -0.044545  -0.002878
              13         14         15         16         17         18
     1  C   -0.000377  -0.092743   0.017363   0.000685  -0.000318  -0.000055
     2  C   -0.057081   0.017364  -0.092741   0.000685  -0.000318  -0.000013
     3  C    0.000217  -0.000115  -0.000627   0.000066   0.000062  -0.000002
     4  C   -0.003482  -0.000627  -0.000114   0.000066   0.000062  -0.000001
     5  C   -0.000273  -0.000035  -0.000035  -0.000015  -0.000017   0.000000
     6  H   -0.000002   0.000040  -0.000006   0.000001   0.000000  -0.000000
     7  H    0.001492  -0.000006   0.000040   0.000001   0.000000  -0.000000
     8  C    0.000029   0.261574   0.001059   0.000271  -0.000293   0.000007
     9  H   -0.000001  -0.031482   0.000027   0.000010  -0.000003  -0.000001
    10  H   -0.000000  -0.023173  -0.000043  -0.000031   0.000005   0.000001
    11  C    0.432571   0.001060   0.261571   0.000271  -0.000293   0.000006
    12  H   -0.019368   0.000027  -0.031483   0.000010  -0.000003   0.000001
    13  H    0.540160  -0.000043  -0.023173  -0.000031   0.000005   0.000000
    14  N   -0.000043   6.360086  -0.007848   0.001386   0.003036  -0.000733
    15  N   -0.023173  -0.007848   6.360103   0.001386   0.003035  -0.000085
    16  C   -0.000031   0.001386   0.001386   4.852294   0.346850   0.414561
    17  H    0.000005   0.003036   0.003035   0.346850   0.566963  -0.012384
    18  H    0.000000  -0.000733  -0.000085   0.414561  -0.012384   0.501650
    19  H    0.000001  -0.000085  -0.000733   0.414555  -0.012384  -0.009134
    20  C    0.000003   0.250823   0.000783   0.000970  -0.001858  -0.002869
    21  H   -0.000000  -0.029688   0.000051   0.002457  -0.001162  -0.000118
    22  H   -0.000000  -0.018367  -0.000016  -0.000180   0.000004   0.000007
    23  H    0.000000  -0.035066   0.000063  -0.000602   0.000177   0.000302
    24  C    0.000005   0.265330   0.000849  -0.002069   0.001953   0.000120
    25  H   -0.000000  -0.019200  -0.000028  -0.000166   0.000060  -0.000001
    26  H    0.000000  -0.031016   0.000146  -0.000257  -0.000995   0.000018
    27  H    0.000001  -0.029873   0.000120   0.000309  -0.000258   0.000014
    28  C   -0.006798   0.000783   0.250823   0.000972  -0.001857   0.000076
    29  H    0.003942  -0.000016  -0.018365  -0.000180   0.000004   0.000002
    30  H   -0.000460   0.000051  -0.029690   0.002457  -0.001162   0.000231
    31  H   -0.000161   0.000063  -0.035066  -0.000602   0.000177  -0.000026
    32  C   -0.012105   0.000849   0.265326  -0.002069   0.001953  -0.000000
    33  H    0.000093   0.000146  -0.031017  -0.000258  -0.000995   0.000058
    34  H    0.005723  -0.000028  -0.019200  -0.000166   0.000060   0.000001
    35  H   -0.003974   0.000120  -0.029873   0.000309  -0.000258  -0.000002
    36  H   -0.000002   0.000742   0.000741   0.345458  -0.024007  -0.011553
    37  H   -0.000006   0.000009   0.000009  -0.000000  -0.000000   0.000000
    38  C    0.019247   0.028874   0.028874  -0.013782  -0.003395   0.000541
    39  Pt   0.007654   0.193072   0.193070  -0.016502   0.045719  -0.003535
              19         20         21         22         23         24
     1  C   -0.000013   0.018314  -0.000897   0.001403  -0.000811   0.009589
     2  C   -0.000055  -0.001108   0.000040   0.000037  -0.000198  -0.002492
     3  C   -0.000001  -0.000062  -0.000005  -0.000065  -0.000041   0.002149
     4  C   -0.000002   0.000068  -0.000005  -0.000002   0.000025   0.000183
     5  C    0.000000  -0.000022   0.000004  -0.000003  -0.000015  -0.000244
     6  H   -0.000000  -0.000013  -0.000001   0.000012  -0.000001   0.000005
     7  H   -0.000000   0.000001  -0.000000  -0.000000   0.000000   0.000001
     8  C    0.000006  -0.041523   0.009517  -0.010639  -0.007085  -0.037269
     9  H    0.000001  -0.004007   0.000642  -0.002787   0.001693   0.005167
    10  H    0.000000  -0.006797  -0.000460   0.003942  -0.000161  -0.012105
    11  C    0.000007  -0.000192  -0.000011   0.000007  -0.000044  -0.000005
    12  H   -0.000001  -0.000003   0.000000  -0.000000   0.000002  -0.000000
    13  H    0.000001   0.000003  -0.000000  -0.000000   0.000000   0.000005
    14  N   -0.000085   0.250823  -0.029688  -0.018367  -0.035066   0.265330
    15  N   -0.000733   0.000783   0.000051  -0.000016   0.000063   0.000849
    16  C    0.414555   0.000970   0.002457  -0.000180  -0.000602  -0.002069
    17  H   -0.012384  -0.001858  -0.001162   0.000004   0.000177   0.001953
    18  H   -0.009134  -0.002869  -0.000118   0.000007   0.000302   0.000120
    19  H    0.501651   0.000076   0.000231   0.000002  -0.000026  -0.000000
    20  C    0.000076   4.813118   0.417356   0.412429   0.429318  -0.043962
    21  H    0.000231   0.417356   0.544529  -0.017351  -0.016026  -0.006579
    22  H    0.000002   0.412429  -0.017351   0.517253  -0.018012  -0.007496
    23  H   -0.000026   0.429318  -0.016026  -0.018012   0.525986   0.006594
    24  C   -0.000000  -0.043962  -0.006579  -0.007496   0.006594   4.807545
    25  H    0.000001  -0.008654  -0.001431   0.004645  -0.000202   0.415926
    26  H    0.000058  -0.008801   0.002738  -0.000975   0.000114   0.422675
    27  H   -0.000002   0.007142   0.000152  -0.000340  -0.000124   0.420087
    28  C   -0.002868  -0.000160  -0.000024   0.000003  -0.000026  -0.000081
    29  H    0.000007   0.000003   0.000000  -0.000000   0.000000   0.000001
    30  H   -0.000118  -0.000024   0.000001   0.000000  -0.000001  -0.000006
    31  H    0.000302  -0.000026  -0.000001   0.000000  -0.000005  -0.000000
    32  C    0.000120  -0.000081  -0.000006   0.000001  -0.000000   0.000033
    33  H    0.000018   0.000005  -0.000002   0.000000  -0.000001   0.000064
    34  H   -0.000001   0.000002  -0.000000  -0.000000   0.000000   0.000012
    35  H    0.000014  -0.000022  -0.000000   0.000000   0.000000   0.000013
    36  H   -0.011553   0.002349  -0.002646   0.000089  -0.000509  -0.000017
    37  H    0.000000  -0.000001   0.000000   0.000000  -0.000000  -0.000002
    38  C    0.000541  -0.011498  -0.000054   0.001515  -0.000325  -0.007307
    39  Pt  -0.003534  -0.030428  -0.012399   0.010346  -0.006782  -0.028288
              25         26         27         28         29         30
     1  C   -0.004351   0.000596   0.011560  -0.001108   0.000037   0.000040
     2  C    0.000211  -0.000224  -0.000786   0.018314   0.001403  -0.000897
     3  C   -0.000342  -0.000002   0.001843   0.000068  -0.000002  -0.000005
     4  C   -0.000002  -0.000001  -0.000042  -0.000062  -0.000065  -0.000005
     5  C   -0.000008   0.000006   0.000013  -0.000022  -0.000003   0.000004
     6  H   -0.000004   0.000000   0.000039   0.000001  -0.000000  -0.000000
     7  H   -0.000000   0.000000   0.000001  -0.000013   0.000012  -0.000001
     8  C   -0.012788   0.006959  -0.005440  -0.000192   0.000007  -0.000011
     9  H    0.000156  -0.000225   0.000252  -0.000003  -0.000000   0.000000
    10  H    0.005723   0.000093  -0.003975   0.000003  -0.000000  -0.000000
    11  C    0.000002  -0.000031   0.000095  -0.041525  -0.010639   0.009517
    12  H   -0.000000   0.000000  -0.000003  -0.004007  -0.002787   0.000642
    13  H   -0.000000   0.000000   0.000001  -0.006798   0.003942  -0.000460
    14  N   -0.019200  -0.031016  -0.029873   0.000783  -0.000016   0.000051
    15  N   -0.000028   0.000146   0.000120   0.250823  -0.018365  -0.029690
    16  C   -0.000166  -0.000257   0.000309   0.000972  -0.000180   0.002457
    17  H    0.000060  -0.000995  -0.000258  -0.001857   0.000004  -0.001162
    18  H   -0.000001   0.000018   0.000014   0.000076   0.000002   0.000231
    19  H    0.000001   0.000058  -0.000002  -0.002868   0.000007  -0.000118
    20  C   -0.008654  -0.008801   0.007142  -0.000160   0.000003  -0.000024
    21  H   -0.001431   0.002738   0.000152  -0.000024   0.000000   0.000001
    22  H    0.004645  -0.000975  -0.000340   0.000003  -0.000000   0.000000
    23  H   -0.000202   0.000114  -0.000124  -0.000026   0.000000  -0.000001
    24  C    0.415926   0.422675   0.420087  -0.000081   0.000001  -0.000006
    25  H    0.531892  -0.019236  -0.017974   0.000002  -0.000000  -0.000000
    26  H   -0.019236   0.537445  -0.014183   0.000005   0.000000  -0.000002
    27  H   -0.017974  -0.014183   0.510876  -0.000022   0.000000  -0.000000
    28  C    0.000002   0.000005  -0.000022   4.813109   0.412428   0.417358
    29  H   -0.000000   0.000000   0.000000   0.412428   0.517253  -0.017350
    30  H   -0.000000  -0.000002  -0.000000   0.417358  -0.017350   0.544528
    31  H    0.000000  -0.000001   0.000000   0.429318  -0.018012  -0.016027
    32  C    0.000012   0.000064   0.000013  -0.043962  -0.007496  -0.006579
    33  H   -0.000000   0.000017   0.000058  -0.008801  -0.000976   0.002737
    34  H   -0.000000  -0.000000  -0.000003  -0.008654   0.004645  -0.001431
    35  H   -0.000003   0.000058   0.000005   0.007142  -0.000340   0.000152
    36  H    0.000001   0.000035  -0.000028   0.002349   0.000089  -0.002646
    37  H    0.000000   0.000000  -0.000002  -0.000001   0.000000   0.000000
    38  C    0.003053  -0.001024  -0.009268  -0.011497   0.001515  -0.000054
    39  Pt   0.008403  -0.010216  -0.005500  -0.030426   0.010346  -0.012397
              31         32         33         34         35         36
     1  C   -0.000197  -0.002492  -0.000224   0.000211  -0.000786   0.000235
     2  C   -0.000811   0.009589   0.000596  -0.004351   0.011561   0.000235
     3  C    0.000025   0.000183  -0.000001  -0.000002  -0.000042   0.000028
     4  C   -0.000041   0.002149  -0.000002  -0.000342   0.001843   0.000028
     5  C   -0.000015  -0.000244   0.000006  -0.000008   0.000013  -0.000005
     6  H    0.000000   0.000001   0.000000  -0.000000   0.000001   0.000000
     7  H   -0.000001   0.000005   0.000000  -0.000004   0.000039   0.000000
     8  C   -0.000044  -0.000005  -0.000031   0.000002   0.000095  -0.000277
     9  H    0.000002  -0.000000   0.000000  -0.000000  -0.000003   0.000013
    10  H    0.000000   0.000005   0.000000  -0.000000   0.000001  -0.000002
    11  C   -0.007085  -0.037268   0.006959  -0.012787  -0.005441  -0.000277
    12  H    0.001693   0.005167  -0.000225   0.000156   0.000252   0.000013
    13  H   -0.000161  -0.012105   0.000093   0.005723  -0.003974  -0.000002
    14  N    0.000063   0.000849   0.000146  -0.000028   0.000120   0.000742
    15  N   -0.035066   0.265326  -0.031017  -0.019200  -0.029873   0.000741
    16  C   -0.000602  -0.002069  -0.000258  -0.000166   0.000309   0.345458
    17  H    0.000177   0.001953  -0.000995   0.000060  -0.000258  -0.024007
    18  H   -0.000026  -0.000000   0.000058   0.000001  -0.000002  -0.011553
    19  H    0.000302   0.000120   0.000018  -0.000001   0.000014  -0.011553
    20  C   -0.000026  -0.000081   0.000005   0.000002  -0.000022   0.002349
    21  H   -0.000001  -0.000006  -0.000002  -0.000000  -0.000000  -0.002646
    22  H    0.000000   0.000001   0.000000  -0.000000   0.000000   0.000089
    23  H   -0.000005  -0.000000  -0.000001   0.000000   0.000000  -0.000509
    24  C   -0.000000   0.000033   0.000064   0.000012   0.000013  -0.000017
    25  H    0.000000   0.000012  -0.000000  -0.000000  -0.000003   0.000001
    26  H   -0.000001   0.000064   0.000017  -0.000000   0.000058   0.000035
    27  H    0.000000   0.000013   0.000058  -0.000003   0.000005  -0.000028
    28  C    0.429318  -0.043962  -0.008801  -0.008654   0.007142   0.002349
    29  H   -0.018012  -0.007496  -0.000976   0.004645  -0.000340   0.000089
    30  H   -0.016027  -0.006579   0.002737  -0.001431   0.000152  -0.002646
    31  H    0.525989   0.006594   0.000114  -0.000202  -0.000124  -0.000508
    32  C    0.006594   4.807548   0.422676   0.415926   0.420088  -0.000017
    33  H    0.000114   0.422676   0.537444  -0.019235  -0.014183   0.000035
    34  H   -0.000202   0.415926  -0.019235   0.531891  -0.017974   0.000001
    35  H   -0.000124   0.420088  -0.014183  -0.017974   0.510876  -0.000028
    36  H   -0.000508  -0.000017   0.000035   0.000001  -0.000028   0.544052
    37  H   -0.000000  -0.000002   0.000000   0.000000  -0.000002  -0.000000
    38  C   -0.000325  -0.007306  -0.001024   0.003053  -0.009268  -0.004004
    39  Pt  -0.006781  -0.028288  -0.010215   0.008403  -0.005500   0.042709
              37         38         39
     1  C    0.008816   0.078343  -0.066314
     2  C    0.008816   0.078341  -0.066313
     3  C   -0.042301   0.078244   0.016878
     4  C   -0.042301   0.078244   0.016878
     5  C    0.445266  -0.134673  -0.003955
     6  H   -0.004230   0.016431  -0.000673
     7  H   -0.004230   0.016432  -0.000673
     8  C   -0.000250  -0.128987  -0.044545
     9  H    0.000001  -0.008257  -0.002877
    10  H   -0.000006   0.019247   0.007653
    11  C   -0.000250  -0.128984  -0.044545
    12  H    0.000001  -0.008257  -0.002878
    13  H   -0.000006   0.019247   0.007654
    14  N    0.000009   0.028874   0.193072
    15  N    0.000009   0.028874   0.193070
    16  C   -0.000000  -0.013782  -0.016502
    17  H   -0.000000  -0.003395   0.045719
    18  H    0.000000   0.000541  -0.003535
    19  H    0.000000   0.000541  -0.003534
    20  C   -0.000001  -0.011498  -0.030428
    21  H    0.000000  -0.000054  -0.012399
    22  H    0.000000   0.001515   0.010346
    23  H   -0.000000  -0.000325  -0.006782
    24  C   -0.000002  -0.007307  -0.028288
    25  H    0.000000   0.003053   0.008403
    26  H    0.000000  -0.001024  -0.010216
    27  H   -0.000002  -0.009268  -0.005500
    28  C   -0.000001  -0.011497  -0.030426
    29  H    0.000000   0.001515   0.010346
    30  H    0.000000  -0.000054  -0.012397
    31  H   -0.000000  -0.000325  -0.006781
    32  C   -0.000002  -0.007306  -0.028288
    33  H    0.000000  -0.001024  -0.010215
    34  H    0.000000   0.003053   0.008403
    35  H   -0.000002  -0.009268  -0.005500
    36  H   -0.000000  -0.004004   0.042709
    37  H    0.493431  -0.001431   0.000076
    38  C   -0.001431   5.983197   0.327824
    39  Pt   0.000076   0.327824  17.253742
 Mulliken charges:
               1
     1  C    0.091067
     2  C    0.091059
     3  C   -0.262779
     4  C   -0.262777
     5  C   -0.060039
     6  H    0.125817
     7  H    0.125816
     8  C   -0.050482
     9  H    0.116350
    10  H    0.116197
    11  C   -0.050485
    12  H    0.116351
    13  H    0.116197
    14  N   -0.065290
    15  N   -0.065296
    16  C   -0.349119
    17  H    0.091837
    18  H    0.122912
    19  H    0.122916
    20  C   -0.190650
    21  H    0.111145
    22  H    0.124538
    23  H    0.121786
    24  C   -0.210379
    25  H    0.114304
    26  H    0.116159
    27  H    0.135241
    28  C   -0.190645
    29  H    0.124537
    30  H    0.111145
    31  H    0.121784
    32  C   -0.210383
    33  H    0.116160
    34  H    0.114304
    35  H    0.135241
    36  H    0.118874
    37  H    0.138588
    38  C   -0.272796
    39  Pt   0.300793
 Sum of Mulliken charges =   1.00000
 Mulliken charges with hydrogens summed into heavy atoms:
               1
     1  C    0.091067
     2  C    0.091059
     3  C   -0.136962
     4  C   -0.136961
     5  C    0.078549
     8  C    0.182065
    11  C    0.182063
    14  N   -0.065290
    15  N   -0.065296
    16  C    0.107420
    20  C    0.166820
    24  C    0.155326
    28  C    0.166822
    32  C    0.155322
    38  C   -0.272796
    39  Pt   0.300793
 Electronic spatial extent (au):  <R**2>=           4030.5017
 Charge=              1.0000 electrons
 Dipole moment (field-independent basis, Debye):
    X=             -4.4124    Y=              0.0000    Z=              0.4809  Tot=              4.4386
 Quadrupole moment (field-independent basis, Debye-Ang):
   XX=            -93.4085   YY=            -74.3586   ZZ=           -109.9450
   XY=              0.0003   XZ=             -0.3397   YZ=              0.0001
 Traceless Quadrupole moment (field-independent basis, Debye-Ang):
   XX=             -0.8378   YY=             18.2121   ZZ=            -17.3743
   XY=              0.0003   XZ=             -0.3397   YZ=              0.0001
 Octapole moment (field-independent basis, Debye-Ang**2):
  XXX=            -97.4993  YYY=              0.0013  ZZZ=             -7.1260  XYY=            -34.1732
  XXY=              0.0003  XXZ=             -1.4438  XZZ=            -45.7161  YZZ=              0.0007
  YYZ=             -2.9245  XYZ=              0.0000
 Hexadecapole moment (field-independent basis, Debye-Ang**3):
 XXXX=          -2311.2362 YYYY=          -2032.2442 ZZZZ=           -420.9393 XXXY=              0.0005
 XXXZ=             15.1389 YYYX=              0.0018 YYYZ=              0.0008 ZZZX=              4.7725
 ZZZY=              0.0007 XXYY=           -741.9826 XXZZ=           -544.4510 YYZZ=           -430.8779
 XXYZ=             -0.0012 YYXZ=              4.3385 ZZXY=              0.0008
 N-N= 1.407037020969D+03 E-N=-4.478418058176D+03  KE= 6.557662855470D+02
 Unable to Open any file for archive entry.
 1\1\GINC-NODE001\Scan\RwB97XD\def2TZVPP\C13H23N2Pt1(1+)\MVANVLEET\20-M
 ay-2024\0\\# wb97xd def2TZVPP SCRF=(solvent=dichloromethane) opt=modre
 dundant\\scan_YPtMeH\\1,1\C,1.9192560395,1.2154719582,-0.1076047936\C,
 1.9189915828,-1.2157556216,-0.1083131157\C,3.3034621967,1.2136619239,-
 0.0112339155\C,3.3031961952,-1.2143006211,-0.0119383379\C,3.9817711769
 ,-0.0004115992,0.0528422748\H,3.8581170531,2.1433457263,0.0050673109\H
 ,3.8576518674,-2.1441129122,0.0038249509\C,1.0357808778,2.405300277,-0
 .3385566976\H,1.0308585279,2.6342378449,-1.4042279958\H,1.3597571775,3
 .3037825614,0.1889366067\C,1.0352628991,-2.4052592635,-0.3399703588\H,
 1.0302947234,-2.6335517882,-1.4057796782\H,1.3590580766,-3.3041252546,
 0.1869804209\N,-0.3885082598,2.0936205952,0.0493652978\N,-0.3889616531
 ,-2.0935250278,0.0481404527\C,-3.1718314537,0.0003655496,-0.0135655715
 \H,-2.5354152046,0.0000656832,0.8880969349\H,-3.7871955953,0.894279706
 9,0.0259737562\H,-3.7874401438,-0.8933969978,0.0256289686\C,-1.3007790
 621,2.8995363284,-0.7868057191\H,-2.323668597,2.7513027121,-0.45112546
 76\H,-1.0506876754,3.9591241438,-0.700398124\H,-1.2117941877,2.5881994
 055,-1.8242018793\C,-0.582430804,2.4720530302,1.4709684401\H,-0.441455
 7992,3.5489550043,1.58627488\H,-1.5886588842,2.2094403881,1.7877351421
 \H,0.1392263971,1.9443965574,2.0888152148\C,-1.3013783073,-2.898822338
 2,-0.7884711307\H,-1.051476792,-3.9585008383,-0.7026325517\H,-2.324244
 4861,-2.7505846122,-0.4527221208\H,-1.2123252259,-2.5869420998,-1.8256
 98418\C,-0.5829348438,-2.4727120498,1.4695326548\H,-1.5891087762,-2.21
 00838838,1.7864592587\H,-0.442157827,-3.549702524,1.5842427692\H,0.138
 8242238,-1.9455290541,2.0876656333\H,-2.6388579675,0.000460193,-1.0147
 695218\H,5.0601241075,-0.0005562475,0.13692088\C,1.2560024406,-0.00006
 47308,-0.1180370855\Pt,-0.6621940169,0.0001278753,-0.0922793643\\Versi
 on=ES64L-G16RevC.01\State=1-A\HF=-738.0596307,-738.0699514\RMSD=6.778e
 -09,3.585e-09\PG=C01 [X(C13H23N2Pt1)]\\@
 The archive entry for this job was punched.


 RESEARCH IS WHAT I AM DOING WHEN I DON'T KNOW WHAT I AM DOING.
     -- WERNER VON BRAUN
 Job cpu time:       6 days 22 hours 32 minutes 20.3 seconds.
 Elapsed time:       0 days  3 hours 30 minutes 23.3 seconds.
 File lengths (MBytes):  RWF=    529 Int=      0 D2E=      0 Chk=     54 Scr=      1
 Normal termination of Gaussian 16 at Mon May 20 20:14:16 2024.
